49
Lattice="12.336457 0.0 0.0 -6.168228499999997 10.683685154694365 0.0 0.0 0.0 15.0" Properties=species:S:1:pos:R:3:forces:R:3 energy=-423.2625800236352 free_energy=-423.2625800236352 stress="-0.0014512665221084336 0.0011371283081544198 -4.071122154042565e-06 0.0011371283081544198 -0.004199429227741662 -1.3979717649935864e-05 -4.071122154042565e-06 -1.3979717649935864e-05 2.798242776430813e-06" pbc="T T T"
C        0.01456433      -0.00216903       3.80749744      -0.00091103      -0.00056867      -0.00452317
C       -1.22643497       2.12593703       3.51567197      -0.00008996       0.00424771      -0.00650829
C       -2.49595784       4.26913258       3.55622660       0.00446468      -0.00176638       0.00080646
C       -3.71691594       6.39884049       3.76419660      -0.00004190       0.00834535      -0.00740478
C       -4.93675799       8.52835441       3.90327789      -0.00460630      -0.00458268      -0.00397177
C        2.48039534      -0.00418175       3.80813854      -0.00536260      -0.00127648      -0.00161630
C        1.25900106       2.05354662       3.32873402      -0.00171118       0.00269460       0.00580326
C       -0.12897221       4.27160478       3.02030556       0.00285000      -0.01020928       0.00319121
C       -1.25218189       6.40757303       3.47984343       0.00051143      -0.00164790      -0.00359409
C       -2.45791611       8.52481192       3.76827520      -0.00386579       0.00789012      -0.00631373
C        4.93418288      -0.01489138       3.80674423       0.00747683      -0.00755078       0.00424893
C        3.73919653       2.11178503       3.77956469       0.00180952      -0.00449725       0.00071300
S        1.50716870       6.33262200       3.00915120      -0.00059332       0.00510553      -0.00665341
C        0.01001324       8.53698664       3.69867017      -0.00350789      -0.00063969       0.00380278
C        7.40171342       0.00987397       3.85376807      -0.00113742       0.00228597      -0.00834339
C        6.17268610       2.12494001       3.81957350       0.00096588      -0.00153626       0.00965853
C        4.94445469       4.20539244       3.96375229      -0.00057745       0.00017637       0.00573237
B        3.70404832       6.43390075       4.26762918      -0.00362929      -0.00333668      -0.00047254
C        2.47235951       8.59477040       3.96094109      -0.00048516      -0.00341490      -0.00491272
C        9.88734788       0.02328297       3.88385789      -0.00533743       0.00323071      -0.00343201
C        8.63903153       2.13986685       3.74527335      -0.00167577      -0.00887021       0.00406353
C        7.38842464       4.26713861       3.80151921       0.01054337      -0.00137950      -0.00418981
C        6.14251486       6.37767642       3.96814531       0.00128987       0.00009004      -0.00776230
C        4.93917306       8.55344210       4.03390787       0.00624510       0.00614282      -0.00756294
C        0.01691418       1.41480345       3.55450320      -0.00025648       0.00182554      -0.00271587
C       -1.27739795       3.53655221       3.35483439       0.00291110      -0.00159954       0.00611272
C       -2.49242384       5.69046888       3.59679740       0.00002423       0.00270502       0.00079494
C       -3.70456844       7.81934216       3.81713427      -0.00164320       0.00527681       0.00534722
C       -4.92565440       9.96084114       3.85247895      -0.00470590      -0.00680825       0.00075327
C        2.49639530       1.42544991       3.67379416       0.00036744       0.00203623       0.00602148
S        1.31013612       3.50889632       2.41143975      -0.00049890       0.00476351      -0.00266979
C       -0.09764920       5.66099939       3.16914533      -0.00899426      -0.01538687      -0.00724859
C       -1.22612627       7.82310278       3.63894372      -0.00213638       0.00273662       0.00965828
C       -2.46047576       9.95695144       3.81647045      -0.00132499       0.00520494       0.00355502
C        4.93646781       1.41665315       3.81146016       0.00495346      -0.00626112       0.00473692
O        3.76792145       3.47723753       3.98900004      -0.01348075       0.00671359      -0.00450027
C        1.27222290       7.90079509       3.68169461      -0.00771000      -0.00363280      -0.00654137
C        0.00464262       9.96746127       3.80552227       0.00620928      -0.00169510       0.00852780
C        7.40149337       1.43124364       3.81263901      -0.00390397      -0.00185719       0.00563390
C        6.16223222       3.53499520       3.85135081       0.00422986      -0.00050358       0.00900157
C        4.92299682       5.61688848       4.04306940       0.00314322      -0.00196392      -0.00008683
C        3.68880797       7.88672594       4.08701864       0.01061506       0.00376723       0.00020399
C        2.47255501      10.01488802       3.93155345      -0.00502020      -0.00058772       0.00304319
C        9.88666467       1.43606578       3.72508382      -0.00022111       0.00241628      -0.00575202
C        8.61986986       3.55809198       3.70161503       0.00934030      -0.00973966       0.00496778
C        7.38499801       5.68357869       3.84417292       0.00324014       0.00363526      -0.00210107
C        6.15761804       7.81002765       3.98585975       0.00124308      -0.00082275       0.00758999
C        4.94977338       9.98765746       3.92504854      -0.00208810       0.00764778       0.00177789
Ag       2.18884030       5.38859469       5.32942422       0.00308291       0.01319715      -0.00686898
