49
Lattice="12.336457 0.0 0.0 -6.168228499999997 10.683685154694365 0.0 0.0 0.0 15.0" Properties=species:S:1:pos:R:3:forces:R:3 energy=-432.856211457914 free_energy=-432.856211457914 stress="-0.0038569544866004207 0.0009187278514246469 -1.3861612186789417e-07 0.0009187278514246469 -0.002366292148967911 2.342377573873781e-08 -1.3861612186789417e-07 2.342377573873781e-08 2.167673623071419e-06" pbc="T T T"
C        0.00368085      -0.00681849       3.76183709       0.00053448       0.00397548      -0.00123968
C       -1.22633118       2.12948025       3.71462410      -0.00838408       0.00290775       0.01294747
C       -2.48918440       4.27121813       3.54765287      -0.00727084       0.00151901       0.00245405
C       -3.71584095       6.41211318       3.53853044       0.00534656       0.01019215       0.00705408
C       -4.93042294       8.55068896       3.65799586       0.00606663       0.00392231      -0.00060007
C        2.48167535       0.00995220       3.75680580      -0.00045755      -0.00065364       0.00623617
C        1.25616516       2.11368233       3.96185137      -0.00624241      -0.00563285       0.01069888
C       -0.07051437       4.28874664       3.81352053      -0.00570506      -0.00147245       0.00614673
C       -1.25131551       6.42188691       3.61947643      -0.00374813      -0.00177164       0.00503007
C       -2.46846548       8.55404363       3.62142717       0.00088607       0.00309689       0.00496631
C        4.94035196       0.00564146       3.68773743      -0.00314711      -0.00743209      -0.01310953
C        3.73637815       2.17072624       3.85217558      -0.00402217      -0.00159609      -0.00420576
B        1.24808633       6.39910411       4.03138717       0.01274972       0.00454714      -0.00368224
C       -0.00174597       8.55254232       3.73103396      -0.00811845      -0.00322937      -0.00057411
C        7.41209386      -0.00443139       3.67911284       0.00516971      -0.00289842      -0.00330560
C        6.18027032       2.12695425       3.62378724       0.00134397      -0.00245171      -0.00699385
C        4.93139829       4.22451570       3.74419856      -0.00622755       0.00659588      -0.01218688
C        3.71929605       6.38719038       3.98073349      -0.01309583      -0.00894461       0.00016573
C        2.47523231       8.55056744       3.85856342       0.00462004      -0.00625623      -0.00296992
C        9.87837556      -0.00610640       3.71505751       0.00068926       0.00641169       0.00663415
C        8.64441405       2.12990905       3.58681482       0.00992931      -0.00573102      -0.00067220
C        7.39331442       4.27046367       3.54029235       0.01032733      -0.00437174      -0.00352613
C        6.15508277       6.40553059       3.65107887      -0.00021827       0.00019830      -0.01241795
C        4.94004440       8.53059563       3.77409881       0.00055681       0.00431470      -0.00017766
C        0.00568437       1.42083679       3.81919997      -0.00798256       0.00017338      -0.00040597
C       -1.25701788       3.55057593       3.66627209      -0.01158357       0.00051922       0.00429834
C       -2.49048720       5.70006456       3.53675888      -0.00366670       0.00301397       0.00428420
C       -3.70381003       7.83929236       3.59207863       0.00694177       0.00679280       0.00672066
C       -4.92676623       9.97361942       3.73124075       0.00429131       0.00015548      -0.00655831
C        2.49309501       1.43054144       3.88115003      -0.00627988      -0.00269486       0.01104772
B        1.16284925       3.56450262       4.16870489       0.00999592       0.00169710      -0.00203943
C       -0.05204823       5.69746564       3.77133717       0.00222515      -0.00153440       0.00468299
C       -1.23610662       7.84444799       3.64638822      -0.00657494      -0.00287966       0.00969131
C       -2.46223818       9.97658534       3.68502403      -0.00295960      -0.00118889       0.00498356
C        4.95305688       1.42679444       3.70907623      -0.00266625      -0.00545631      -0.01626711
N        3.79674185       3.51991248       3.94380511      -0.00109584      -0.00182169      -0.00857443
C        1.24185581       7.86828984       3.87081785      -0.00250433       0.00729292       0.00170700
C        0.00492768       9.97482193       3.68707653      -0.00150492      -0.00540784       0.00174424
C        7.41468174       1.41662075       3.61143417       0.00930313      -0.00198439       0.00085719
C        6.17274569       3.54560602       3.60128027       0.00174041       0.00248018       0.00267178
C        4.90208482       5.69249951       3.76908287      -0.00841497       0.00486740      -0.00790971
C        3.69595668       7.78916271       3.88320052       0.00264775      -0.01088938       0.00046800
C        2.47915798       9.96886289       3.74111985       0.00706460      -0.00188001       0.01071819
C        9.87804489       1.41631127       3.65510854       0.00238298       0.00309199      -0.00093007
C        8.62742785       3.55636667       3.53519484       0.00739326      -0.00932128      -0.00686290
C        7.38471755       5.69703407       3.55647257       0.00604763       0.00150568      -0.00719291
C        6.16755369       7.82979469       3.68862092       0.00161190       0.00493064       0.00087863
C        4.93961902       9.95621539       3.74869912      -0.00219526       0.01051401      -0.00164262
Ag       2.44362785       5.03412758       5.00578178       0.00420055       0.00278451      -0.00304242
