49
Lattice="12.336457 0.0 0.0 -6.168228499999997 10.683685154694365 0.0 0.0 0.0 15.0" Properties=species:S:1:pos:R:3:forces:R:3 energy=-426.4270425644475 free_energy=-426.4270425644475 stress="-0.002308693626408444 -0.0023261946874848583 2.9069525323162466e-06 -0.0023261946874848583 -0.007620124065062611 8.590304699632206e-07 2.9069525323162466e-06 8.590304699632206e-07 -4.3981868537958307e-07" pbc="T T T"
C       -0.00245169      -0.03096959       3.74114048       0.00751918       0.00752270      -0.00550669
C       -1.24294015       2.11392908       3.85882014       0.00233446      -0.00329755       0.00457114
C       -2.47988427       4.25558322       3.73863941       0.00521201       0.00180969      -0.00787461
C       -3.69334427       6.38877863       3.63864907      -0.00879239       0.01055016      -0.00913765
C       -4.92473255       8.52075656       3.65363771      -0.00213986      -0.00226472       0.00879503
C        2.47232939      -0.06106085       3.63105564      -0.01000302       0.00252455       0.01109732
C        1.25470852       2.04627117       3.98995653      -0.00517060       0.00183594       0.00253839
C       -0.06952123       4.27109021       4.16439532      -0.01174830       0.00243488       0.00756707
C       -1.22470422       6.39189820       3.79791560      -0.00190547      -0.00634236       0.00018079
C       -2.45294332       8.51159357       3.62273022       0.00757368       0.00032830       0.00690445
C        4.93585308      -0.02642472       3.53254661      -0.00782914      -0.00311089       0.00135080
C        3.66583110       2.04506600       3.39090081       0.00575371      -0.00763035       0.00473717
B        1.28531429       6.41829682       4.23658457       0.00599135       0.00536178       0.00109504
C        0.00550546       8.53945074       3.75928763      -0.00334015      -0.00007780      -0.01000120
C        7.39536571       0.00244086       3.62012368      -0.00230910      -0.00425238      -0.00480362
C        6.14570136       2.13548597       3.42623986       0.00519320       0.00312158      -0.00838511
C        4.95552744       4.32041517       3.38063768       0.00298189       0.01016021      -0.00136232
C        3.71669108       6.41670101       3.96754202       0.00535630      -0.01260545      -0.00718593
C        2.47160344       8.56703462       3.86679895       0.00089298      -0.00250503      -0.00547887
C        9.86665450      -0.00282780       3.71420684       0.00639324      -0.00299475      -0.00491689
C        8.62468920       2.13023795       3.61801015       0.00835291      -0.00445215       0.00118860
C        7.39380473       4.26773205       3.55549890      -0.00303851      -0.00077090      -0.01352326
C        6.17462667       6.41077103       3.65362674      -0.00092803       0.00204351      -0.00697316
C        4.94268449       8.53535496       3.74959590      -0.00025620       0.00656794      -0.00738421
C       -0.00431408       1.39039623       3.87354534      -0.00057571       0.00231871       0.00864615
C       -1.25873643       3.53311583       3.91527502       0.00343961      -0.00341198       0.00668988
C       -2.46559857       5.67826803       3.70633496      -0.00990936       0.00545223       0.00161036
C       -3.69064136       7.80826979       3.62946607       0.00320343       0.00859475       0.00698484
C       -4.93662026       9.93242572       3.67863132      -0.00482091      -0.00349244       0.00339785
C        2.46582877       1.35120120       3.68452680      -0.00495388       0.00341886      -0.00660280
P        1.34458701       3.54562913       4.87479959      -0.00451214      -0.00938290      -0.00903228
C       -0.01684852       5.67873465       4.03410628      -0.00366696       0.00003840       0.00577955
C       -1.21791208       7.81033594       3.71676772       0.00319758      -0.00783019       0.00266531
C       -2.45695507       9.93011621       3.57410003      -0.00975591       0.00073146       0.01729747
C        4.92173968       1.40760702       3.42440388       0.00640568      -0.00301058      -0.00399518
S        3.46928656       3.66009813       2.82688933       0.00027027      -0.00484958      -0.00830121
C        1.24930484       7.87464468       3.94223346      -0.00399116       0.00987529       0.00879957
C        0.00080909       9.96216386       3.62094213      -0.00773150      -0.00127335       0.00601946
C        7.38227003       1.42801715       3.53644431       0.00564773      -0.00088306       0.00664373
C        6.14485661       3.56306925       3.43668860      -0.00718571       0.00296989      -0.00127767
C        4.91182666       5.72422478       3.65697170       0.00965212       0.00024645      -0.00683134
C        3.69753922       7.81263798       3.86799987       0.00196694      -0.01133877      -0.00624806
C        2.46601633       9.98150669       3.72038574       0.00265135      -0.00258463      -0.00605654
C        9.86234795       1.41728522       3.71551780       0.00629740      -0.00705452       0.00954953
C        8.62486589       3.55181772       3.62342505       0.00454101      -0.00099708       0.00278637
C        7.40061866       5.68728660       3.60683567      -0.00469249       0.00277251      -0.00372050
C        6.17364737       7.82537554       3.69384511      -0.00407472       0.00307547       0.00130684
C        4.93178286       9.95406152       3.72969379       0.01058639       0.00916650       0.00819579
Ag       2.66132338       5.50265541       5.55634954       0.00191686       0.00349167      -0.00179938
