49
Lattice="12.336457 0.0 0.0 -6.168228499999997 10.683685154694365 0.0 0.0 0.0 15.0" Properties=species:S:1:pos:R:3:forces:R:3 energy=-434.688633521525 free_energy=-434.688633521525 stress="-0.006915592657124955 0.0009679359562836674 -1.139892708459671e-06 0.0009679359562836674 0.001440075111951491 1.084533013231039e-08 -1.139892708459671e-06 1.084533013231039e-08 1.7452506068732227e-09" pbc="T T T"
C       -0.00714932       0.00973536       3.72875515      -0.00141283      -0.00683875       0.00666762
C       -1.24631922       2.12437013       3.63476273      -0.00909723      -0.00198075      -0.00160188
C       -2.46828294       4.27274178       3.51319915      -0.00941178      -0.00153333      -0.01521762
C       -3.69710309       6.42008820       3.53182609      -0.00630210       0.01562334       0.00521708
C       -4.93972151       8.56693094       3.66580670       0.00020762      -0.00741977       0.00462664
C        2.45361053       0.05622259       3.75996844      -0.00806280      -0.00032435       0.01225844
C        1.19317654       2.19525809       3.87521996       0.00864509       0.00957091       0.00515177
C       -0.02768378       4.24744418       3.75931913       0.00769648       0.00495123      -0.00960145
C       -1.24883167       6.42113823       3.61457546      -0.00302612      -0.00091932      -0.00689913
C       -2.48411615       8.57296210       3.63546894      -0.00456575       0.00351129       0.00185968
C        4.92770148       0.01189415       3.71472639      -0.00298800      -0.00522939      -0.00629251
C        3.70747462       2.19139802       3.90921714       0.01081757      -0.00242285      -0.00254202
N        1.11898079       6.42300787       3.97772830       0.00509079      -0.00135026      -0.00747116
C       -0.02268859       8.53597504       3.73533639      -0.00051826       0.00437178      -0.00934321
C        7.39926752      -0.02721845       3.68163831       0.00929670       0.00777879      -0.00256655
C        6.18677807       2.11062031       3.63362472       0.00530156      -0.00052169      -0.00591658
C        5.00508792       4.23581726       3.81859786      -0.00811340      -0.00245592       0.00072029
B        3.80411466       6.38891594       4.19095658       0.00076245       0.01142253      -0.00675891
C        2.44241769       8.51035769       3.88707480      -0.00314139      -0.00232691       0.00104224
C        9.85787063      -0.02619877       3.70376526      -0.00133219      -0.00381881      -0.00703028
C        8.63773176       2.11579173       3.54882764      -0.00400471      -0.01096057       0.00759208
C        7.42885078       4.26321021       3.52001280       0.00966746      -0.00066499      -0.00051354
C        6.19840121       6.41222688       3.69214455      -0.00007453      -0.00579127      -0.00529991
C        4.93059035       8.53851298       3.81886218       0.01133900       0.00042357       0.01334683
C       -0.01825803       1.43344209       3.73589936      -0.00001045      -0.00185199      -0.00937023
C       -1.24966326       3.55152577       3.59909942       0.00076594       0.00555865      -0.01253368
C       -2.46879553       5.70044968       3.52559002      -0.01318110       0.00611062      -0.00681999
C       -3.70985605       7.85216216       3.59760159       0.00000564       0.00525623       0.01175238
C       -4.93923756       9.99721876       3.71945187      -0.00136347      -0.01379767       0.01231811
C        2.44719957       1.47902749       3.87672504       0.00603195       0.00414458       0.01265218
N        1.09886833       3.54479637       3.99924468       0.01079334       0.00912491      -0.00301159
C       -0.02170169       5.72317867       3.75900432       0.00411528       0.00368609      -0.00375635
C       -1.25354295       7.84741989       3.64977407      -0.00257873       0.00378314       0.00039072
C       -2.48280558      10.00201954       3.70719481      -0.01040314      -0.00036354       0.00816924
C        4.94418313       1.42913995       3.74934295       0.00880287      -0.00535631      -0.00281914
C        3.83488982       3.55115913       4.09465943      -0.01172967      -0.00146455      -0.00915142
C        1.19114181       7.77661459       3.87198919      -0.00346413      -0.00375847       0.00625150
C       -0.00811670       9.95896237       3.70627882       0.00640097       0.00774213      -0.00187563
C        7.41299875       1.39423143       3.59986085       0.00253569      -0.00036439       0.00598107
C        6.21864749       3.52811571       3.60751508       0.00429837       0.00078383       0.00270463
C        5.02369692       5.66356507       3.85371309      -0.00257563      -0.00326405       0.00676846
C        3.68426301       7.83647987       3.96707095       0.00579446       0.01148042       0.00870912
C        2.45320869       9.93282178       3.74796432       0.00315452      -0.00079651       0.00492826
C        9.86198070       1.40031546       3.61118810      -0.00912170      -0.00392572      -0.00369970
C        8.64713938       3.54688745       3.49601747       0.00071553      -0.01488816      -0.00076849
C        7.42733888       5.69739085       3.55045158       0.00025876       0.00462035      -0.00417434
C        6.16803586       7.84074882       3.72808588       0.00359494      -0.00648337       0.00467384
C        4.92820369       9.96322581       3.74292974      -0.00249989      -0.00077141       0.00316951
Ag       2.53741637       4.95644797       4.90665229      -0.00711396      -0.00829931      -0.00191638
