49
Lattice="12.336457 0.0 0.0 -6.168228499999997 10.683685154694365 0.0 0.0 0.0 15.0" Properties=species:S:1:pos:R:3:forces:R:3 energy=-422.94949567405143 free_energy=-422.94949567405143 stress="-0.0009139504944672479 -0.0002220581263212244 8.942552620096804e-07 -0.0002220581263212244 -0.010697337187045379 8.956668737450116e-06 8.942552620096804e-07 8.956668737450116e-06 -6.791559281379728e-07" pbc="T T T"
C       -0.00529860      -0.02312679       3.51816799      -0.00139425      -0.00420694      -0.00672588
C       -1.23241019       2.12893136       3.30844669      -0.00551804       0.00802457       0.00093844
C       -2.48439070       4.26452133       3.45934626      -0.00018924      -0.00218200       0.00022258
C       -3.71619530       6.38654392       3.65866269       0.00403675       0.00012399      -0.00232115
C       -4.94768532       8.51027653       3.67241560       0.00648320       0.00147841      -0.00053440
C        2.45838905      -0.06913866       3.66896747       0.00414807       0.00041677      -0.00187791
C        1.26053235       2.02684738       3.28610798       0.00040450      -0.00378031      -0.00016580
C       -0.05928635       4.28855779       3.16637898      -0.01032109      -0.00391664      -0.00103563
C       -1.23280717       6.38512966       3.67073231       0.00308818       0.00041609       0.00553939
C       -2.46359924       8.50442371       3.75048024      -0.00101700      -0.00036707       0.00046884
C        4.92754678      -0.02796443       3.81030919      -0.01033302      -0.00081583       0.00329819
C        3.65541761       2.04684696       3.97470749       0.00503978      -0.00317517      -0.00372911
P        1.54596291       6.21793984       4.17152851       0.00981083      -0.00374974      -0.00832220
C       -0.00076047       8.54275077       3.87134793       0.00099754       0.00584789       0.00229681
C        7.38692944       0.02419768       3.74388745       0.00574210       0.00097573       0.00538629
C        6.15061661       2.13089253       3.85544188       0.00056954      -0.00247200      -0.00205329
C        4.96479891       4.28539144       4.09770797       0.00237558       0.00383513      -0.00774398
B        3.55914135       6.42120843       4.13540033       0.00786745       0.00093037      -0.00440326
C        2.47864150       8.63828524       3.89542917      -0.00092804      -0.00500489       0.00665439
C        9.87229350       0.02887214       3.59342337       0.00674988       0.00475679       0.00100807
C        8.62252274       2.14302871       3.56627761       0.00150131       0.00189184      -0.00674053
C        7.38646721       4.26450700       3.70427011       0.00260658       0.00534192       0.00123820
C        6.13744341       6.39843027       3.78765560      -0.00932276       0.00516282       0.00191840
C        4.92883603       8.55845038       3.75742001      -0.00667313      -0.00754536       0.00721672
C        0.00207206       1.40078256       3.34319091      -0.00402516       0.00403804       0.00445802
C       -1.25120927       3.54605291       3.27024088      -0.00456325       0.00333613      -0.00662071
C       -2.47545212       5.68099265       3.58649593       0.00290485      -0.00324810       0.00329518
C       -3.70793317       7.80312194       3.69495367       0.00447261      -0.00087195       0.00330451
C       -4.94802058       9.92804833       3.60860336       0.00411609       0.00017301      -0.00803071
C        2.45323307       1.34405391       3.65368920       0.00525617      -0.00063271       0.00026508
S        1.43757128       3.60467539       2.61489689       0.00028818       0.00659513      -0.00011970
C       -0.01292543       5.63427688       3.57109123      -0.00465939      -0.00565548       0.00112660
C       -1.22625132       7.80291953       3.79437804      -0.00088162       0.00515571       0.00231130
C       -2.46736095       9.92283874       3.76255204      -0.00474184      -0.00351166      -0.00522907
C        4.91908901       1.39871167       3.89742960      -0.00078221      -0.00178140      -0.00420043
P        3.53705537       3.57269931       4.79259057      -0.00655645      -0.01512119       0.00064374
C        1.26042646       7.92228606       3.99950474      -0.00054139      -0.00295719       0.00477456
C       -0.00533671       9.97041358       3.81018538      -0.00273846       0.00777452       0.00766888
C        7.38449085       1.43925188       3.71042317       0.00285037       0.00065171      -0.00178759
C        6.16243240       3.54846789       3.88031593      -0.00015809       0.00092428      -0.00375693
C        4.90369758       5.69102051       3.96348111      -0.00292486      -0.00046757       0.00614507
C        3.68763580       7.91174796       3.92226656      -0.00365987      -0.00746528       0.00615232
C        2.46497633      10.03634923       3.73142551       0.00783044      -0.00278999       0.00060770
C        9.87062534       1.44135825       3.46937684      -0.00056138       0.00640895      -0.00223234
C        8.61729464       3.55910877       3.56037618       0.00264290      -0.00079711      -0.00138430
C        7.37926054       5.68494269       3.70135934      -0.00350225       0.00743108      -0.00150065
C        6.15351705       7.81817235       3.73108959      -0.00122533       0.00367450       0.00195831
C        4.92949377       9.98011992       3.61082996      -0.00072300      -0.00704521       0.00164356
Ag       2.61590525       5.46033305       6.14946010      -0.00384176       0.00419536      -0.00002560
