49
Lattice="12.336457 0.0 0.0 -6.168228499999997 10.683685154694365 0.0 0.0 0.0 15.0" Properties=species:S:1:pos:R:3:forces:R:3 energy=-423.0598715493684 free_energy=-423.0598715493684 stress="0.00037771348254838103 -0.0036347423993529013 -1.8599544376039976e-05 -0.0036347423993529013 -0.004965755950877322 -4.898219621612519e-06 -1.8599544376039976e-05 -4.898219621612519e-06 -1.8131487892319186e-06" pbc="T T T"
C        0.00393095      -0.01275880       3.89410913       0.00186958      -0.00246137       0.00873739
C       -1.25525647       2.11465406       3.88623600       0.00360672       0.00579095      -0.00091640
C       -2.48128709       4.26023180       3.82540678      -0.00242934       0.00468404      -0.00010507
C       -3.69299388       6.39344424       3.79800487       0.00058558      -0.00820800      -0.00104582
C       -4.92803665       8.52564062       3.87295703       0.00259409      -0.00854526      -0.00203902
C        2.46045898      -0.01212739       3.76550759      -0.00582297       0.00414179      -0.00435991
C        1.18684861       2.10487740       3.75847872       0.00297993      -0.00111275      -0.00543815
C       -0.04437500       4.18695882       3.83335901       0.00606273      -0.00590751       0.00081948
C       -1.18685065       6.35582168       3.73559183      -0.00041948      -0.00029101      -0.00059869
C       -2.44267870       8.51078493       3.76005138       0.00240765      -0.00104132      -0.00487745
C        4.92518319      -0.01921184       3.64647010      -0.00232040      -0.00145332       0.00153166
C        3.66327577       2.06431736       3.31732437      -0.00303252      -0.00602291      -0.00265821
S        1.60952516       6.21574684       3.26330374       0.00118087       0.00218590      -0.00200512
C        0.02333264       8.51688698       3.67615862       0.00546668       0.00794670       0.00306859
C        7.37860139       0.01695904       3.74288367       0.00484151      -0.00249658      -0.00071565
C        6.13851972       2.14206993       3.50085738      -0.00408105      -0.00075098       0.00201761
C        4.98177721       4.31808759       3.28564575       0.00207849      -0.00018014       0.00671481
B        3.60536900       6.41464882       3.91433210      -0.00491964       0.00742471      -0.00123684
C        2.47727749       8.60369373       3.84824159      -0.00570861      -0.00008481       0.00130139
C        9.86439417       0.01670423       3.90022029       0.00261414      -0.00240890      -0.00206330
C        8.60817186       2.13956568       3.77071775      -0.00213913       0.00311435      -0.00191825
C        7.39337843       4.27213364       3.66836798       0.00171715       0.00659601      -0.00312616
C        6.15610221       6.40113112       3.76855720       0.00144380       0.00410682      -0.00165091
C        4.93692756       8.55084875       3.94039600      -0.00809249      -0.00009371      -0.00432719
C       -0.00873465       1.41458233       3.86154592       0.00325033      -0.00015901      -0.00418783
C       -1.26041799       3.52301390       3.87734125       0.00043567       0.00637820       0.00026480
C       -2.45177540       5.67359264       3.79292607      -0.00106751       0.00036068       0.00166721
C       -3.68813681       7.81385272       3.81705326       0.00433106      -0.01116122      -0.00175811
C       -4.93189138       9.95560933       3.86675543      -0.00007067      -0.00501519       0.00212322
C        2.43260230       1.41891261       3.63470407      -0.00128720       0.00317301       0.00762417
O        1.14953666       3.47665900       3.87955655       0.00800570      -0.00503289       0.01132844
C        0.00483498       5.57186630       3.70369371      -0.00720126      -0.00739571       0.00133698
C       -1.20245826       7.78938749       3.70448570       0.00700964       0.00361126       0.00819824
C       -2.46666912       9.94759050       3.72618412      -0.00583493       0.00262834      -0.00914982
C        4.90708185       1.41390448       3.48491629      -0.00490720      -0.00273454       0.00770088
S        3.61828547       3.59964180       2.52328110      -0.01154342      -0.01148626      -0.00139338
C        1.28788324       7.88367683       3.65981765      -0.00136815       0.00386121      -0.00877744
C       -0.00358085       9.96126057       3.69228991       0.00392063       0.00502146      -0.00019893
C        7.36646172       1.44026045       3.67717211      -0.00309468      -0.00162024      -0.00082610
C        6.16414001       3.55891110       3.47075344       0.00307106       0.00188998      -0.00311768
C        4.91901871       5.68558617       3.60814422       0.00177021       0.00454934      -0.00628343
C        3.68775295       7.89940608       3.92200907      -0.00776680       0.00418960      -0.00284209
C        2.45255906      10.02300126       3.85877283       0.00257649      -0.00419219       0.00270333
C        9.85210583       1.43058116       3.86442867       0.00251616       0.00144458       0.00291103
C        8.61682221       3.55579885       3.76228065      -0.00155425       0.00570155       0.00030330
C        7.40228571       5.69103567       3.74941695       0.00036286       0.00247961       0.00224373
C        6.17121816       7.82131566       3.89147451      -0.00420410       0.00219153      -0.00050345
C        4.93512546       9.98287388       3.93365227       0.00021707      -0.00190444       0.00420245
Ag       2.54174759       5.56511911       5.61888494       0.01194998      -0.00171138       0.00132170
