50
Lattice="12.336457 0.0 0.0 -6.168228499999997 10.683685154694365 0.0 0.0 0.0 15.0" Properties=species:S:1:pos:R:3:forces:R:3 energy=-442.4800298627249 free_energy=-442.4800298627249 stress="-0.0006652034714064709 -1.4259795481173964e-05 -9.967171899356655e-06 -1.4259795481173964e-05 -0.0006691973513103055 4.893202682095007e-06 -9.967171899356655e-06 4.893202682095007e-06 -3.8164890045208195e-06" pbc="T T T"
C       -0.00324252      -0.00058700       3.68617346      -0.00477713      -0.00217855       0.00976608
C       -1.23763654       2.12952269       3.69245627       0.00335519       0.00215751      -0.00820845
C       -2.47374435       4.26987882       3.69487002       0.00133497       0.00563199      -0.01248213
C       -3.70141442       6.40388934       3.68831105      -0.00573818       0.00183086       0.01687637
C       -4.94002568       8.54157746       3.68646177      -0.00083245       0.00020545       0.01151656
C        2.46671697       0.00328760       3.68897112      -0.00368611       0.00315337      -0.00121895
C        1.23728597       2.15540237       3.71370208      -0.00182503      -0.00233020      -0.00163682
C       -0.02304201       4.25868718       3.73213389       0.00769942      -0.00110520       0.00348037
C       -1.21456004       6.40107372       3.71635753      -0.00168243       0.00051354       0.00137882
C       -2.46360700       8.54172853       3.69025688       0.00406295      -0.00269357       0.00322823
C        4.93637468      -0.00068084       3.69109216       0.00365279       0.00379920       0.00692924
C        3.69610934       2.15569118       3.71658348      -0.00458363      -0.00124004       0.00174693
B        2.46537139       4.50556503       3.82026110       0.00937465      -0.01287069      -0.00713992
B        1.43496428       6.29140906       3.81713811      -0.00573712      -0.00072798       0.00231208
C        0.01467779       8.53061360       3.71589922       0.00212734       0.00385922       0.00963605
C        7.39834325       0.00321633       3.69495813       0.00579450      -0.00712239      -0.00420638
C        6.17077160       2.12987783       3.69551773      -0.00429315       0.00351057      -0.00890470
C        4.95520670       4.25916936       3.73598922      -0.00025051      -0.00496175      -0.00075603
B        3.49893955       6.29303252       3.81905147      -0.00653044      -0.01569843       0.00792718
C        2.46634349       8.57029312       3.73506609      -0.00028234      -0.00090661       0.00450867
C        9.87069623       0.00281935       3.69352395       0.00127559      -0.00319262      -0.00462182
C        8.63501453       2.13405331       3.68738455      -0.00434590      -0.00148732      -0.00135392
C        7.40684933       4.26966968       3.69277084      -0.00584360       0.00906080       0.00244570
C        6.14783651       6.40069574       3.71587435       0.00069175       0.00723454       0.00325129
C        4.91828442       8.53071744       3.71550516       0.00333437       0.00565941       0.00118176
C        0.00047588       1.42618266       3.69335543      -0.00097236      -0.00292291       0.00357564
C       -1.25282884       3.54795544       3.70059509       0.00582816       0.00494967      -0.00367169
C       -2.46408088       5.69383351       3.69780188      -0.00344821       0.00440664      -0.00842342
C       -3.70174746       7.83078804       3.68537779       0.00020700      -0.00158934       0.00673471
C       -4.93601945       9.96961341       3.68388688      -0.00460325      -0.00044625       0.00842184
C        2.46686093       1.43002126       3.70596010      -0.00465558       0.00317418       0.00728734
C        1.21631329       3.58314021       3.74720290       0.00384121      -0.00510765       0.00216059
C        0.01172539       5.66994654       3.74724097      -0.00449476      -0.00321026       0.00243215
C       -1.22826957       7.82852689       3.70887895       0.00575710      -0.00091853      -0.00651189
C       -2.46722934       9.96958742       3.68857094       0.00094946       0.00159531      -0.00048593
C        4.93289788       1.42617899       3.69777784      -0.00402030       0.00397057       0.00214983
C        3.71567957       3.58376259       3.75074178       0.00252420      -0.00900191      -0.00080238
C        1.26148678       7.83461505       3.74948792      -0.00291135       0.00371930      -0.00755027
C        0.00174970       9.96641565       3.69715592       0.00398329       0.00093761       0.00188187
C        7.40196813       1.42284361       3.68987327      -0.00428850      -0.00550414      -0.00687546
C        6.18534707       3.54835284       3.70226133      -0.00172517       0.00339538      -0.00360021
C        4.92105265       5.67038234       3.74999021       0.01111730      -0.00672644      -0.00204567
C        3.67158663       7.83514745       3.74986874      -0.00037638       0.00875654      -0.00533286
C        2.46614399       9.99055801       3.70299607       0.00501392      -0.00497358      -0.01026654
C        9.86775708       1.42239718       3.68819590       0.00097338      -0.00206524      -0.00609555
C        8.63493155       3.55720437       3.68810304      -0.00464079       0.00669726      -0.00193306
C        7.39766711       5.69354122       3.69618348      -0.00576018       0.00973686      -0.00605833
C        6.16111511       7.82818001       3.70686421       0.00067538       0.00438526      -0.00604443
C        4.93113888       9.96644732       3.69465105      -0.00050920      -0.00067475       0.00160809
Ag       2.46004365       5.69848054       5.75132798       0.00924015      -0.00268465       0.00378941
