49
Lattice="12.336457 0.0 0.0 -6.168228499999997 10.683685154694365 0.0 0.0 0.0 15.0" Properties=species:S:1:pos:R:3:forces:R:3 energy=-434.65862320929654 free_energy=-434.65862320929654 stress="-0.00670081821814666 0.0023632927158338153 -6.2700143823023605e-09 0.0023632927158338153 0.0004009731757888601 -4.977590866775366e-06 -6.2700143823023605e-09 -4.977590866775366e-06 6.673612360004654e-07" pbc="T T T"
C       -0.00357834       0.01402836       3.75539288      -0.00293945      -0.00230288       0.00979133
C       -1.23920592       2.13044623       3.66658115      -0.00943463      -0.00247014       0.00814356
C       -2.47077396       4.27223026       3.52817176      -0.00229153      -0.00147841      -0.01174737
C       -3.70776965       6.41808765       3.53608500      -0.00604655       0.01253137       0.00361383
C       -4.94747140       8.56265818       3.67820553       0.00492149       0.00227404       0.00268806
C        2.46363826       0.05072005       3.75694528      -0.00407880      -0.00250684       0.01766029
C        1.23143120       2.20191509       3.91951332      -0.00118361       0.00631996       0.00550702
C       -0.01959634       4.27946932       3.80199665       0.00557459       0.00006362      -0.00491290
C       -1.26104690       6.43260792       3.60652767      -0.00231062      -0.00272842       0.00238377
C       -2.49109699       8.57061822       3.61598667      -0.00185627      -0.00088704       0.00444887
C        4.93063023       0.00362059       3.67432523      -0.00493326      -0.00317073      -0.01648599
C        3.74690394       2.17225565       3.87634842      -0.00126083      -0.00285257       0.00544995
N        1.10408452       6.44383052       3.99650960       0.00509919       0.00378052      -0.00747558
C       -0.02577567       8.54051039       3.70647408      -0.00320790       0.00472049      -0.01220613
C        7.40365524      -0.02682332       3.65226560       0.00584394       0.00204667       0.00144038
C        6.19228311       2.10741271       3.59759714       0.00271945      -0.00132022      -0.01674297
C        4.99646826       4.19856331       3.80303571      -0.00677703      -0.00044388       0.00159423
B        3.80200534       6.39270605       4.19108110      -0.00542274       0.00325466      -0.00715982
C        2.44201983       8.51745936       3.87924168       0.00175856      -0.00101974       0.00129278
C        9.86302743      -0.02043991       3.70726831      -0.00210907      -0.00117269      -0.00569577
C        8.64447979       2.11790339       3.54315294       0.00114543      -0.01167313       0.00934159
C        7.42285181       4.26310184       3.51715652       0.01214861      -0.00471258      -0.00702915
C        6.18061215       6.39837564       3.70862246       0.00077821      -0.00141696      -0.00767616
C        4.92842708       8.53924492       3.83169567       0.01056074       0.00234113       0.01390123
C       -0.00754065       1.43831411       3.78076809      -0.00418925      -0.00170942      -0.01342284
C       -1.25355662       3.55606379       3.63199149       0.00073319       0.00015293      -0.01175443
C       -2.47825604       5.70362976       3.53062168      -0.01009875       0.00522066      -0.00372568
C       -3.71828233       7.84938242       3.59733752       0.00093895       0.00604240       0.01050853
C       -4.93818023       9.99456772       3.73501044      -0.00005624      -0.00376675       0.00706299
C        2.48015570       1.47340964       3.87968394      -0.00304750       0.00035110       0.00934811
C        1.11478073       3.57352304       4.07755855       0.00718384       0.00540505      -0.00769868
C       -0.03160369       5.74654542       3.77568300       0.00648410       0.00109701      -0.00409437
C       -1.26068048       7.85220545       3.62644960      -0.00272388      -0.00051532       0.00258371
C       -2.48129996       9.99760964       3.68202209      -0.00554977      -0.00445536       0.01134278
C        4.95627483       1.41879058       3.69758796      -0.00010814      -0.00157493      -0.01220591
N        3.86661446       3.50721825       4.05674134      -0.01029855      -0.00077460      -0.00385037
C        1.18765917       7.79099718       3.86191995      -0.00306720       0.00433111       0.00879487
C       -0.00421197       9.95832439       3.66918443       0.00136774       0.00559030      -0.01002120
C        7.41736210       1.39524512       3.57181937       0.00367400      -0.00365997       0.00685398
C        6.21306934       3.52138470       3.58500507       0.00383333       0.00071310       0.00285336
C        5.00091434       5.63813837       3.86355828      -0.00364681       0.00128373      -0.00117916
C        3.67991628       7.83940899       3.96870457       0.00750762       0.00548766       0.00733798
C        2.45687730       9.93769648       3.73439643       0.00305806      -0.00011457       0.01301865
C        9.86609980       1.40333900       3.62152726      -0.00461222      -0.00479373      -0.00468445
C        8.64602848       3.54784182       3.49866621       0.00770921      -0.01468630      -0.00421796
C        7.41419157       5.69290824       3.55787269       0.00121184       0.00105360      -0.00189388
C        6.15750911       7.83145629       3.74480137       0.00864135       0.00062270       0.00933285
C        4.93184191       9.96728789       3.75917332      -0.00327110       0.00249770       0.00319464
Ag       2.47550713       4.96275839       4.89645455       0.00162826      -0.00097435      -0.00360857
