49
Lattice="12.336457 0.0 0.0 -6.168228499999997 10.683685154694365 0.0 0.0 0.0 15.0" Properties=species:S:1:pos:R:3:forces:R:3 energy=-422.4882940214111 free_energy=-422.4882940214111 stress="-0.0020663754052456145 -0.0001482064130426888 1.3737164370497798e-05 -0.0001482064130426888 -0.010868235397549494 4.310126561293928e-06 1.3737164370497798e-05 4.310126561293928e-06 2.7854545664421186e-06" pbc="T T T"
C        0.00361002      -0.03542389       3.65633469      -0.00894395      -0.00180324       0.00020536
C       -1.22482904       2.12255869       3.54593561       0.00845376      -0.00618922       0.00034538
C       -2.45721071       4.25727880       3.61763955       0.00226061      -0.00042442      -0.00345393
C       -3.69130964       6.38456059       3.65914529       0.00193054       0.01166472      -0.00414468
C       -4.94337317       8.49973217       3.64940372       0.00765015       0.00354466      -0.00389761
C        2.46416429      -0.08987204       3.87177726      -0.00864612      -0.00519443       0.00463627
C        1.26847955       2.01934734       3.49826074       0.00785884       0.00880580       0.00799285
C       -0.01062351       4.28878720       3.38143039      -0.00017229       0.00129684       0.00970918
C       -1.22058057       6.39224626       3.74851205      -0.00195955      -0.00402123       0.00010949
C       -2.45916215       8.50228946       3.87359424       0.00214064      -0.00293963       0.00175985
C        4.93290156      -0.02931272       4.04941998      -0.00021734      -0.00016008       0.00235412
C        3.66187117       2.02939132       4.11323282      -0.00176574       0.00042916       0.00925874
B        1.28140218       6.41467643       3.97693312       0.00553984      -0.01660763       0.00035341
C        0.01006353       8.54082896       3.98180731      -0.00297702      -0.00651970      -0.00376247
C        7.40133395       0.01978835       3.99761418       0.00236010       0.01033242      -0.00684707
C        6.16058287       2.13622409       3.99330513      -0.00123126       0.00604631      -0.00674442
C        4.96690484       4.30346578       3.67005023      -0.00845906      -0.00476312       0.00510321
S        3.46180772       6.36453534       2.78386355      -0.00339816       0.01010803       0.00043595
C        2.47623228       8.59853476       3.82698896      -0.00513650       0.00559906       0.00024766
C        9.88092350       0.01531303       3.77165815      -0.00098124       0.00147871      -0.00009730
C        8.64024097       2.13716907       3.79756099       0.00502506      -0.00520973      -0.00550258
C        7.40861542       4.26010253       3.69166203      -0.00185618      -0.00121859       0.00030074
C        6.17732113       6.39731971       3.40721810       0.00434371      -0.00154042       0.00042100
C        4.92992104       8.53889875       3.54384996       0.00320325      -0.00083946      -0.00357010
C        0.00760837       1.38880875       3.55089264       0.00901589      -0.00000408       0.00869523
C       -1.22105637       3.54317682       3.49248322       0.00617767      -0.00336837       0.00110396
C       -2.45837547       5.67753571       3.67777308      -0.00233286       0.00439473      -0.00995714
C       -3.69570296       7.79927985       3.72352603       0.00531884       0.00882395      -0.00073106
C       -4.94129344       9.91431408       3.72570777      -0.01011334      -0.00067213      -0.00220925
C        2.45849324       1.31714136       3.85743635       0.00098601      -0.00268649       0.00582334
P        1.53329982       3.61137478       2.79340937      -0.00271558       0.00930505       0.00662903
C        0.00441963       5.67260065       3.64085922      -0.00220219      -0.00358728       0.00752631
C       -1.21836811       7.80500724       3.89610145      -0.00331226      -0.00737610       0.00289450
C       -2.46089618       9.91626177       3.96017142      -0.00438249      -0.00481834       0.00647745
C        4.92719513       1.40091952       4.08862504      -0.00001890       0.00527265      -0.00257294
P        3.41758616       3.74688700       4.31749110       0.00026556      -0.00323419       0.00741489
C        1.26469838       7.88562871       3.93031999      -0.00234180      -0.00863846      -0.01209493
C        0.00124472       9.97366928       4.03423538       0.00264036       0.00102485      -0.00854109
C        7.39846707       1.43790096       3.95003430       0.00174306       0.00839816       0.00147573
C        6.17147183       3.55203183       3.80562106      -0.00776667       0.00180625      -0.00138701
C        4.99043684       5.65020539       3.28243928       0.00456643      -0.01814125      -0.00645043
C        3.66726470       7.91877226       3.49221463      -0.00393267       0.00549642      -0.00114686
C        2.47923970      10.01751489       3.90341392      -0.00185116       0.00924843      -0.00504648
C        9.88020270       1.43351375       3.71448400       0.00601945      -0.00458997      -0.00645967
C        8.64465130       3.55228527       3.70713842       0.00088404      -0.00484307      -0.00226622
C        7.41156346       5.67777512       3.57258438       0.00464133       0.00313053      -0.00036923
C        6.16015563       7.81165875       3.48841856       0.01030538       0.00179978      -0.00017195
C        4.93600845       9.96497656       3.66883637      -0.00653441      -0.00229501       0.00442801
Ag       2.39979147       5.44086882       5.57330455      -0.01008180       0.00367913       0.00172274
