50
Lattice="12.336457 0.0 0.0 -6.168228499999997 10.683685154694365 0.0 0.0 0.0 15.0" Properties=species:S:1:pos:R:3:forces:R:3 energy=-445.005352378004 free_energy=-445.005352378004 stress="-0.004420222389244014 -9.525130856314958e-06 -5.314310068654961e-07 -9.525130856314958e-06 0.00069043997639406 -9.68550212395784e-06 -5.314310068654961e-07 -9.68550212395784e-06 -2.7189524094660945e-06" pbc="T T T"
C       -0.00348537       0.00263073       3.61487100       0.00551525      -0.00517298       0.00369566
C       -1.24194374       2.13315670       3.65693361      -0.00978366       0.00421231       0.00607273
C       -2.47494960       4.27233855       3.62270761      -0.00609561      -0.00193984      -0.00359972
C       -3.70197582       6.41577114       3.55876880       0.00092346      -0.00070557       0.00506164
C       -4.93087166       8.55983674       3.56695276       0.00387633      -0.00137842      -0.00149145
C        2.46638598       0.02014661       3.62847261       0.00023655      -0.00093496      -0.00227545
C        1.22389352       2.14275804       3.78456043      -0.00454418      -0.00607819      -0.00034113
C       -0.02371888       4.29037597       3.85247220       0.00670838      -0.00043739      -0.00772393
C       -1.25330959       6.42247712       3.64944828       0.00267425      -0.00157283       0.00021455
C       -2.47275632       8.55950085       3.56568000      -0.00421244      -0.00036656      -0.00169877
C        4.93619693       0.00178146       3.61545446      -0.00355659       0.00096594       0.00289513
C        3.70922037       2.14228960       3.78655572       0.00010719      -0.00175561      -0.00017078
B        2.46571713       4.14633566       4.34125329       0.00275104      -0.00092140      -0.00427937
N        1.10040763       6.45695193       4.09022163       0.00251289      -0.00127913      -0.00687790
C       -0.00915730       8.53894044       3.66180055       0.00583396       0.00062884       0.00373944
C        7.40536249      -0.02233673       3.63923911       0.00398377       0.00864094       0.01737421
C        6.17453625       2.13274474       3.65914365       0.00884876       0.00785824       0.00676928
C        4.95589704       4.29054712       3.85640097      -0.00102306      -0.00362505      -0.00671043
N        3.83373065       6.45859536       4.09719711      -0.00411411      -0.00494680      -0.01028718
C        2.46657941       8.49433665       3.79963893       0.00002579      -0.00208419      -0.00098598
C        9.86368755      -0.02189207       3.63930032      -0.00157642       0.00409225       0.01644468
C        8.63441480       2.12573534       3.61286936       0.00090169       0.00112210       0.00821229
C        7.40723235       4.27210906       3.62532131       0.00470589       0.00044261      -0.00463896
C        6.18628213       6.42263214       3.65317771      -0.00557722      -0.00030564       0.00049241
C        4.94243237       8.53960419       3.66383696      -0.00806202       0.00018127       0.00183598
C       -0.00798955       1.42296457       3.66825713      -0.00819537      -0.00402989       0.01088463
C       -1.24373899       3.56761256       3.69662154      -0.00281624       0.00576809      -0.00727467
C       -2.47412839       5.69949394       3.59568029       0.00006837      -0.00135369      -0.00114022
C       -3.70189494       7.84303239       3.55218261       0.00042307      -0.00291481      -0.01040336
C       -4.93354804       9.98588191       3.59619622       0.00810523      -0.00380146      -0.01241256
C        2.46653267       1.44710040       3.74310650      -0.00175572      -0.00430754       0.00150783
C        1.17692223       3.55793240       3.95019243       0.00017096      -0.00773642       0.01316569
C       -0.01596036       5.73587050       3.85051628       0.00287070      -0.00301277       0.00056729
C       -1.24496545       7.84084519       3.61125704       0.00097560       0.00156436      -0.01261437
C       -2.47029437       9.98542202       3.59541384      -0.00598495      -0.00063025      -0.00769070
C        4.94093973       1.42210445       3.67063764       0.00485249       0.00356932       0.00830228
C        3.75542118       3.55756967       3.95307668       0.00399503      -0.00499891       0.01092989
C        1.20334438       7.79098969       3.83623516       0.00638630      -0.00042904      -0.00532892
C        0.00197946       9.96170123       3.62404682       0.00206632       0.00327466       0.00669995
C        7.40435932       1.40928634       3.62303346       0.00637475       0.00765375       0.00414923
C        6.17592460       3.56746850       3.69999796       0.00523886       0.00485827      -0.00764236
C        4.94894052       5.73641638       3.85529656      -0.00439593      -0.00803577       0.00234334
C        3.73013510       7.79178620       3.83905602      -0.00753732      -0.00292944      -0.00271996
C        2.46639008       9.92067179       3.68477627       0.00047566       0.00398885      -0.00052614
C        9.86462486       1.40966984       3.62254050      -0.00550618       0.00296641       0.00146631
C        8.63440333       3.55439348       3.60542840      -0.00181926      -0.00492964      -0.00858724
C        7.40677292       5.69932043       3.59878930      -0.00088707       0.00203557      -0.00688879
C        6.17804042       7.84109629       3.61374022      -0.00379463       0.00334505      -0.01182572
C        4.93080065       9.96240943       3.62418875       0.00015776       0.00085736       0.00838716
Ag       2.46545946       5.66629901       5.75811327      -0.00052835       0.01458798       0.00492448
