49
Lattice="12.336457 0.0 0.0 -6.168228499999997 10.683685154694365 0.0 0.0 0.0 15.0" Properties=species:S:1:pos:R:3:forces:R:3 energy=-434.9848808959591 free_energy=-434.9848808959591 stress="-0.00403229522177786 -0.0009591758858428141 3.3297946571864356e-06 -0.0009591758858428141 0.00021843210435309877 3.9497284477368e-06 3.3297946571864356e-06 3.9497284477368e-06 -4.786926094455622e-07" pbc="T T T"
C        0.00257211       0.00224435       3.70582282       0.00601143       0.00170398       0.00167792
C       -1.24800652       2.11726493       3.63237711       0.00804215       0.00088804      -0.00657764
C       -2.48191886       4.26773299       3.56228150       0.00752985      -0.00356033       0.00328329
C       -3.69961829       6.41530824       3.59223635      -0.00480152      -0.01703629      -0.00770634
C       -4.92203794       8.56252333       3.66620090       0.00492456      -0.00004914       0.00787938
C        2.47091358       0.04765877       3.75035871       0.00891051       0.00299125       0.01250034
C        1.20615288       2.17892850       3.86259499       0.00117755      -0.01064516      -0.00121403
C       -0.03485730       4.21188967       3.77991428      -0.00613725       0.00005069      -0.00081526
C       -1.23037435       6.39732136       3.68624605      -0.00722701       0.00319453       0.00816374
C       -2.46230820       8.55783154       3.66871087       0.00271038      -0.00113386       0.01212011
C        4.93265012       0.01063021       3.70767435      -0.00867449       0.00811733       0.01203169
C        3.72380740       2.18797565       3.87224535      -0.00358303       0.00485769      -0.00858075
B        1.22860019       6.39246470       4.05050375       0.00619951      -0.01045455       0.00501943
C       -0.00217951       8.54785902       3.76370488       0.00711729      -0.00041262       0.01476474
C        7.40443147      -0.01009486       3.68712757      -0.00733589       0.00272309       0.00221803
C        6.17411042       2.12948999       3.64910798      -0.00840423       0.00385607      -0.00118269
C        4.95003707       4.23374247       3.79077969       0.00147750       0.00279141      -0.00706046
C        3.74255053       6.39662738       3.98633870       0.00210016      -0.00274489      -0.00861800
C        2.47290016       8.53951314       3.85132388       0.00361075       0.00542338       0.00926442
C        9.86877888      -0.01629945       3.68433399       0.00967362       0.00283798      -0.00103669
C        8.63233555       2.12557259       3.58241587       0.00263775       0.01219345      -0.00383229
C        7.40424996       4.27410022       3.57496768      -0.00634115       0.00185416      -0.01281481
C        6.17239881       6.41281400       3.67203937      -0.00298048       0.00145345       0.01226713
C        4.94648381       8.53611608       3.75507825      -0.00469442      -0.00867326      -0.00153192
C       -0.00976798       1.42359913       3.71631330       0.00317304      -0.00083309       0.00933701
C       -1.26574182       3.53224788       3.61290419       0.00155917      -0.00358108       0.00095552
C       -2.47586224       5.69515818       3.59285654      -0.00068483      -0.00935469      -0.01016623
C       -3.69478800       7.84522622       3.63482066       0.00295196      -0.01079933       0.00227314
C       -4.92580425       9.99033000       3.70987740       0.00889787       0.00682890       0.00364083
C        2.46814209       1.47413189       3.85045260       0.00512679      -0.00053997      -0.00356832
N        1.10058923       3.52123159       4.01317687      -0.01323500      -0.01182196      -0.00308450
C       -0.02874768       5.65163536       3.80379386      -0.00671422       0.00365075       0.00044412
C       -1.22914881       7.83233997       3.70344172       0.00352372       0.00414408       0.01127683
C       -2.46853459       9.99034630       3.70956430       0.00126229       0.00083953       0.01246031
C        4.93941006       1.43464641       3.72874469      -0.00928625       0.00546195       0.00174872
N        3.82521902       3.53479592       4.01592601       0.00209853       0.00360957      -0.01545238
C        1.24115204       7.86089953       3.88539316       0.00992272      -0.00503184      -0.00356654
C       -0.00123392       9.97308305       3.70988295      -0.00959111       0.00177491       0.00072615
C        7.40395327       1.41273637       3.62407377      -0.00331242       0.00718010      -0.00967612
C        6.18244892       3.55037591       3.63634448      -0.00368326       0.00245026      -0.00837750
C        4.92327605       5.69795411       3.79641505      -0.00020552       0.00060277      -0.01330618
C        3.70349160       7.79105213       3.86940223      -0.00505711      -0.00373903       0.00231423
C        2.47154827       9.95833973       3.73367737       0.00206572       0.00635035      -0.00425371
C        9.86095762       1.40511355       3.61551482       0.00759905       0.00635390      -0.00632564
C        8.62831460       3.55328845       3.54998213       0.00129472       0.01150185      -0.00670958
C        7.40138093       5.70246316       3.59450246      -0.01031925      -0.00530350       0.00189596
C        6.17886524       7.83853145       3.68993201      -0.00072455      -0.00220374       0.00119139
C        4.93646836       9.95719018       3.71029503       0.00753655      -0.00794423      -0.00685699
Ag       2.46013335       5.03261782       4.91304705      -0.00614218       0.00017714       0.00286010
