49
Lattice="12.336457 0.0 0.0 -6.168228499999997 10.683685154694365 0.0 0.0 0.0 15.0" Properties=species:S:1:pos:R:3:forces:R:3 energy=-433.02264239710377 free_energy=-433.02264239710377 stress="0.0015599676580645152 -0.0008226115424389483 2.354662050752922e-06 -0.0008226115424389483 -0.0016556597818362297 2.8709511127254664e-07 2.354662050752922e-06 2.8709511127254664e-07 -5.133966236035584e-07" pbc="T T T"
C        0.00786502      -0.00793083       3.70338884       0.00343162       0.00441695      -0.00437692
C       -1.22416417       2.13328613       3.68796716       0.00604445       0.00418779       0.00804685
C       -2.46115328       4.26220903       3.59606777      -0.00363078       0.00167001      -0.00719953
C       -3.70152587       6.39659853       3.54245360      -0.00074214      -0.00524149       0.00345743
C       -4.92933034       8.53237274       3.60890512      -0.00408472       0.00913253      -0.00808906
C        2.46984232      -0.04576343       3.72389539       0.00430980       0.00171644      -0.00747546
C        1.26096805       2.10190318       3.80866132       0.00390892      -0.00658552       0.00126590
C        0.04476945       4.27948018       3.72478829      -0.01077217       0.00157106       0.00646793
C       -1.24723173       6.41004878       3.62696493      -0.00065529      -0.00189487       0.00123437
C       -2.46612607       8.53058296       3.63399962       0.00023657       0.01001322      -0.00674874
C        4.93301361      -0.01353655       3.73294481      -0.00462341       0.00616446       0.00431306
C        3.67392630       2.10274365       3.82185340      -0.00600567      -0.01453028      -0.00235014
C        1.13991448       6.42296766       4.09310126       0.00603435       0.00100575      -0.00512388
C       -0.00260807       8.53501456       3.78274592      -0.00238977      -0.00785583       0.00245276
C        7.40257040      -0.00875588       3.75556298      -0.01437234      -0.00021593       0.01206958
C        6.14938320       2.14091393       3.70733362      -0.00281364      -0.00062873       0.00850534
C        4.86682602       4.30213664       3.72614797       0.00683624       0.00129460      -0.00455762
N        3.82114181       6.46680974       4.01414267       0.00124653      -0.00026670      -0.00370074
C        2.48374592       8.52523526       3.90637243       0.00432543      -0.00343525      -0.00321026
C        9.87116554      -0.00690067       3.73394590      -0.00015537       0.00094978       0.01119887
C        8.63063137       2.13093406       3.66174505       0.00638541       0.01268224       0.00301914
C        7.38088885       4.26667041       3.59686792       0.00200574      -0.00515548       0.00379757
C        6.17753136       6.41703577       3.59203042       0.00246973      -0.00189897      -0.00088869
C        4.95192898       8.54756952       3.71890494      -0.00050561      -0.00510774       0.00172114
C        0.01396627       1.42372696       3.73664871       0.00482961       0.00401264      -0.00259927
C       -1.19696191       3.56093292       3.65640170      -0.01087245       0.00204271      -0.00327775
C       -2.46910387       5.68606600       3.56351869       0.00108878      -0.00496578       0.00826142
C       -3.69672438       7.81851135       3.57945500      -0.00194972       0.00572583      -0.00999965
C       -4.93442464       9.94996568       3.67773226       0.00407922       0.01041003      -0.00551090
C        2.46842530       1.37042051       3.80273822      -0.00227455      -0.01085301      -0.00948826
B        1.44657440       3.61268604       3.86880123       0.01490975      -0.00427106      -0.00669079
C       -0.00187863       5.70791621       3.77009021       0.00208201       0.00164707      -0.00187596
C       -1.23170317       7.82670424       3.66933954      -0.00273081      -0.00159069      -0.00160088
C       -2.46131544       9.94650583       3.69690281       0.00240569       0.00896585      -0.00054206
C        4.92018248       1.42284678       3.75882240      -0.00427013      -0.00175478       0.00091030
B        3.48034083       3.61372247       3.87323069       0.00100045      -0.01186072      -0.00384523
C        1.23871155       7.78968685       3.93494268       0.00475626       0.00013521       0.00491781
C        0.00014299       9.95844137       3.75391254      -0.01402590      -0.00718297       0.00449805
C        7.39164703       1.42126226       3.70018407       0.00126980       0.00747367       0.01152896
C        6.11267350       3.57456009       3.66847340       0.00459249      -0.00184508       0.00307043
C        4.92910779       5.74327857       3.73808482       0.00356168       0.00334010      -0.00125289
C        3.73650728       7.80735481       3.88439566       0.00036489      -0.00223781      -0.01072196
C        2.47299011       9.94469750       3.79514315      -0.00820613      -0.00256531       0.00539513
C        9.87149192       1.42048402       3.68553322       0.00659588       0.00728434       0.01157742
C        8.62860491       3.55704441       3.60889558       0.00140592       0.00771983      -0.00805848
C        7.39733110       5.68752364       3.55397190      -0.00101368      -0.01008330      -0.00195747
C        6.17420988       7.83202162       3.62085221      -0.00028753      -0.00237690      -0.00141145
C        4.94049286       9.96824377       3.71340857       0.00289724      -0.00421168       0.00162190
Ag       2.41213202       5.11231985       5.14244898      -0.00669267       0.00505376       0.00322265
