49
Lattice="12.336457 0.0 0.0 -6.168228499999997 10.683685154694365 0.0 0.0 0.0 15.0" Properties=species:S:1:pos:R:3:forces:R:3 energy=-430.957721320813 free_energy=-430.957721320813 stress="0.004403497068785936 0.0017122093223178709 7.871893669673289e-07 0.0017122093223178709 -0.0033567771104457897 -8.496296249871586e-08 7.871893669673289e-07 -8.496296249871586e-08 1.5337407782023864e-06" pbc="T T T"
C        0.00167871      -0.00776590       3.77862387      -0.00240598       0.00074717       0.01301778
C       -1.21069661       2.15189025       3.74842373       0.00357959      -0.00060961       0.00234600
C       -2.46853034       4.28382164       3.58824740       0.00326669      -0.00752335       0.00447023
C       -3.71435613       6.40252573       3.58423200      -0.00177371      -0.00031478       0.00494165
C       -4.94938073       8.52645617       3.68722124      -0.00034215       0.00833480       0.00372601
C        2.47817680      -0.01730260       3.78506519       0.00630881      -0.00927197      -0.00376292
C        1.26575776       2.09906773       3.99600271       0.00540874       0.00763647       0.00467824
C       -0.01651805       4.30005083       3.79722772       0.00085455      -0.00048648       0.00240277
C       -1.19553003       6.41263206       3.61714663       0.00479660       0.00497777      -0.00184139
C       -2.46318549       8.53432156       3.65671801      -0.01270334      -0.00013619       0.00070420
C        4.94260570      -0.00341245       3.69692994       0.00397859      -0.00229693       0.00061807
C        3.72657216       2.15244447       3.83636429      -0.00528576       0.00026957      -0.00671885
B        1.48387224       6.36842096       3.82412968       0.00524077      -0.01257975      -0.00929486
C        0.01672346       8.54744121       3.70957378      -0.00263337      -0.00001364      -0.00642605
C        7.40644099       0.02486125       3.68307389      -0.00987619       0.00268589      -0.00633867
C        6.17163981       2.13777105       3.62108452       0.00518310      -0.00896941      -0.00261370
C        4.89270790       4.21986092       3.68184070       0.00396372       0.00254942      -0.00104981
B        3.44034028       6.35199455       3.83588675      -0.00448798      -0.00189400      -0.01865264
C        2.47090881       8.60826669       3.79014540      -0.00119887       0.00169487      -0.00057347
C        9.88348739       0.02941111       3.72374372      -0.01008100       0.00504198       0.00266916
C        8.64766832       2.15380899       3.61653832      -0.00236807       0.00280455      -0.00246344
C        7.38563994       4.27546344       3.55927577      -0.00338703       0.00075677      -0.00097114
C        6.09494541       6.38254000       3.64440311       0.00648612       0.00649773       0.00116290
C        4.91604605       8.53887999       3.75514939       0.00877249      -0.00756608       0.00110531
C        0.01261026       1.42417880       3.84670976       0.00454348       0.00182582       0.00671588
C       -1.22656140       3.57191847       3.69453276       0.00590255      -0.00457923       0.00382218
C       -2.46046673       5.70474512       3.57718611       0.00445663      -0.00216227       0.00480070
C       -3.70729692       7.82399398       3.63528244      -0.01092783       0.00002302       0.00572572
C       -4.93531393       9.95321390       3.75561776       0.00195526       0.00245404       0.01207655
C        2.49141592       1.40357668       3.90229692      -0.00305411      -0.00747426      -0.00587522
B        1.20486552       3.55643321       4.20781055      -0.00505741       0.00752083       0.00421446
C        0.05928271       5.70489226       3.69746437       0.00432763      -0.00055372      -0.00351829
C       -1.22124425       7.83224018       3.65247450      -0.00891240       0.00691971      -0.00177271
C       -2.45999267       9.95653617       3.71241053       0.00627557      -0.00410175      -0.00441823
C        4.94985429       1.41898542       3.70083381       0.00064816      -0.00128443       0.00608510
N        3.75335271       3.50053110       3.87877084      -0.00078498       0.00337062      -0.00076763
C        1.26481215       7.87623792       3.78018434       0.00079982      -0.00473052      -0.00911117
C        0.01082633       9.97888670       3.68967262      -0.00185273      -0.00078897       0.00084867
C        7.41123015       1.44177206       3.62650673       0.00194415      -0.00293601      -0.00570974
C        6.15916645       3.55023305       3.58750743       0.00381112      -0.00873594      -0.00658968
C        4.83761675       5.66161787       3.68420424       0.00586090       0.00580375      -0.00409996
C        3.66899728       7.86803694       3.80711836       0.00344978      -0.00081655       0.00047336
C        2.47625834      10.02449017       3.73106865      -0.01189534       0.00718937      -0.00468596
C        9.88737158       1.44845562       3.68406157      -0.00201348       0.00753273       0.00212498
C        8.63526996       3.57348351       3.57098355      -0.00362611       0.00062869       0.00293637
C        7.36876427       5.69397007       3.58153170      -0.00208853       0.00359465       0.00851707
C        6.14077739       7.81363350       3.69468553       0.01164208       0.00359763      -0.00061790
C        4.93534191       9.97769061       3.75004258      -0.00604171      -0.00277234       0.00858484
Ag       2.41344087       4.94534615       5.28871418      -0.00065881      -0.00185968      -0.00089480
