49
Lattice="12.336457 0.0 0.0 -6.168228499999997 10.683685154694365 0.0 0.0 0.0 15.0" Properties=species:S:1:pos:R:3:forces:R:3 energy=-424.45454366140797 free_energy=-424.45454366140797 stress="-0.004059768895178513 0.0007146345513612784 -1.054033588702224e-06 0.0007146345513612784 -0.008228938157179838 2.491785291414705e-06 -1.054033588702224e-06 2.491785291414705e-06 1.2060823162547336e-07" pbc="T T T"
C       -0.00447011      -0.03495553       3.69721228      -0.00600032      -0.00254262       0.00629978
C       -1.22700511       2.12328340       3.63633248       0.00816285       0.00485537       0.00904027
C       -2.45655282       4.25938962       3.72677083      -0.00512541      -0.01213374      -0.00721042
C       -3.69722384       6.38777890       3.71278126       0.00421026       0.00592457      -0.00464435
C       -4.95171683       8.50528878       3.67155160      -0.00627714       0.01006465      -0.00218398
C        2.45301816      -0.07793043       3.90918469       0.01096779      -0.00572211       0.00576281
C        1.25767876       2.03554086       3.57929785      -0.00146613      -0.00057511      -0.00122299
C       -0.01093174       4.30721300       3.55772674       0.00898221      -0.00585937       0.01082559
C       -1.24710315       6.40647454       3.83791598      -0.00863867       0.00587252      -0.00157546
C       -2.48039331       8.51561126       3.90177312      -0.00308968       0.00921810       0.00784086
C        4.92907643      -0.03062161       4.03337825       0.00153662      -0.00170499      -0.00262746
C        3.67032179       2.03976261       4.09565422      -0.00031260      -0.01528553       0.00926541
C        1.20666967       6.42867866       3.97587673      -0.00375407       0.00185423      -0.00136108
C       -0.00833621       8.53447537       3.94669034      -0.00145185       0.00762078      -0.00809075
C        7.39986947      -0.00479366       3.95121595      -0.00984138      -0.00335993      -0.00884501
C        6.16507864       2.12620246       3.95227606       0.00552268      -0.00163246      -0.00721427
C        4.98557819       4.29265738       3.53574483      -0.01357916       0.00229963      -0.00433355
S        3.57911552       6.39367825       2.53853134       0.00557159       0.00391344       0.01124864
C        2.46480307       8.55335075       3.72820140       0.00764300      -0.00908598      -0.00933691
C        9.87026292      -0.00626312       3.75780672      -0.00591006      -0.00195929      -0.00401337
C        8.63999022       2.12463459       3.81714294       0.00622840       0.00271168      -0.00072947
C        7.41691602       4.25304473       3.69076448      -0.00482184       0.01321866       0.00461257
C        6.19921325       6.39828300       3.36517595      -0.00133345      -0.00023770      -0.00476069
C        4.92857986       8.53493342       3.50065238       0.00496625      -0.01715423      -0.00271911
C        0.00047562       1.39251676       3.62845100       0.00024170      -0.00021962       0.00664198
C       -1.21202651       3.55561747       3.63739406       0.00053821      -0.00204168      -0.00064913
C       -2.46483455       5.68127091       3.76993083      -0.00044096      -0.01066688      -0.00644231
C       -3.70848135       7.80456175       3.76299375      -0.00525582       0.01066612      -0.00532342
C       -4.95042474       9.92051582       3.76312349       0.00365646       0.00877738       0.00278789
C        2.45357420       1.32945457       3.89708957       0.00001209      -0.01164080      -0.00286274
P        1.49440960       3.63676570       2.88533664       0.01311741       0.00411452       0.01108717
C        0.00675001       5.71947799       3.77876096      -0.00809554       0.00021653       0.00900518
C       -1.24309257       7.81918571       3.92052184      -0.00354030       0.01102259       0.00806067
C       -2.47232158       9.92706453       3.97427163       0.00913440       0.00262510       0.00758659
C        4.93098450       1.39832631       4.05943012       0.00350101      -0.01070453      -0.01184330
P        3.45113783       3.76462871       4.22173394       0.00364683       0.00956713       0.00764711
C        1.23361125       7.81039596       3.86599465       0.00287643       0.00263112      -0.00309934
C       -0.00302298       9.95652097       3.99152058      -0.00712077       0.00186043      -0.00450769
C        7.39921658       1.41846279       3.92630670       0.00586559      -0.00238536      -0.00298846
C        6.18019007       3.54184560       3.74427609      -0.00094803       0.00612953      -0.00382145
C        5.03232632       5.65033731       3.15100924      -0.01216220       0.00991794      -0.00278644
C        3.66821998       7.90395689       3.36412831       0.00862634      -0.01164664      -0.00768897
C        2.46767538       9.97138919       3.83958614      -0.00837831      -0.00794526      -0.00497981
C        9.87673821       1.41961597       3.74859313       0.00888479       0.00674694       0.00288609
C        8.64937107       3.54581842       3.75672019      -0.00890674       0.00132492      -0.00461626
C        7.42031955       5.67450662       3.58422216       0.00011023       0.01108301      -0.00027856
C        6.16119265       7.81362025       3.46692961       0.00050347      -0.00793377       0.00052831
C        4.92912008       9.95552271       3.66794785      -0.00596164      -0.01288337       0.00026379
Ag       2.49384585       5.50145302       5.42878868       0.00790550       0.00108406       0.01136603
