49
Lattice="12.336457 0.0 0.0 -6.168228499999997 10.683685154694365 0.0 0.0 0.0 15.0" Properties=species:S:1:pos:R:3:forces:R:3 energy=-432.0111283126876 free_energy=-432.0111283126876 stress="-0.006703322239728934 -0.0028173022513132448 -2.983063060476327e-06 -0.0028173022513132448 -0.0002732676239617083 7.184911642847471e-07 -2.983063060476327e-06 7.184911642847471e-07 1.4724128675506217e-06" pbc="T T T"
C       -0.00376081       0.00334653       3.84268828       0.00375212       0.00103241      -0.00328852
C       -1.26352209       2.11421321       3.87409342       0.00333853       0.01426348       0.00028088
C       -2.48242130       4.26136763       3.79730421      -0.01485276      -0.00694382       0.00340486
C       -3.68508022       6.41683901       3.71904760      -0.00058930       0.00034884      -0.00605413
C       -4.91515040       8.56784989       3.75436964      -0.00096816      -0.00009459       0.00845866
C        2.47054051       0.01535694       3.81364763      -0.00430313       0.00260758       0.00215845
C        1.22029224       2.17031376       3.92795400       0.00533445      -0.00939372      -0.00305007
C       -0.02602816       4.23980756       4.04186926       0.00678424      -0.00503627      -0.00439732
C       -1.25482736       6.41458946       3.89953046      -0.00353136      -0.01035414      -0.00224311
C       -2.46577965       8.55615309       3.80374588      -0.00216633       0.00956127       0.00704827
C        4.93407095      -0.00156753       3.70009779      -0.00589631       0.00106290       0.00450177
C        3.66721129       2.08631616       3.42842801       0.00226329      -0.00820683       0.00858309
C        1.14107578       6.41143403       4.19945942       0.00555356       0.00041507      -0.00156612
C       -0.00377167       8.53276923       3.87961959       0.00356910       0.00977381      -0.00490524
C        7.39868193      -0.02680459       3.73313741      -0.00123866       0.00626194      -0.00305869
C        6.15598430       2.13412092       3.49072073       0.00366036      -0.00338856      -0.00752853
C        5.02047607       4.34709370       3.21090662       0.00488267       0.00106044       0.00854852
N        3.82955250       6.42916589       3.62434006      -0.00756449       0.00377542       0.00520321
C        2.48505252       8.49093283       3.85606564       0.00148965      -0.00697217      -0.00048755
C        9.85680536      -0.02850839       3.79059773      -0.00799311       0.00018593      -0.00720117
C        8.61901099       2.11913158       3.69826384       0.00069156       0.00168451       0.00113730
C        7.41634506       4.27788071       3.56125407       0.00753848      -0.00001681      -0.00382915
C        6.22715289       6.45010509       3.52996712       0.00379906      -0.00015012      -0.00325283
C        4.95786588       8.54623413       3.72263973       0.00125388      -0.00024982      -0.00244819
C       -0.02108445       1.42181820       3.90239871       0.00365840       0.00391615      -0.00094429
C       -1.26822860       3.53531365       3.90497302      -0.00573796       0.01067149       0.00318001
C       -2.47195475       5.69465649       3.80207306      -0.01038582      -0.01149987       0.00095983
C       -3.68781887       7.84443506       3.75985207      -0.00053143       0.00436758       0.00548920
C       -4.92971796       9.98608883       3.82661808       0.00125502      -0.00045929       0.00717967
C        2.46240994       1.43884800       3.76872701       0.00187526      -0.00501818      -0.00121964
C        1.15509699       3.53324066       4.14803048       0.00204736      -0.01187345       0.00736742
C       -0.02562591       5.69928637       4.04475209       0.00789921      -0.00528311      -0.00206052
C       -1.23736426       7.83660356       3.86085625       0.00107121       0.00129731       0.00544129
C       -2.46487367       9.98079609       3.77636849      -0.00809080       0.00827379       0.00392755
C        4.92617067       1.42517415       3.52666129       0.00047623      -0.00690344       0.00354093
S        3.53143215       3.64920272       2.70513729      -0.00603111      -0.00438622      -0.01024827
C        1.23983360       7.77417091       3.97957140       0.00185934       0.00046447      -0.00696439
C       -0.00057986       9.95290096       3.76665759      -0.00151131       0.01287226       0.00267256
C        7.38269744       1.40844001       3.63521073       0.00225711       0.00429982      -0.00691407
C        6.17418424       3.57141585       3.41050514       0.00928922      -0.00002392      -0.00334874
C        4.99938569       5.77011994       3.39254559      -0.00266637       0.00522034       0.00763309
C        3.74089215       7.77891026       3.73086927       0.00219462       0.00162599       0.00465658
C        2.46546165       9.91742587       3.79046082      -0.00796671      -0.00703513       0.00176018
C        9.84197631       1.39658855       3.79006217       0.00120964       0.00749833       0.00308365
C        8.62871801       3.55012539       3.68270531      -0.00557110      -0.00589892       0.00651033
C        7.43191104       5.70443093       3.59364735       0.00698562      -0.00060433      -0.01258773
C        6.19848701       7.86172593       3.66921453       0.00147911      -0.00180858      -0.00131336
C        4.93218903       9.96139707       3.79607042      -0.00097792       0.00131606      -0.00619436
Ag       2.57401912       4.95729285       4.79100326       0.00110584      -0.00225590      -0.00762131
