49
Lattice="12.336457 0.0 0.0 -6.168228499999997 10.683685154694365 0.0 0.0 0.0 15.0" Properties=species:S:1:pos:R:3:forces:R:3 energy=-425.60532380740585 free_energy=-425.60532380740585 stress="-0.00013636815868032216 0.0017670859066550894 1.037582233975935e-06 0.0017670859066550894 -0.009606019566028282 -2.0943226282396743e-05 1.037582233975935e-06 -2.0943226282396743e-05 6.775970864444926e-06" pbc="T T T"
C        0.00092121      -0.04250836       3.68799684      -0.00514484      -0.00154949      -0.00013219
C       -1.20543935       2.13160199       3.59231411      -0.00346579      -0.00622185      -0.00226969
C       -2.43890590       4.26424022       3.61423323       0.00610624       0.00326741      -0.00240400
C       -3.69032664       6.38229469       3.63351178       0.00228293       0.00106231       0.00606042
C       -4.94634119       8.49839450       3.64870779       0.00112799       0.00145773       0.00132783
C        2.46050517      -0.09546509       3.95915569      -0.00260660      -0.00353388      -0.00305968
C        1.27806356       2.02351576       3.67294465       0.00533520      -0.00780304      -0.00309581
C        0.01414646       4.30366040       3.36902087      -0.00547157       0.00261388      -0.00109829
C       -1.20798005       6.40616826       3.61728858       0.00143379      -0.00003360      -0.00054904
C       -2.46698687       8.50594398       3.82847098       0.00080973      -0.00276712      -0.00274195
C        4.93841675      -0.03659339       4.06258105      -0.00614240       0.00707445       0.00866960
C        3.67719435       2.00878797       4.29562565       0.00097476       0.00733760       0.00027972
C        1.29351511       6.46517848       3.56069113       0.00660860      -0.00856177       0.00220228
C       -0.00389047       8.55180340       3.81835258      -0.00484239      -0.00428451      -0.00337543
C        7.40412344       0.01604888       3.92066347       0.00422805      -0.00162529      -0.00672042
C        6.17657901       2.12827159       4.07812967      -0.00109700       0.00144843      -0.00032462
C        4.98330011       4.30138568       3.92128048      -0.00742659       0.00237868      -0.00132582
P        3.34180282       6.24494535       2.89508760      -0.00188165      -0.00466083       0.00288365
C        2.45626189       8.60743474       3.62992061       0.00133451       0.00517480       0.00118275
C        9.88233240       0.01397660       3.70992395       0.00980954       0.00267563       0.00034948
C        8.65272339       2.13843704       3.80639928       0.00133197       0.00042820       0.00485139
C        7.42088230       4.25742586       3.76026535      -0.00378575      -0.00530398       0.00066197
C        6.16612405       6.38106007       3.48304872       0.00108161       0.00040095       0.00304254
C        4.91948329       8.52993427       3.49159987       0.00062331       0.00216241       0.00036491
C        0.01607839       1.38810932       3.64106840      -0.00222301      -0.00496499      -0.00421441
C       -1.19067903       3.56107256       3.51849885       0.00006224      -0.00398874       0.00060412
C       -2.44336361       5.68361069       3.62170427       0.00414364       0.00442770      -0.00752315
C       -3.70136383       7.79893284       3.69745274       0.00207808       0.00021525       0.00235010
C       -4.94322558       9.90916080       3.76431980      -0.00576091      -0.00057970      -0.00297593
C        2.46240677       1.30858636       4.02735298       0.00408230      -0.00320166       0.00798458
P        1.57543263       3.57517583       2.91866149      -0.00090732      -0.00340627      -0.00297512
C        0.04423960       5.72480665       3.47508600      -0.00194749      -0.00033339       0.00120107
C       -1.22748779       7.81765987       3.77441360      -0.00291927      -0.00409304      -0.00254294
C       -2.46130479       9.91256261       3.98038188      -0.00324773      -0.00138595      -0.00158710
C        4.94149990       1.38714355       4.18637080      -0.00148989       0.01073162       0.00013339
P        3.46321762       3.71346593       4.60224234       0.00173738       0.00270186      -0.00329656
C        1.23066007       7.87223902       3.66621236       0.00071543      -0.00380063      -0.00032749
C        0.00356695       9.96858222       3.95244512      -0.00615711       0.00133449      -0.00280031
C        7.41003761       1.43334578       3.95503781       0.00174560      -0.00229052       0.00284120
C        6.18724689       3.54897058       3.94751640      -0.00921180      -0.00168057       0.00169794
C        4.95235989       5.63935674       3.47032926      -0.00023737      -0.00570499      -0.00326861
C        3.65218981       7.89255354       3.39904908      -0.00044095       0.00452880       0.00773861
C        2.47044314      10.01098266       3.77467779       0.01208607       0.00637884      -0.00524927
C        9.89258122       1.43504450       3.71000071      -0.00066910      -0.00100839       0.00072158
C        8.66041719       3.55571611       3.73386148       0.00426715       0.00160837       0.00339694
C        7.41051994       5.67326931       3.61137785       0.00017206      -0.00235068       0.00639037
C        6.15682952       7.80411457       3.49472292       0.00114312       0.00262771       0.00084312
C        4.93328600       9.95561502       3.62495827       0.00093302      -0.00094432       0.00225840
Ag       2.27530001       5.62252921       5.34976342       0.00082226       0.01404210      -0.00618014
