49
Lattice="12.336457 0.0 0.0 -6.168228499999997 10.683685154694365 0.0 0.0 0.0 15.0" Properties=species:S:1:pos:R:3:forces:R:3 energy=-432.11529868995336 free_energy=-432.11529868995336 stress="-0.006079973625192201 0.002797930970884322 -8.332679515273517e-08 0.002797930970884322 -0.0007166352833847023 -8.99952472814547e-06 -8.332679515273517e-08 -8.99952472814547e-06 -3.86369204198085e-07" pbc="T T T"
C       -0.00784813       0.00716494       3.78213644      -0.00429967       0.00757242       0.00748785
C       -1.23679971       2.13508246       3.86200373       0.00801617      -0.01302467       0.00377026
C       -2.46124966       4.27362796       3.78388409       0.00535462      -0.00046123      -0.00049406
C       -3.70393601       6.41363104       3.66324884       0.00906580       0.00177928       0.00223050
C       -4.95636936       8.55194309       3.63918860      -0.00559305       0.01034513      -0.00983177
C        2.45529404       0.03226735       3.81363516       0.00498363      -0.00423800      -0.00437091
C        1.23003570       2.18179396       3.96025066       0.00407054       0.00051296      -0.01191639
C        0.00388966       4.28174935       3.98264162      -0.00675656      -0.00503838      -0.01265864
C       -1.25538300       6.43038634       3.83945661       0.00233590       0.00205305       0.01811799
C       -2.49148496       8.56389346       3.77669664       0.00101898      -0.00936795      -0.00519192
C        4.93029502       0.00430367       3.82057505       0.00802436      -0.00202739       0.00220172
C        3.71613301       2.16853976       3.80615878       0.00272364       0.01081259       0.00509634
N        1.12603331       6.46310032       4.10875550      -0.01561916       0.01074531      -0.00091737
C       -0.02293312       8.54461454       3.86294835      -0.00807276      -0.00131560      -0.00325342
C        7.40340081      -0.01636486       3.85318427       0.00104267      -0.01168049       0.00204241
C        6.19439352       2.11117577       3.72729423      -0.00176956       0.00053352      -0.00218208
C        4.98452916       4.21998993       3.45144329      -0.00494385       0.00653714       0.00773864
S        3.57133174       6.34311776       2.61571475      -0.00706415      -0.01013764       0.00044846
C        2.44790574       8.52216803       3.74655915       0.00054785       0.00372436      -0.00588118
C        9.86534360      -0.01605905       3.80161557       0.00046581       0.00507889       0.01301919
C        8.64768036       2.12330475       3.79274885      -0.00499481       0.00495207      -0.00854142
C        7.43402483       4.25957038       3.60832172      -0.01287551      -0.00182213      -0.00060400
C        6.18057659       6.40213905       3.40023628       0.00975091      -0.01254223      -0.00202348
C        4.91784538       8.53864227       3.53630351       0.00679728       0.00367967       0.00023379
C       -0.01161552       1.42991646       3.87902216       0.00878105      -0.00099435       0.00203501
C       -1.23902670       3.56239241       3.87476763      -0.00033992      -0.01559766      -0.00004514
C       -2.47340055       5.70240633       3.75798140       0.01026000       0.00319483       0.01459175
C       -3.71822560       7.84202884       3.68837634      -0.00542904       0.00513806      -0.01161685
C       -4.94484488       9.98329437       3.74689545      -0.00840781       0.01230496       0.00229028
C        2.46573279       1.45651751       3.88604881       0.00589979      -0.00021022      -0.00224683
C        1.17046275       3.56717755       4.10413640      -0.00451248       0.00140671       0.00968780
C       -0.01394916       5.75132578       3.97246222      -0.00744106      -0.00243473       0.00263412
C       -1.26090448       7.84894750       3.82983739      -0.00158276      -0.00524786      -0.00248204
C       -2.48303775       9.98922148       3.80314205       0.00903767      -0.00913808      -0.00184166
C        4.95646698       1.41797061       3.78061983       0.00263011       0.00225881       0.00586570
C        3.80901187       3.55031614       3.76154589      -0.00577293       0.00908202      -0.00184776
C        1.19255866       7.79979535       3.89003261      -0.00767884       0.01116216       0.00813772
C       -0.00526196       9.96638628       3.84876866       0.00202778      -0.00811072      -0.01758192
C        7.42106919       1.40235140       3.79930243      -0.00262101      -0.00717316      -0.00213831
C        6.22286736       3.52329049       3.58203248      -0.01515657       0.00140928      -0.00428635
C        5.01920165       5.63912725       3.21251705       0.00238575      -0.00329407      -0.00191601
C        3.66152768       7.87908763       3.41623285       0.00484565       0.00422461       0.00572637
C        2.46168521       9.94639974       3.82862538       0.00417100      -0.00071853       0.00453643
C        9.86917311       1.41101583       3.82905814       0.00014344       0.00118806      -0.00096614
C        8.65534992       3.55050698       3.73163794      -0.00622109       0.00869341      -0.01050097
C        7.42008933       5.68833427       3.55557503       0.01094594      -0.00668864       0.00278346
C        6.15364604       7.83340920       3.48806119       0.00644417      -0.00747783      -0.00297159
C        4.92660453       9.96440383       3.72101177       0.00106042       0.00566246       0.00671183
Ag       2.64950431       4.93314367       4.73202677       0.00432167       0.00468977       0.00092056
