49
Lattice="12.336457 0.0 0.0 -6.168228499999997 10.683685154694365 0.0 0.0 0.0 15.0" Properties=species:S:1:pos:R:3:forces:R:3 energy=-436.15711040082505 free_energy=-436.15711040082505 stress="-0.004579004205869639 -2.992408165845753e-06 -2.0196981629398426e-06 -2.992408165845753e-06 0.004082304625615336 -2.9505108961229736e-06 -2.0196981629398426e-06 -2.9505108961229736e-06 1.083418636279492e-06" pbc="T T T"
C        0.00166380       0.00969336       3.70526954      -0.00127719      -0.00389645      -0.00065376
C       -1.24605716       2.12452422       3.65655911      -0.00253749      -0.00160137      -0.00408620
C       -2.47509206       4.26910597       3.58751975      -0.00443688      -0.00303890      -0.01021030
C       -3.70140467       6.41822359       3.58953282      -0.00040455       0.00478017       0.00196081
C       -4.92783519       8.56861093       3.65911640       0.00000419       0.00170314      -0.00373696
C        2.46722842       0.06222410       3.73485554      -0.00207792       0.00756670       0.01085137
C        1.20836369       2.19889762       3.82608927      -0.00241001       0.00315889      -0.00307608
C       -0.00849720       4.24641349       3.74598229       0.00549044       0.00232394      -0.00315724
C       -1.25105825       6.41470890       3.63203011       0.00139727      -0.00062616      -0.00646767
C       -2.47448962       8.56870347       3.64830911      -0.00194266       0.00445727      -0.00351788
C        4.93220668       0.01002905       3.70468909       0.00142759      -0.00247372       0.00139764
C        3.72624747       2.19861290       3.84972140       0.00442350       0.00275991      -0.00211150
N        1.11862149       6.42168922       3.94698571       0.00124782      -0.00132164      -0.00605025
C       -0.01012432       8.53427734       3.71455109      -0.00217106       0.00375746       0.00254083
C        7.40732238      -0.03460725       3.69925857       0.00729681      -0.00088247       0.00268720
C        6.17998678       2.12538643       3.67592784       0.00190568      -0.00730677      -0.00936068
C        4.94328631       4.24607039       3.79289295       0.00296597       0.00174574       0.00382888
N        3.81767788       6.42421224       3.99238421      -0.00014343       0.00173594      -0.00899115
C        2.46707513       8.47521610       3.82165755      -0.00225050      -0.00512050       0.00253069
C        9.86253219      -0.03470876       3.69890306      -0.00002959      -0.00330345       0.00373686
C        8.63515535       2.11772348       3.62441707      -0.00161650      -0.00390643       0.00054699
C        7.40912356       4.26913195       3.60446255      -0.00612690      -0.00054170      -0.01112066
C        6.18520156       6.41439694       3.66453292      -0.00152596       0.00031931      -0.01060638
C        4.94423247       8.53435736       3.73250902       0.00344456       0.00046409       0.00243325
C       -0.01021307       1.43205834       3.71836165      -0.00377455      -0.00378368      -0.00143614
C       -1.25113983       3.55165850       3.63184886       0.00175777       0.00176321       0.00514556
C       -2.47519101       5.69753824       3.58701277      -0.00105328       0.00037768      -0.00713834
C       -3.70123593       7.84877066       3.62582785      -0.00061885       0.00424468      -0.00654183
C       -4.92866224      10.00120403       3.70085602       0.00033170       0.00081703       0.00604530
C        2.46722769       1.49119846       3.82102261      -0.00000883       0.00768903       0.01519211
N        1.11917329       3.54500433       3.94145303       0.00726850       0.00195902       0.00058127
C       -0.00823551       5.72012191       3.74654081       0.00020933      -0.00197566       0.00318254
C       -1.24590512       7.84180715       3.65361734      -0.00228792       0.00244945       0.00527223
C       -2.47361746      10.00116984       3.69646510      -0.00292435       0.00397056       0.01289863
C        4.94425725       1.43245493       3.73213756       0.00307779      -0.00451570       0.00227340
N        3.81875546       3.54178890       3.99865651       0.00038829       0.00159737      -0.01208201
C        1.20830987       7.76742587       3.82619505      -0.00513833      -0.00243132       0.00107327
C        0.00135570       9.95677389       3.70143146       0.00541965       0.00360838       0.00558187
C        7.40834217       1.39812018       3.65675932       0.00292817      -0.00429917       0.00104566
C        6.18507425       3.55245465       3.66183270      -0.00212135      -0.00497273       0.00138967
C        4.94341563       5.72027057       3.79300497       0.00037380      -0.00036037      -0.00284000
C        3.72609719       7.76764600       3.84684001       0.00245120       0.00171163       0.00924590
C        2.46674872       9.90421482       3.73531125       0.00300855      -0.00501165       0.01226354
C        9.86179726       1.39765646       3.64910225      -0.00208503      -0.00292927       0.00290928
C        8.63528819       3.54834407       3.59030633      -0.00700934      -0.00433985      -0.00468540
C        7.40894513       5.69746330       3.60409598      -0.00146162       0.00267939      -0.00006547
C        6.18010077       7.84160803       3.67740608       0.00173630       0.00065137      -0.00364017
C        4.93222143       9.95674999       3.70688412      -0.00043806      -0.00167543       0.00686297
Ag       2.45311681       4.98215297       5.34359296      -0.00068276       0.00202302      -0.00190163
