49
Lattice="12.336457 0.0 0.0 -6.168228499999997 10.683685154694365 0.0 0.0 0.0 15.0" Properties=species:S:1:pos:R:3:forces:R:3 energy=-429.1947315792052 free_energy=-429.1947315792052 stress="-0.004870424593990127 -0.001323948168273115 -5.261682484222561e-06 -0.001323948168273115 -0.0019733404169687083 4.413411219030899e-06 -5.261682484222561e-06 4.413411219030899e-06 -5.5250688620108265e-06" pbc="T T T"
C       -0.00133065      -0.00524161       3.66443513       0.00216907      -0.00186709      -0.00503752
C       -1.24361354       2.12166673       3.40582242       0.00498848       0.00637333      -0.00017402
C       -2.49405816       4.27054619       3.46156566      -0.00157572       0.00412670      -0.00413200
C       -3.70027816       6.41652149       3.63602211       0.00453073      -0.00833393       0.00835717
C       -4.92045502       8.55266447       3.74139640      -0.00097635       0.00104478      -0.00031934
C        2.46823389      -0.01296298       3.80771448       0.00810288       0.00216203       0.00153741
C        1.25210941       2.06328635       3.40262299      -0.00062677      -0.01182998       0.01045512
C       -0.09008152       4.30487628       3.16658452      -0.00366260      -0.00490678      -0.00378991
C       -1.25338144       6.41380101       3.63199626      -0.00654688      -0.00415696      -0.00039939
C       -2.45601071       8.54303290       3.80799694      -0.00475695       0.00504408      -0.00934822
C        4.93662206      -0.00288079       3.90897301       0.00526730       0.00555897      -0.00614384
C        3.67763126       2.12857422       3.92382972      -0.00081113      -0.00347606       0.00864905
B        1.14851026       6.34184540       4.09915549      -0.00224101       0.00224913       0.01010458
C        0.00580671       8.53694762       3.92937589      -0.00354423      -0.01149453      -0.00699643
C        7.40593956      -0.00714454       3.87012772      -0.00644260       0.00177187      -0.00426380
C        6.16115081       2.14172828       3.84806996      -0.00402467       0.00415902       0.00233074
C        4.97530621       4.32300130       3.91950484      -0.00723391      -0.00159473       0.01069603
N        3.81949041       6.44806281       4.08581058       0.00020415       0.00460538       0.00491209
C        2.48186383       8.52504193       3.99001092       0.00293536       0.01146131       0.00284538
C        9.86672005      -0.00944141       3.73394834       0.00853460      -0.00861873       0.00606012
C        8.62588246       2.12854773       3.63777190       0.01249901       0.00105849       0.00530377
C        7.40296931       4.27816262       3.66765381      -0.00869977      -0.00112172      -0.00499718
C        6.19818481       6.43938755       3.73256060       0.00325714       0.00439477       0.00786128
C        4.95085461       8.54517998       3.82737267      -0.00750852      -0.00342076      -0.01560007
C       -0.00492807       1.41496635       3.47630640       0.00026222       0.00253318      -0.00070656
C       -1.26744981       3.54274518       3.29606569      -0.00485038       0.00259071       0.00215923
C       -2.48648610       5.69675045       3.55265806       0.00083976      -0.00458289      -0.00171954
C       -3.69044090       7.83834316       3.72454595      -0.00182262      -0.00470215       0.00556468
C       -4.93227639       9.97286362       3.74427095       0.00507099       0.00325879      -0.00706892
C        2.46394176       1.41501233       3.75637049       0.00179416      -0.00487344       0.01153249
S        1.39348186       3.59791705       2.63434718      -0.00189081       0.01623009       0.00640480
C       -0.06064396       5.67203016       3.52110876      -0.00901802      -0.00251319      -0.00919352
C       -1.22459601       7.82866508       3.81511847      -0.00934742      -0.00299791      -0.01071361
C       -2.46109705       9.96504493       3.87076726       0.00801303       0.00728527      -0.01060511
C        4.92414692       1.43577856       3.91776450      -0.00032410       0.00299806       0.00599400
B        3.69381688       3.61291965       4.17573587       0.00130112      -0.01004340       0.00074648
C        1.24802473       7.83812339       4.02496458       0.00695999       0.00256408      -0.00259256
C        0.00209402       9.96997294       3.92023680      -0.00386510      -0.00931984      -0.01508118
C        7.39665079       1.42070762       3.78622307       0.00252934       0.00685400       0.00322300
C        6.16683080       3.57240116       3.80174219      -0.01072147       0.00020377      -0.00410100
C        4.96765168       5.75149815       3.88708860       0.00303625       0.00025180       0.01165640
C        3.73465573       7.79385781       3.97540193      -0.00458006       0.00381794      -0.00059408
C        2.47605516       9.95455307       3.87147584      -0.00152486       0.00626012       0.00103181
C        9.86529397       1.41559892       3.58441948       0.01438239      -0.00759369      -0.00013418
C        8.61996984       3.55471359       3.57669815       0.00019453       0.00551966       0.00303577
C        7.40857980       5.70411123       3.65818195       0.00247379      -0.00273046      -0.00341063
C        6.18422975       7.84902705       3.75686354      -0.00458939       0.00375738      -0.01058788
C        4.93312833       9.96453726       3.74275009       0.00491695      -0.00965245      -0.00504727
Au       2.30869313       4.91120690       4.98329140       0.00692214       0.00169598       0.01229633
