49
Lattice="12.336457 0.0 0.0 -6.168228499999997 10.683685154694365 0.0 0.0 0.0 15.0" Properties=species:S:1:pos:R:3:forces:R:3 energy=-429.1305538185969 free_energy=-429.1305538185969 stress="-0.009130859057936485 -0.0024265630633590607 2.5242165984333045e-06 -0.0024265630633590607 -0.00436195849828113 -5.154534580828671e-06 2.5242165984333045e-06 -5.154534580828671e-06 -2.7843033819763605e-06" pbc="T T T"
C       -0.00236124      -0.00653695       3.80903946      -0.00019727      -0.00446334       0.00415300
C       -1.26009302       2.11327056       3.95342946       0.00175749       0.00460947      -0.00344356
C       -2.51900017       4.26416644       3.93701675       0.00543466       0.00013134       0.00155434
C       -3.69567816       6.41967743       3.74629433      -0.00769745      -0.00461804       0.01350211
C       -4.91321796       8.56229100       3.70974542       0.00399810      -0.00532545      -0.00282242
C        2.47915910      -0.00724996       3.76963876      -0.00350649       0.00575096       0.00102993
C        1.23573591       2.10037328       3.92439597      -0.00184862      -0.00337054      -0.00341242
C       -0.13844886       4.26793634       4.29523020       0.00284901      -0.00709615       0.00454235
C       -1.29502719       6.42433566       4.12806162      -0.00085030      -0.00115634       0.00153328
C       -2.45792877       8.55198872       3.85879812       0.00188055       0.00920612       0.00370173
C        4.94220442      -0.00346333       3.69009697      -0.00422851       0.00385703      -0.00109702
C        3.67940164       2.06159061       3.34282616       0.00847104      -0.01214074       0.01169300
B        1.15003690       6.41310008       4.32609658       0.00838872       0.00156643      -0.00194771
C        0.00275170       8.54918212       3.96649808      -0.00283418       0.01354692       0.00650454
C        7.40587768      -0.01742614       3.71230972      -0.00933507      -0.00058772      -0.00437793
C        6.16632324       2.13311332       3.41545723       0.00192072      -0.00038638      -0.00098523
C        5.04898583       4.35060902       3.06073976       0.00439032      -0.00373979      -0.00013144
N        3.88171128       6.42238527       3.67339015       0.01269218       0.00724949      -0.00417154
C        2.49343756       8.51141020       3.85032299       0.00079620       0.00483700       0.01078351
C        9.86630222      -0.01936314       3.76255671       0.00142747      -0.00184641      -0.00198769
C        8.62327700       2.12362494       3.70435457      -0.00285814      -0.00181142      -0.00248305
C        7.41793708       4.28064391       3.50862120      -0.00260017       0.00331771       0.00219261
C        6.24013698       6.45720181       3.42021318      -0.00608869       0.00354328       0.00949417
C        4.95925171       8.54383336       3.66006863       0.00371205      -0.00113752      -0.00349897
C       -0.01232778       1.41349139       3.92017482      -0.00125136       0.00023701      -0.01190037
C       -1.30757334       3.53043159       4.08839724       0.00438155       0.00155331       0.00447249
C       -2.50739431       5.69545886       3.95178395      -0.00193431      -0.00210391       0.00244386
C       -3.68667762       7.84448562       3.77181962       0.00561948      -0.00393679       0.00512207
C       -4.92758085       9.97761727       3.78387451      -0.00060229      -0.00344414      -0.00308096
C        2.47183967       1.41336200       3.70652133       0.00238642       0.00147107       0.00493006
B        1.15499104       3.54143053       4.22612073      -0.00479886      -0.01284059      -0.01063465
C       -0.13802035       5.67709262       4.33087699      -0.00609637      -0.00809577      -0.00309780
C       -1.23632419       7.84360692       4.00110419      -0.00018528       0.00762838       0.00246705
C       -2.45488456       9.97216234       3.77305351      -0.00384163       0.00944044      -0.00644575
C        4.93600313       1.41846180       3.46426977       0.00660790      -0.00706254      -0.00839046
S        3.58846930       3.58168142       2.52457053      -0.00056040      -0.00663192      -0.00749448
C        1.25150795       7.86058801       4.04942323      -0.00117111       0.00772283       0.00536450
C        0.00405067       9.96626416       3.78330849      -0.00980965       0.00785705      -0.00142274
C        7.39044681       1.41553608       3.59807850      -0.00485791      -0.00358244      -0.01124944
C        6.19016971       3.56957405       3.30157841      -0.00023604      -0.00120071       0.01134252
C        5.02820511       5.76367063       3.29994065       0.00472201      -0.00051363      -0.00920933
C        3.74875024       7.78546220       3.72798437       0.00584864       0.00236024       0.00517562
C        2.47676570       9.94054641       3.76067941      -0.00450675       0.00455598       0.00157334
C        9.85253508       1.40514828       3.81040873       0.00196461       0.00077870      -0.01073076
C        8.61666496       3.55161782       3.71506579       0.00283880       0.00189423      -0.01185694
C        7.43611020       5.70709638       3.53033707      -0.01099171       0.00204622       0.00692532
C        6.19993719       7.86180654       3.58886296       0.00025390      -0.00052496       0.00176574
C        4.93632593       9.96164964       3.75001199       0.00151049      -0.00524837      -0.00262517
Au       2.55462877       4.98361203       4.27127075      -0.00096377      -0.00229561       0.00623069
