49
Lattice="12.336457 0.0 0.0 -6.168228499999997 10.683685154694365 0.0 0.0 0.0 15.0" Properties=species:S:1:pos:R:3:forces:R:3 energy=-435.36883453236817 free_energy=-435.36883453236817 stress="-0.010062545468820948 0.0015975776795352596 2.8951149601983913e-06 0.0015975776795352596 -0.003643003680919222 1.5269792910011457e-06 2.8951149601983913e-06 1.5269792910011457e-06 -1.3144111582638335e-06" pbc="T T T"
C       -0.00162013      -0.00162860       3.68388014      -0.00517588      -0.00000837       0.01723971
C       -1.24077258       2.12405301       3.63507556       0.01005470       0.01095273       0.00174624
C       -2.48962303       4.27362810       3.49049286       0.00847938       0.00691791      -0.00549355
C       -3.70353742       6.42069738       3.48928201      -0.00601707       0.00109497      -0.00018675
C       -4.93437985       8.56035235       3.61097104      -0.00012819      -0.00374443       0.00598979
C        2.46943718       0.01959780       3.76859358      -0.00360293      -0.00116854       0.00153731
C        1.22979703       2.10586776       3.89906644       0.00226557       0.00258405      -0.00491867
C       -0.10386857       4.30628662       3.78001648       0.00203740      -0.00610652       0.00584668
C       -1.27655019       6.43992502       3.62407388       0.00511529       0.00368946      -0.00490920
C       -2.48187532       8.56966457       3.64046151      -0.00190302       0.00709477      -0.01053908
C        4.93578931       0.00786667       3.77339828       0.00569150      -0.00662728      -0.00005944
C        3.71343472       2.18006994       3.96022021       0.00943178      -0.00651394      -0.00830889
C        1.12780173       6.39800850       4.07917745      -0.00203775       0.00592786      -0.00210918
C       -0.01526901       8.53848429       3.80574973      -0.00839678       0.00988991      -0.00714678
C        7.40530318      -0.02178869       3.73220300       0.00231369      -0.00837952      -0.00804063
C        6.18796115       2.11101309       3.69818016      -0.00321709      -0.00619943      -0.01232671
C        5.00449412       4.23803639       3.84410835       0.00278620       0.00287810       0.00706792
B        3.78448183       6.39086387       4.08391923      -0.00249265       0.00006515      -0.00476564
C        2.46176274       8.52749792       3.90871744       0.00102662       0.00065418      -0.00059184
C        9.86526592      -0.01847755       3.68166156       0.00083667       0.00646227       0.00555653
C        8.63814996       2.11642296       3.55645099       0.00033264      -0.00673118       0.00675266
C        7.41875210       4.26179723       3.51748086      -0.00045866      -0.00763070      -0.01136703
C        6.20333803       6.41156659       3.63633105      -0.00741518      -0.00049118      -0.00042583
C        4.94193557       8.54701537       3.75006996      -0.00090152      -0.00216962       0.00068809
C       -0.00789878       1.41944563       3.73230583       0.00192581       0.00496472       0.01212527
C       -1.26844446       3.55434099       3.60497710       0.00485739       0.00561132       0.00278314
C       -2.48513428       5.70471835       3.50110185       0.00206055       0.00891455      -0.00988757
C       -3.70459548       7.84998706       3.56161608      -0.00095361       0.00350474       0.00523769
C       -4.93126743       9.98433532       3.68530907      -0.00848803      -0.00124942       0.00382400
C        2.47145540       1.43904374       3.90713323       0.00391074      -0.00015939       0.00366568
B        1.15058660       3.57753705       4.05544722      -0.00957072      -0.00490103       0.00156932
C       -0.06936439       5.72851308       3.81044475       0.00092490      -0.00711157       0.00799415
C       -1.25353288       7.85582508       3.68182058      -0.00617592       0.00564829       0.00115562
C       -2.47167637       9.98850097       3.73373015       0.00121491       0.00313737      -0.00615166
C        4.94912992       1.42827363       3.81695444       0.00551401      -0.01201527      -0.00439056
C        3.80467828       3.56745811       4.09798821       0.00613487      -0.00397852      -0.01011893
C        1.21979708       7.78608562       3.95007647      -0.00935974       0.01027577      -0.00473829
C       -0.00247913       9.95919666       3.77111026       0.00294483       0.00261088      -0.00417949
C        7.41583179       1.39715264       3.64293085      -0.00559982      -0.00890377      -0.00089563
C        6.21102719       3.52706492       3.65083778      -0.00269655      -0.00332306      -0.00357354
C        5.04001872       5.66030597       3.81965996      -0.00674346       0.00409223       0.00289621
C        3.70388144       7.86119292       3.91577824       0.00008890      -0.00410031      -0.00114365
C        2.46423307       9.94664531       3.76603037       0.00419812       0.00018098       0.00625379
C        9.86774935       1.40538303       3.60012469       0.01037234       0.00444273      -0.00208664
C        8.63682768       3.54577886       3.48508067       0.00709604      -0.00319652       0.00679273
C        7.42330422       5.69257650       3.51017644      -0.00533087      -0.00364711      -0.00568927
C        6.17451915       7.84171423       3.65702133       0.00091719      -0.00233289       0.00249262
C        4.93584972       9.96769245       3.68738321      -0.00315204      -0.00118331       0.01644306
Au       2.46268843       4.98296038       4.66009901      -0.00271456       0.00027795       0.00838624
