49
Lattice="12.336457 0.0 0.0 -6.168228499999997 10.683685154694365 0.0 0.0 0.0 15.0" Properties=species:S:1:pos:R:3:forces:R:3 energy=-431.97047072275325 free_energy=-431.97047072275325 stress="-0.0015197550432018722 -0.0005865136919318855 2.025838222609673e-07 -0.0005865136919318855 0.0014932690299425144 1.2604090505186524e-05 2.025838222609673e-07 1.2604090505186524e-05 8.051893934778638e-07" pbc="T T T"
C       -0.00352279       0.00077626       3.72013682       0.00597427       0.00615511      -0.00000779
C       -1.23811383       2.14016721       3.77632744      -0.00291979       0.00220889       0.00147346
C       -2.47729976       4.27809509       3.62069496      -0.00308440      -0.00245041      -0.00576896
C       -3.70292657       6.41728168       3.50101450      -0.00253454      -0.00191567       0.00231807
C       -4.93672419       8.55516923       3.55467601      -0.00134035       0.00315471      -0.00024516
C        2.46785554      -0.00490934       3.76394942      -0.00504463      -0.00346089      -0.01185869
C        1.23284069       2.10730545       4.02873611       0.00130632      -0.01103401      -0.00030873
C       -0.04492788       4.32125627       3.95501681      -0.00639232      -0.00401914      -0.00046129
C       -1.25529518       6.43099163       3.64825052      -0.00145936      -0.00309546      -0.00046420
C       -2.47051921       8.55503258       3.59172127       0.00596350       0.00976160       0.00528450
C        4.93917199      -0.00348701       3.71733726      -0.00288120       0.00036895      -0.00687248
C        3.70016588       2.11641175       3.97904903       0.00420872      -0.00934967      -0.00763075
N        1.13658718       6.43840644       4.05011740       0.01158091       0.00305452       0.00189387
C        0.00516634       8.53214575       3.69393062      -0.00197455       0.00756789      -0.00575788
C        7.40939677      -0.01774600       3.68788264       0.00325751      -0.00195650       0.00493951
C        6.16246355       2.14999747       3.70440036       0.00258864       0.00127304       0.00176369
C        4.94811863       4.34994136       3.73631539       0.00832257       0.00106619       0.00633191
O        3.78154369       6.45503867       3.56175062      -0.00851020      -0.00369199      -0.01132537
C        2.48660032       8.48254170       3.72171658      -0.00237423      -0.00862180      -0.00175759
C        9.86250619      -0.01710097       3.68364000       0.00264941       0.00105026      -0.00612635
C        8.63181142       2.13304066       3.63932531      -0.00186058       0.00693611      -0.00099775
C        7.39936895       4.28053036       3.54010839       0.00543072      -0.00375615       0.00166148
C        6.17756509       6.43242282       3.48049435      -0.00027752       0.00171423      -0.00185433
C        4.93665614       8.54475778       3.59269935      -0.00415165       0.00687967       0.00689640
C       -0.00299576       1.42744097       3.84594687      -0.00003017       0.00400759      -0.00204753
C       -1.23819990       3.57575029       3.77455512      -0.00791886      -0.00065489      -0.00025767
C       -2.47281221       5.70329807       3.57285390      -0.00436329      -0.00610552      -0.00194055
C       -3.70116864       7.84258139       3.53026916       0.00412754       0.00677918       0.00890682
C       -4.93436096       9.97768101       3.67626145      -0.00355358       0.00047992       0.00602562
C        2.46774672       1.41669281       3.95319760       0.00314896      -0.01152375      -0.00444734
B        1.19953609       3.58020943       4.32308878       0.00347595      -0.00708714       0.00291743
C       -0.01281573       5.75098507       3.87328457       0.00605178      -0.00014463       0.00425840
C       -1.23909313       7.84238036       3.62719845       0.00200153       0.00039363      -0.00269756
C       -2.46580541       9.97494406       3.68663509      -0.00389112       0.00701116      -0.00592059
C        4.93315023       1.42906489       3.79511989       0.00581219      -0.00659639       0.00331917
B        3.73278384       3.59867228       4.21010617      -0.00805511       0.00180599      -0.00526783
C        1.22172461       7.76351251       3.81790303      -0.00655100       0.00585660      -0.00227365
C        0.00712214       9.95860190       3.68794410      -0.00188984       0.00608693       0.00101103
C        7.39869949       1.41997166       3.66243473      -0.00001562       0.00446197       0.00301940
C        6.15524971       3.58568781       3.64360731       0.00692721       0.00111438       0.01007893
C        4.96312624       5.75280151       3.57613688      -0.00130198       0.00366816       0.01432103
C        3.73619202       7.82558203       3.63026299      -0.00305888      -0.00228783      -0.00942915
C        2.47140702       9.92213158       3.69168352       0.00320988      -0.00928407       0.00128786
C        9.86630865       1.42071720       3.68910447      -0.00359025       0.00290719       0.00688876
C        8.63244433       3.56141557       3.58518127       0.00107847       0.00152257      -0.00096980
C        7.40555878       5.70088310       3.48805424       0.00064156      -0.00614002      -0.00348301
C        6.17460734       7.84895244       3.51901446      -0.00458289       0.00369532       0.00062187
C        4.92940675       9.97124056       3.66223706       0.00845738       0.00817554       0.00271292
Au       2.50109214       4.64928376       5.48334734      -0.00260713      -0.00598140       0.00223986
