49
Lattice="12.336457 0.0 0.0 -6.168228499999997 10.683685154694365 0.0 0.0 0.0 15.0" Properties=species:S:1:pos:R:3:forces:R:3 energy=-432.1342560055259 free_energy=-432.1342560055259 stress="-0.007685734586780769 0.00016335561417773293 -5.208279398383575e-06 0.00016335561417773293 -0.0015761676089302735 -2.0197228326809956e-06 -5.208279398383575e-06 -2.0197228326809956e-06 -1.9130060804488726e-06" pbc="T T T"
C       -0.00577842       0.01921175       3.86585368       0.00046514      -0.00303598      -0.00032869
C       -1.25388874       2.12245964       4.01360641      -0.00235008      -0.00091409      -0.00799509
C       -2.49451578       4.26902739       4.13972033      -0.00441967       0.00154001      -0.00146585
C       -3.70871477       6.42172656       4.04114971       0.00771364      -0.00434560       0.00588178
C       -4.93960106       8.56752864       3.89489534      -0.00271187       0.00504380       0.00457770
C        2.45971555       0.03332717       3.80798645       0.00445803       0.00028409      -0.00379399
C        1.21319995       2.19211878       3.67069508       0.00245258      -0.00346097       0.00176109
C       -0.06560444       4.25893750       3.95938751      -0.00043230       0.00406904       0.00294968
C       -1.27287597       6.42783274       4.13573374       0.00219719       0.00074958       0.00009891
C       -2.48782696       8.56937513       4.03076659      -0.00578503       0.00238129      -0.00287290
C        4.92903583      -0.00355916       3.82472037       0.00089888       0.00514204      -0.00326487
C        3.71598618       2.04158875       3.24704457      -0.00482096       0.00264801      -0.01264259
C        1.11206889       6.39844167       3.72185641       0.00600907      -0.00173882      -0.00634583
C       -0.01950333       8.53469629       3.95186993      -0.00079154      -0.00563691      -0.00390356
C        7.39250830      -0.02099615       3.87164739       0.00067165       0.00107229       0.00383599
C        6.18534656       2.11398162       3.59576489      -0.00213299      -0.00080335       0.01240512
C        5.15217585       4.28207370       3.02226426       0.00953552      -0.00597617      -0.01336206
B        3.80671187       6.43159703       3.26009744      -0.00698112      -0.00128009      -0.00285910
C        2.45391224       8.52640385       3.73305327       0.00743199      -0.00785268       0.00126022
C        9.85609681      -0.01461686       3.89676253      -0.00215360      -0.00685967       0.01024358
C        8.62252104       2.12139412       3.96511451       0.00423914       0.00537778      -0.00197236
C        7.42818983       4.27043652       3.81250576      -0.00630739       0.00081906       0.00999627
C        6.22344580       6.42261888       3.62053639      -0.00636823       0.00258097       0.00586595
C        4.94375614       8.56201118       3.71347046       0.00108746       0.00485782       0.00376812
C       -0.01411795       1.44215361       3.87067573      -0.00146722      -0.00446056      -0.00554676
C       -1.27843568       3.54056743       4.10514133      -0.00690699       0.00197280      -0.00845967
C       -2.49265610       5.70197301       4.15067983       0.00702008      -0.00331052       0.00191101
C       -3.71259162       7.85259333       4.00898257      -0.00197807      -0.00174449      -0.00002968
C       -4.93942796       9.99617485       3.87106127       0.00300357       0.00313740      -0.00078192
C        2.46747590       1.45139814       3.56793426       0.00235187      -0.00607755      -0.00483219
C        1.09533585       3.57423516       3.63245621       0.00430127       0.00420286       0.00364164
C       -0.06094339       5.70605395       3.98914464       0.00306064       0.00421228      -0.00193086
C       -1.25620029       7.84941286       4.06757295      -0.00622682      -0.00139424      -0.00273367
C       -2.48135245       9.99124991       3.89810936       0.00253964       0.00589277      -0.00684064
C        4.94731501       1.40384027       3.56438269      -0.00518205       0.00343679       0.00196841
S        3.86505788       3.43254170       2.21050701      -0.00670539      -0.00336308       0.00306499
C        1.21322983       7.79103564       3.80199924       0.00673675      -0.00543548      -0.00343384
C       -0.00930710       9.95591078       3.89918007       0.00048007      -0.00281217      -0.00428017
C        7.39162647       1.40885332       3.83385359       0.00257817       0.00465719       0.00513857
C        6.24053152       3.53785213       3.48012536       0.00023871      -0.00343482      -0.00016720
C        5.08582979       5.67968658       3.23534545       0.00353497      -0.00302853      -0.00821241
C        3.70127572       7.87300615       3.58103319       0.00825276      -0.00016854      -0.00470743
C        2.45361122       9.94754020       3.85378179      -0.00099710      -0.00737628       0.00530608
C        9.84875816       1.40452773       3.99271357       0.00048768      -0.00328395      -0.00367649
C        8.62662179       3.54897133       4.01461277      -0.00310200       0.00405779       0.00178999
C        7.42713153       5.70019358       3.84473683      -0.00016360       0.00166582       0.00499780
C        6.17753634       7.84942719       3.74462482      -0.00472849       0.00558526       0.01058897
C        4.93235005       9.97872259       3.84609252      -0.00051879       0.00047022       0.00468177
Au       2.40237741       5.01301095       3.09346947      -0.00851518       0.01193756       0.01070618
