49
Lattice="12.336457 0.0 0.0 -6.168228499999997 10.683685154694365 0.0 0.0 0.0 15.0" Properties=species:S:1:pos:R:3:forces:R:3 energy=-432.3525094349476 free_energy=-432.3525094349476 stress="-0.0035254957088314866 -0.0035172667449787053 -2.164893993661547e-06 -0.0035172667449787053 0.0009812406016422234 -9.490559679396405e-07 -2.164893993661547e-06 -9.490559679396405e-07 -2.2297597863825928e-06" pbc="T T T"
C       -0.00556679      -0.01096786       3.65953043      -0.00477742      -0.00017599      -0.00935867
C       -1.26605215       2.10401364       3.54819093       0.00409998      -0.00066021      -0.00254919
C       -2.47801666       4.26096287       3.46980495       0.00738097       0.00767209       0.00401141
C       -3.68025627       6.41516716       3.50229635      -0.00469397      -0.00465389       0.00106057
C       -4.91217255       8.56238695       3.60271841      -0.00814587      -0.00040094       0.00034781
C        2.45750560       0.03065943       3.70224547      -0.00464425       0.00367045       0.01033090
C        1.17257710       2.12338267       3.67162588      -0.00424634       0.00204119      -0.00405892
C       -0.05000946       4.19992360       3.53778285      -0.00291397       0.00506860      -0.01197286
C       -1.21494215       6.37902348       3.59704725      -0.00051301      -0.00038384       0.00683524
C       -2.45277148       8.55034113       3.62986516       0.00512537      -0.00407751       0.01806592
C        4.92151440       0.01254278       3.77998915       0.00097957       0.00406148       0.00321171
C        3.65783919       2.16383477       3.97046267       0.00684953       0.00231448       0.00541517
B        1.20470065       6.35007793       4.12817441      -0.01383634       0.00543965       0.00030838
C       -0.00091890       8.53729060       3.81974411       0.00328634      -0.00084827       0.00286989
C        7.39043775      -0.00893367       3.78230303       0.00000196      -0.00158123       0.01716160
C        6.14816831       2.14038716       3.77260258      -0.00028862       0.00044301       0.01222104
C        5.01499224       4.31472810       3.92681752       0.00071655      -0.00602576      -0.00519317
C        3.80676224       6.41456526       4.17571948       0.00717018      -0.00262364      -0.00380096
C        2.46711818       8.52737992       3.96944579       0.00074101       0.00444568       0.00069859
C        9.85372960      -0.02355414       3.72282663       0.00800688      -0.01004374      -0.00114036
C        8.61324616       2.12186671       3.60591368       0.00373064       0.00028580      -0.00832266
C        7.41536101       4.27763360       3.56953494      -0.00955170      -0.00392116       0.00988955
C        6.21233847       6.43841844       3.65005587       0.00312289       0.00249895       0.00234600
C        4.94926171       8.53622556       3.78332637      -0.00521084      -0.00018563       0.01404786
C       -0.02830599       1.41013236       3.62232389      -0.00173657       0.00038166      -0.01585154
C       -1.26082187       3.51927879       3.47534638       0.00318502       0.00263121      -0.01430371
C       -2.45831121       5.68458656       3.48548838       0.00134675       0.00244751       0.00876070
C       -3.68221679       7.84334665       3.55912843      -0.00223491       0.00042769      -0.00135153
C       -4.92873632       9.98687725       3.64613423      -0.00896115       0.00298274       0.00865583
C        2.42871327       1.46807554       3.79984632       0.00333658       0.00717393      -0.00542859
O        1.12976214       3.48092952       3.50428193      -0.00781535       0.00392363      -0.01420012
C       -0.01936374       5.60745808       3.68113888      -0.00354749       0.00467055      -0.00975077
C       -1.21895658       7.81654088       3.68396693       0.00661701      -0.00463378      -0.00004400
C       -2.47317109       9.98534614       3.70830239       0.00046062       0.00122442       0.00580551
C        4.90095899       1.45165786       3.85542016       0.00333498      -0.00056442      -0.00031034
B        3.74810590       3.63935460       4.28886654       0.01400900      -0.00202346       0.00158663
C        1.23535453       7.84118961       3.98006360       0.00152034       0.00042442      -0.00861085
C       -0.01297903       9.97342494       3.79605688       0.00111430      -0.00120743      -0.00157910
C        7.38113361       1.41666820       3.70869368      -0.00160969       0.00155143       0.00010850
C        6.18344718       3.56633260       3.73068586      -0.00362554      -0.00353793       0.01015766
C        5.00130932       5.73351370       3.89228082       0.00953586      -0.00437795      -0.00363436
C        3.71534121       7.79702600       3.98516129      -0.00315815       0.00299113      -0.00002781
C        2.45877871       9.95252130       3.82460331       0.00167940      -0.00269329      -0.00363519
C        9.84627372       1.40111669       3.61198173       0.00642031      -0.01174887      -0.00621541
C        8.62671134       3.55005292       3.52365818       0.00023420       0.00691774      -0.00166124
C        7.42805845       5.70629095       3.54220640      -0.00391324      -0.00544671      -0.00236556
C        6.19240829       7.85342267       3.66493697      -0.00805958       0.00049504      -0.00802263
C        4.92881259       9.95270547       3.71458585       0.00571452      -0.00717863       0.00039517
Au       2.53024048       5.12334374       5.09153663      -0.00623675       0.00280982      -0.00090209
