50
Lattice="12.336457 0.0 0.0 -6.168228499999997 10.683685154694365 0.0 0.0 0.0 15.0" Properties=species:S:1:pos:R:3:forces:R:3 energy=-443.3702277270798 free_energy=-443.3702277270798 stress="0.003161857925954939 0.0029723410658608665 -2.5194506989893953e-06 0.0029723410658608665 -0.005363999771195162 -1.1367373352631974e-05 -2.5194506989893953e-06 -1.1367373352631974e-05 -3.6577990172678323e-06" pbc="T T T"
C       -0.01115237       0.00075784       3.78441680      -0.00411052      -0.00152647      -0.00145548
C       -1.21530920       2.16526774       3.72382647      -0.00096733       0.00544436      -0.00088790
C       -2.43602548       4.29543848       3.61270275       0.00592180       0.00807008       0.01150370
C       -3.70410380       6.41255511       3.61082097       0.00769617      -0.00920049       0.00348543
C       -4.96559357       8.53519393       3.72023821      -0.00476145      -0.00786604       0.00368708
C        2.45461644      -0.01263759       3.71808206       0.00609679       0.00802602       0.00814618
C        1.23975649       2.13494552       3.89596753      -0.00185197      -0.00097927       0.00312043
C        0.04704556       4.30127545       3.82574268      -0.00605117      -0.00327429       0.00315813
C       -1.19067022       6.42403027       3.61241511       0.00026256      -0.00277939       0.00103741
C       -2.48258412       8.54559302       3.59075423      -0.00001147       0.00300310      -0.00692417
C        4.92877346       0.00056953       3.54563225       0.00675079       0.00344177      -0.00659082
C        3.71374886       2.10354003       3.76047353       0.00189451      -0.00034996      -0.00821762
B        2.54794604       4.25493039       4.40856730      -0.00540758      -0.01115759      -0.00732384
C        1.32583784       6.49355154       3.68395037       0.00130958       0.00278142       0.00387150
C       -0.01715074       8.57496359       3.51568177      -0.00084975      -0.00145464      -0.00356389
C        7.39829617       0.03470536       3.51519045       0.00051223      -0.00577302      -0.00143305
C        6.18075063       2.13625676       3.51613105      -0.00353677      -0.00307134       0.00408036
C        4.95726135       4.23367012       3.70100039      -0.00330468      -0.00162073       0.00219165
P        3.16173097       6.17028079       4.16125804      -0.00277241       0.00001177       0.00693928
C        2.44213848       8.63118721       3.70250272       0.00311412       0.00235139      -0.00070695
C        9.87600999       0.03920501       3.68722776       0.00018986      -0.01014675      -0.01184727
C        8.65379173       2.16438236       3.54878667       0.00695511       0.00014180       0.00831497
C        7.41887210       4.28414130       3.54573739      -0.00123686       0.00358149      -0.00147887
C        6.11542834       6.39656077       3.70526692      -0.00143699       0.00899345      -0.00125264
C        4.89311664       8.54474015       3.85656648      -0.00577968       0.00462867      -0.00066145
C        0.00121271       1.42904488       3.80034031      -0.00481509       0.00252690       0.00489481
C       -1.20109226       3.59105274       3.70925041       0.00032454       0.00669190       0.00807192
C       -2.44010621       5.71748561       3.60669670       0.00761987      -0.00146266       0.00167213
C       -3.71987299       7.83362854       3.64056348       0.00060490      -0.01075208      -0.00047421
C       -4.95245061       9.95991067       3.75139858       0.00092824      -0.00256237       0.00299290
C        2.46573074       1.40272966       3.81469428       0.00393295       0.00566593       0.00881798
C        1.23266655       3.55853489       4.01911859      -0.00743573      -0.00752469      -0.00456144
C        0.09097122       5.73478146       3.70897065      -0.01079933      -0.00492634       0.01054391
C       -1.23688027       7.84356103       3.55280428      -0.00094475      -0.00018122      -0.00109912
C       -2.47856723       9.96561722       3.61168442       0.00679601       0.00883576      -0.00967582
C        4.94690259       1.41137754       3.57982824       0.00026074      -0.00023196       0.01057162
C        3.76879925       3.49878198       3.89082465      -0.00186193      -0.00278414      -0.01106299
C        1.22550778       7.89325360       3.59271873       0.00508030       0.00245419      -0.00521568
C       -0.00503459       9.99203134       3.50024030       0.00147333      -0.00416447      -0.00520366
C        7.41483164       1.44675682       3.50134611       0.00058035      -0.00420869       0.00256561
C        6.19828345       3.55210475       3.54678499      -0.00439273      -0.00076243      -0.00373412
C        4.89127650       5.64256099       3.75445608      -0.00458692       0.00600392      -0.00727136
C        3.61492292       7.90062866       3.93331290       0.00283441       0.00588863      -0.01068129
C        2.46543158      10.03638468       3.61424654      -0.00010826      -0.00386346      -0.00759541
C        9.88554984       1.45941050       3.64295897       0.00563880      -0.00774994      -0.00420535
C        8.66166909       3.58412500       3.55230843       0.00603890       0.00810171       0.00012209
C        7.38749084       5.70424318       3.61072296       0.00135577       0.00376761       0.01304563
C        6.12828454       7.82549042       3.77740927      -0.01322906       0.00336022       0.00318266
C        4.91938644       9.97984716       3.78509723      -0.00221107      -0.00474693      -0.00804932
Au       2.72083407       5.34625798       6.26394226       0.00829088       0.01134926       0.00515634
