49
Lattice="12.336457 0.0 0.0 -6.168228499999997 10.683685154694365 0.0 0.0 0.0 15.0" Properties=species:S:1:pos:R:3:forces:R:3 energy=-432.013258037398 free_energy=-432.013258037398 stress="-0.008719632838187753 -0.0004657048984977327 -4.750255417662921e-06 -0.0004657048984977327 -0.001390475724174757 6.216040376528338e-06 -4.750255417662921e-06 6.216040376528338e-06 5.370499959368221e-06" pbc="T T T"
C       -0.00322928       0.00925146       3.89278468      -0.00098112      -0.00043397       0.00282164
C       -1.25693437       2.10772029       4.11126734       0.00159669      -0.00166208       0.00598397
C       -2.50466080       4.26554709       4.20157560       0.00836003      -0.00596314       0.01317237
C       -3.71439937       6.42103764       4.03072994       0.00339182       0.00143243      -0.00773864
C       -4.93768957       8.56200843       3.81866421       0.00225167       0.00156571      -0.00837037
C        2.46630463       0.04585277       3.80440105       0.00563085       0.00182145       0.00361281
C        1.21001556       2.17019770       3.78181735      -0.00673284       0.01233790       0.00805858
C       -0.09347740       4.23630391       3.97356993      -0.00165666      -0.00157671       0.00101378
C       -1.28024482       6.41798579       4.02314057       0.00405485      -0.00150763      -0.01297906
C       -2.47464362       8.56777261       3.92740217      -0.01189768      -0.00605501      -0.00508651
C        4.93445659       0.00875563       3.82075289       0.00067137      -0.00085814      -0.00164403
C        3.72135420       2.17945864       3.57024160      -0.00475668       0.00330944       0.00003374
B        1.11743293       6.37072037       3.48714699       0.00347876      -0.01858153      -0.00076916
C       -0.00623706       8.54141940       3.77272127      -0.00193496       0.00252691      -0.00242297
C        7.40354526      -0.02063228       3.88206895       0.00108952       0.00130458      -0.00939038
C        6.18511497       2.11645426       3.82534011       0.00283000       0.00088646       0.00668182
C        5.04803520       4.23861428       3.33634231      -0.00572785       0.00051839      -0.00173313
S        3.86931183       6.49239807       2.25600804       0.00610863       0.00115671       0.00812781
C        2.47777462       8.54687630       3.51828570       0.00327301      -0.00204817       0.00640085
C        9.86442223      -0.02123082       3.91888661      -0.00466651       0.00037337      -0.00446293
C        8.62698258       2.11290238       4.08947086      -0.00002134      -0.00702632      -0.00631906
C        7.41631852       4.26612383       3.93543490       0.00325702       0.00470047       0.00258055
C        6.21962065       6.41221469       3.55009185      -0.00338003      -0.00057168       0.00625018
C        4.95218496       8.55985739       3.56232261       0.00947385      -0.00246117       0.00077513
C       -0.02017933       1.42511027       3.95896082      -0.00010631       0.00279395       0.00977648
C       -1.29310404       3.52529002       4.18231677       0.00817705      -0.00182510       0.00292711
C       -2.50402790       5.69912485       4.14104823       0.00662599      -0.00168941      -0.00032606
C       -3.70588561       7.84980775       3.93962229      -0.00700256      -0.00392885      -0.00611765
C       -4.93259334       9.99723841       3.83990903       0.00689091       0.00078454      -0.01035453
C        2.46630426       1.46992982       3.69355051      -0.00622832       0.00792579       0.00286900
C        1.07613636       3.54616304       3.67564564      -0.01037467       0.01027350      -0.00695781
C       -0.11081650       5.65758807       3.89690510       0.00104507      -0.00325145       0.00356401
C       -1.24591836       7.84442887       3.91313523      -0.00505730       0.00249405      -0.01272167
C       -2.47320960       9.99539137       3.84261639       0.00116156      -0.00856086       0.00127402
C        4.95162484       1.42717954       3.73788985      -0.00067638       0.00245061      -0.00309508
C        3.84768057       3.54031381       3.29389674      -0.00900062       0.00604883       0.01495834
C        1.22964532       7.84863746       3.56010761      -0.00127125      -0.00428801       0.00793426
C       -0.00346123       9.96648041       3.83067540       0.00110162       0.00424231       0.00336035
C        7.40719431       1.39869471       3.96380752       0.00259000      -0.00370143      -0.00357555
C        6.22476258       3.53456299       3.72116208       0.00217300       0.00420634       0.00799193
C        5.13201571       5.65202166       3.11044634      -0.01361669       0.00623531      -0.00576113
C        3.72743226       7.92559675       3.23914828       0.00976370      -0.00271684      -0.00761516
C        2.47088701       9.95419154       3.79964532      -0.00302335       0.00172305      -0.00266145
C        9.85199569       1.39348137       4.08582417       0.00014108      -0.00069140      -0.00166039
C        8.62053943       3.54415560       4.12518012       0.00176386      -0.00646545       0.01276547
C        7.41522759       5.69474762       3.88221041      -0.00216127       0.00720140       0.00120529
C        6.18627639       7.84717530       3.61466843       0.00679348      -0.00377976       0.00051326
C        4.93512514       9.96904566       3.82784440      -0.00322615       0.00071821      -0.00924111
Au       2.38238336       4.86458236       2.98803535      -0.00019484       0.00061240      -0.00364892
