49
Lattice="12.336457 0.0 0.0 -6.168228499999997 10.683685154694365 0.0 0.0 0.0 15.0" Properties=species:S:1:pos:R:3:forces:R:3 energy=-432.1507881172155 free_energy=-432.1507881172155 stress="-0.003875039596974089 0.0016261269679141508 1.4836947045206893e-06 0.0016261269679141508 0.000734730540434321 -6.851459926093292e-06 1.4836947045206893e-06 -6.851459926093292e-06 -3.6900826816736753e-07" pbc="T T T"
C        0.01021950       0.00323118       3.78730787       0.00634400       0.00066225       0.00135322
C       -1.22661649       2.12760740       3.81773056      -0.00593715       0.00488831      -0.00261310
C       -2.49601111       4.27120055       3.62294461       0.00039766       0.00231113       0.01028814
C       -3.72322743       6.41703965       3.52686299      -0.00546187      -0.00026380      -0.00285017
C       -4.93454020       8.55711878       3.62565963      -0.00394101       0.00335792      -0.00026999
C        2.48181919       0.03377433       3.68341138       0.00035087      -0.00120822       0.00240582
C        1.26923041       2.14888364       3.98320192      -0.00190651      -0.00159291       0.00329997
C       -0.10229446       4.29073221       4.01130283       0.00167860       0.00361166       0.00430717
C       -1.28365435       6.42760121       3.73026736       0.00125845      -0.00594966       0.00979576
C       -2.47618139       8.56102110       3.62143410      -0.00303604      -0.00292248       0.00441417
C        4.93978192      -0.00156117       3.62952916      -0.00476358       0.00242622      -0.00545502
C        3.75414182       2.13202614       3.58689476       0.00440999       0.00079293       0.00284401
B        1.17122810       6.41101565       4.25353402       0.00256609       0.00050125       0.00774012
C       -0.01013591       8.55304181       3.81023267       0.00043406      -0.00620016       0.00230668
C        7.41786228      -0.01716495       3.70541148      -0.00738094      -0.00062310      -0.00175889
C        6.19036377       2.11651338       3.50215246       0.00325353      -0.00238055       0.01210820
C        4.97069010       4.22899525       3.48102590       0.00174173       0.00009920      -0.00274685
C        3.77315044       6.36114836       4.07401435       0.01300501       0.00136868       0.00523028
C        2.47756066       8.52723519       3.96525294       0.00020896       0.00338441      -0.00129095
C        9.88003887      -0.01517042       3.78415055       0.00865775      -0.00552726       0.00683803
C        8.64971574       2.12266165       3.61100166      -0.00215613      -0.00271188       0.00216805
C        7.39964184       4.27032315       3.47094826      -0.00349585      -0.00380104       0.00903504
C        6.15141999       6.39682432       3.55647629       0.00333588       0.00840657      -0.00412506
C        4.94182467       8.52547498       3.79631178       0.00002567      -0.00234924       0.00640468
C        0.02483336       1.43773732       3.88236523      -0.00424327       0.00317790      -0.01642171
C       -1.27089502       3.54940997       3.80048676       0.00316391       0.00603576      -0.00450147
C       -2.50709805       5.70084139       3.59592484      -0.00210501       0.00053843      -0.00494281
C       -3.71054009       7.84511927       3.57373686      -0.00631683       0.00063570      -0.00706613
C       -4.92367948       9.98699935       3.70567722       0.00225911       0.00070137      -0.00768270
C        2.50391686       1.47148578       3.76120228       0.00115091      -0.00087825      -0.00440221
B        1.18846423       3.60906838       4.34445687      -0.00992404      -0.00137382       0.00187520
C       -0.11452905       5.69327462       3.96386021       0.00510738       0.00162306       0.00689322
C       -1.25027024       7.85130513       3.71385895      -0.00115430      -0.00629573       0.00898398
C       -2.46754538       9.98980270       3.63508620      -0.00224902      -0.00075882      -0.00692429
C        4.95612559       1.42023942       3.55920157       0.00415298       0.00244425       0.00073685
O        3.81125219       3.48228750       3.36196002       0.00166617       0.00027528      -0.00159914
C        1.22734961       7.87256166       4.00972479       0.00479219      -0.00621657      -0.01013019
C        0.00437167       9.96983476       3.70355201      -0.00773548      -0.00313003      -0.00551376
C        7.41630915       1.40885288       3.58866568      -0.00152358      -0.00252077       0.00527045
C        6.17712808       3.54018856       3.44852865      -0.00207511      -0.00508218       0.00799594
C        4.91188751       5.65731321       3.65483301       0.00706182       0.00501537      -0.01107151
C        3.70860891       7.76783923       3.96102988       0.00067118       0.00140787       0.01016047
C        2.48241014       9.95159454       3.81389298      -0.00049337       0.00387819      -0.00473465
C        9.88084002       1.41033155       3.72759912      -0.00132903      -0.00398242      -0.00661923
C        8.62860888       3.55151087       3.54441473       0.00097723      -0.00121388      -0.00272190
C        7.38235915       5.69388548       3.48464665      -0.00424569      -0.00084699      -0.00076486
C        6.16506488       7.82595091       3.65462391      -0.00137950       0.00607448      -0.00608523
C        4.94474426       9.95723917       3.79637210       0.01095765      -0.00508293      -0.00760168
Au       2.48164816       5.08430207       5.03195951      -0.00677544       0.00929450      -0.00256196
