49
Lattice="12.336457 0.0 0.0 -6.168228499999997 10.683685154694365 0.0 0.0 0.0 15.0" Properties=species:S:1:pos:R:3:forces:R:3 energy=-427.4167505843542 free_energy=-427.4167505843542 stress="0.0010586437416658019 -0.004606548149121257 4.326928220499215e-06 -0.004606548149121257 -0.00350147027486953 7.81874198993727e-07 4.326928220499215e-06 7.81874198993727e-07 -2.8280545681984365e-06" pbc="T T T"
C       -0.00317484      -0.02778182       3.68835469      -0.00326922      -0.00207228      -0.00070186
C       -1.26131099       2.10360710       3.62520570      -0.00257881      -0.00800202       0.00260283
C       -2.48609972       4.25357139       3.68333262      -0.00302701       0.00188327      -0.00650456
C       -3.69920210       6.38563599       3.76959559       0.00347176       0.00186171      -0.00063542
C       -4.92535732       8.52242538       3.78872292       0.00195759       0.00605907      -0.00263271
C        2.45536280      -0.01866275       3.67974612      -0.00465308      -0.00849053      -0.00461147
C        1.17759255       2.08615037       3.61916250       0.00181816      -0.00301920      -0.00950253
C       -0.04338065       4.16299469       3.75847060       0.00494008       0.00689889       0.00027210
C       -1.18794175       6.34670043       3.81348562      -0.00401155       0.00462204      -0.00567941
C       -2.44760764       8.50948580       3.77752431       0.00437856      -0.00210586       0.00593914
C        4.92345370      -0.02080172       3.64350184      -0.00008669       0.00456549      -0.00093136
C        3.65896940       2.09474882       3.33760891      -0.00745715       0.00188874       0.00525210
P        1.64339966       6.19399253       4.20599721      -0.00658064       0.00055071      -0.00008363
C        0.01309417       8.52628211       3.85362484       0.00115441      -0.01174544      -0.00244017
C        7.38062187       0.00776579       3.68448148      -0.00301368       0.00651509       0.00820121
C        6.13127291       2.14050651       3.50513967       0.00021265       0.00142758       0.00920341
C        4.91506181       4.31269962       3.49719715      -0.00617094      -0.00807783      -0.00557852
C        3.64626737       6.44523653       4.13476451       0.00040090       0.00511615       0.00628294
C        2.48675512       8.59661511       3.89464061      -0.00013874       0.00716010      -0.00514799
C        9.86163677       0.00134405       3.69352664       0.00306579      -0.00101724      -0.00522404
C        8.60546843       2.13193343       3.61898111      -0.00011312       0.00395642      -0.01787857
C        7.37645169       4.26975606       3.65338383      -0.00696524      -0.00632954       0.00554714
C        6.14148093       6.40148257       3.80726290       0.00631279      -0.00030888       0.00653692
C        4.94306242       8.54499628       3.82011711       0.00216135       0.00055424      -0.00091919
C       -0.02277015       1.39427892       3.62829790       0.00035915      -0.00576582       0.00996349
C       -1.26202813       3.51292783       3.65730807       0.00033309      -0.00409724       0.00363540
C       -2.45429885       5.66854480       3.75166788       0.00038348       0.00320306       0.00209970
C       -3.68915096       7.80763577       3.78782119       0.00367780       0.00235297       0.00093453
C       -4.93474611       9.94781802       3.73265507      -0.00461873       0.00041345       0.00151663
C        2.42711846       1.40761165       3.55332967      -0.00533659      -0.01286774      -0.00444807
O        1.14227594       3.44786790       3.82548805       0.01382797       0.00573976      -0.00413302
C        0.03211448       5.56013615       3.84108173       0.00492748       0.01283279      -0.00316970
C       -1.20476363       7.78576462       3.82569087       0.00184119      -0.00524592      -0.00257096
C       -2.46964360       9.94159050       3.70575893       0.00093406      -0.00154652       0.00714842
C        4.90288043       1.41252004       3.48326640      -0.00205669       0.00915680      -0.00219233
P        3.59741789       3.66512338       2.57359220       0.00847124      -0.00162560      -0.00009216
C        1.27980428       7.88112349       3.98115970       0.00388792      -0.00314932       0.00664089
C       -0.00967996       9.95938033       3.72856939      -0.00338268      -0.00430553       0.00487158
C        7.36754036       1.42870043       3.59760345       0.00199679       0.00555962      -0.00474749
C        6.13687707       3.56563039       3.54010392      -0.00188831      -0.00789540       0.00734143
C        4.87475633       5.71212403       3.79029545       0.00182246      -0.00079961       0.00340322
C        3.70580886       7.85650819       3.92143309      -0.00179887       0.00420607       0.00019117
C        2.45830938      10.00259711       3.75033519       0.00024813       0.00682791      -0.01379259
C        9.84858563       1.41709525       3.63323549      -0.00271469      -0.00127143       0.00765166
C        8.60784136       3.55384039       3.64415264      -0.00538630       0.00311631      -0.00105224
C        7.38594242       5.68922386       3.74295911       0.00257292      -0.00476420       0.00293197
C        6.17451894       7.82219961       3.82570023       0.00385960       0.00364832      -0.00552988
C        4.93018637       9.96298989       3.73052549      -0.00049276      -0.00070946      -0.00020007
Au       2.74661995       5.80463229       6.14885998      -0.00327581      -0.00490394       0.00223207
