49
Lattice="12.336457 0.0 0.0 -6.168228499999997 10.683685154694365 0.0 0.0 0.0 15.0" Properties=species:S:1:pos:R:3:forces:R:3 energy=-439.3691003825121 free_energy=-439.3691003825121 stress="-0.017902325363384503 -1.8428402356434938e-06 -2.0767388872145727e-07 -1.8428402356434938e-06 -0.003502232504090752 2.2757830215466992e-07 -2.0767388872145727e-07 2.2757830215466992e-07 2.5737853932517715e-07" pbc="T T T"
C       -0.00340581       0.00939279       3.74586016      -0.00111026       0.01331978       0.00851750
C       -1.26146459       2.10785294       3.73398155      -0.01315010      -0.00465082      -0.00420455
C       -2.49880652       4.26590532       3.71880874      -0.00152220      -0.00960807      -0.00320055
C       -3.70143906       6.42799945       3.72819810       0.00621749       0.00781030      -0.01016542
C       -4.91888183       8.58378324       3.74443400      -0.00458349       0.00720946      -0.00244598
C        2.46670372       0.05748703       3.75706942       0.00270770      -0.00605430      -0.01611704
C        1.21089837       2.18121507       3.76832978       0.00631150      -0.00839089       0.00174393
C       -0.09598356       4.25956530       3.74670914       0.00471570       0.00734932       0.00403658
C       -1.29621646       6.43546367       3.72353881      -0.00658958       0.00240713       0.00082243
C       -2.48347686       8.58400462       3.73147174      -0.00151744       0.00380815       0.00762337
C        4.93706492       0.00994101       3.74446551      -0.00254251       0.00713662       0.01238757
C        3.72252495       2.18107564       3.78202074      -0.00288904      -0.00332454      -0.00599867
C        1.08566057       6.40801063       3.78312926      -0.00402375      -0.00157690      -0.00401430
C       -0.02421609       8.54208356       3.74530056       0.00270948      -0.00975439       0.00716818
C        7.40833609      -0.04133479       3.74776365      -0.00183139       0.00559724       0.00041228
C        6.19518865       2.10821765       3.75078673       0.00951170      -0.00986890       0.00480650
C        5.02987812       4.25994965       3.78564002      -0.00083510      -0.00215010       0.00170266
C        3.84796033       6.40758045       3.80563763       0.00752772       0.00920777      -0.00309773
C        2.46704550       8.48629885       3.77617028      -0.00546163       0.00690963      -0.00715152
C        9.86170950      -0.04108505       3.74835191       0.00520358      -0.00591228       0.00218630
C        8.63495809       2.10381400       3.73511333       0.00359484       0.00080365      -0.01227926
C        7.43287703       4.26540141       3.73805194      -0.00345149       0.00379051       0.00603988
C        6.23060731       6.43556555       3.75928062       0.00084207      -0.00291008       0.00014725
C        4.95778774       8.54174502       3.76241084       0.00439000      -0.00631010       0.00906839
C       -0.02389759       1.42439861       3.74638571      -0.00511862       0.00753550       0.01004810
C       -1.29673859       3.53096329       3.72610464       0.00458828      -0.00196018      -0.00153102
C       -2.49871802       5.70106252       3.71770544      -0.00013021      -0.00756336       0.00167365
C       -3.70120371       7.86206851       3.73454491      -0.00062686       0.00798393      -0.01137874
C       -4.92802210      10.00743573       3.74834357       0.00057877       0.00445475       0.00596983
C        2.46659395       1.48039768       3.77439420       0.00412642      -0.01041867      -0.00981629
C        1.08565186       3.55903059       3.78076536      -0.00330507      -0.00919821       0.00082701
C       -0.09560223       5.70646088       3.74653625      -0.00286677       0.01001462       0.00385891
C       -1.26174619       7.85861217       3.72997216      -0.00168335       0.00300447      -0.00030520
C       -2.47478162      10.00778384       3.74390189       0.00176715      -0.00004792       0.00263087
C        4.95762826       1.42473207       3.75843653      -0.00024160       0.00628141       0.00788611
C        3.84807044       3.55872874       3.80411900       0.00185606      -0.00085597       0.00046665
C        1.21095087       7.78582300       3.77061149       0.00458100      -0.00201979      -0.00621455
C       -0.00344138       9.95677276       3.74322996      -0.00365724      -0.00634439       0.00694534
C        7.41672064       1.38241901       3.74208795       0.01421972      -0.00203798       0.00225544
C        6.23047735       3.53124922       3.75752966       0.00019474      -0.00660788      -0.00471374
C        5.02994785       5.70682287       3.78606155      -0.00064265      -0.00002552       0.00696316
C        3.72275784       7.78525115       3.78398333      -0.00463412       0.00822023      -0.00019686
C        2.46693836       9.90909251       3.75839661      -0.00211196       0.00636827      -0.00972191
C        9.85317948       1.38245345       3.73635155      -0.00902352      -0.00416560      -0.00065651
C        8.63534649       3.53797335       3.72700327      -0.00519380      -0.00075395      -0.00316238
C        7.43266725       5.70049517       3.73989690       0.00065958       0.00631408      -0.00317324
C        6.19577429       7.85872832       3.75471032       0.00054360      -0.00554113       0.00014989
C        4.93693394       9.95646431       3.74985005       0.00482698      -0.00394267       0.00480850
Au       2.46659574       4.98339638       3.83127280      -0.00293034      -0.00353224      -0.00160084
