50
Lattice="12.336457 0.0 0.0 -6.168228499999997 10.683685154694365 0.0 0.0 0.0 15.0" Properties=species:S:1:pos:R:3:forces:R:3 energy=-436.78850072519157 free_energy=-436.78850072519157 stress="-0.0008999261150416769 1.959897339899297e-05 -1.7171641854775466e-06 1.959897339899297e-05 -0.0024247422733332373 2.5148479321557462e-05 -1.7171641854775466e-06 2.5148479321557462e-05 1.0600183663589613e-06" pbc="T T T"
C       -0.00045139       0.00351780       3.80473720      -0.00643091      -0.00313293      -0.00415104
C       -1.23100181       2.13959133       3.94190151      -0.00024163      -0.00532970       0.00443348
C       -2.46439864       4.27623953       3.97041185       0.00475548       0.00432792      -0.00257303
C       -3.70150079       6.41124802       3.88103354      -0.00287622       0.00210752       0.00802192
C       -4.94618143       8.53940276       3.75033455       0.00253643       0.00398844      -0.00848087
C        2.46644948      -0.00716061       3.82803036       0.00037379      -0.00167484       0.00049488
C        1.23982089       2.13420363       3.86585251      -0.00383760      -0.00508136       0.00563660
C        0.01100605       4.27416365       3.79012580      -0.00095727       0.00305895      -0.00443353
C       -1.24554915       6.40883209       3.67014975       0.01122286       0.00235974       0.00403933
C       -2.45775086       8.53945286       3.74706492       0.00006772       0.00352588      -0.00426944
C        4.93354856       0.00302475       3.80794549       0.00664729       0.00050869      -0.00726410
C        3.69371907       2.13361460       3.87280008       0.00258761      -0.00371596       0.00044985
N        2.46631231       4.19596610       4.10592741      -0.00190980      -0.00425482       0.00538356
S        1.11362034       6.36271112       2.42410267      -0.01636633       0.00500207      -0.00054672
C       -0.00351110       8.56555749       3.48487461      -0.00743580      -0.00350245       0.00015969
C        7.40021858       0.01596237       3.75348013      -0.00042274       0.00316559       0.00032952
C        6.16457217       2.13893001       3.94966598       0.00001240      -0.00351296       0.00294124
C        4.92243244       4.27333684       3.80039783       0.00193765       0.00225977      -0.00377937
S        3.81654178       6.35880680       2.43745059       0.01295191       0.00733751      -0.00115983
C        2.46630161       8.61497046       3.24597596      -0.00035988      -0.00911393       0.00570234
C        9.86944820       0.01613395       3.75199952      -0.00143936       0.00323323       0.00270711
C        8.63500285       2.14115188       3.97137319      -0.00028044       0.00418555      -0.01081489
C        7.39786088       4.27630540       3.97483735      -0.00289820      -0.00085160      -0.00016580
C        6.17812756       6.40873564       3.67916213      -0.00903043       0.00154721       0.00044562
C        4.93585352       8.56480422       3.49055715       0.00872208      -0.00195921      -0.00130311
C       -0.00005138       1.42873290       3.87484091      -0.00324039      -0.00614638       0.00385501
C       -1.22425793       3.56503275       3.94664787       0.00295034      -0.00148798      -0.00084461
C       -2.47034643       5.69614945       3.88602781       0.00632509       0.00555384       0.00931556
C       -3.70188335       7.83052316       3.79817181       0.00080390       0.00417331       0.00459757
C       -4.93921190       9.96825293       3.79232208      -0.00350557       0.00137366      -0.01005338
C        2.46662492       1.41561898       3.85910417      -0.00044656      -0.00250771       0.00919280
C        1.27129045       3.56107378       3.88581642      -0.00403598      -0.00197567      -0.00187043
C       -0.07603918       5.64645200       3.44393231       0.01262718       0.00784785      -0.00946872
C       -1.22873494       7.83261356       3.60314795      -0.00264511      -0.00270204       0.00327583
C       -2.46444709       9.96814125       3.79248395       0.00511688       0.00272142      -0.00920308
C        4.93352450       1.42794844       3.88290855       0.00277885      -0.00205180      -0.00152187
C        3.66227665       3.56034674       3.89259007       0.00104967      -0.00125694      -0.00321741
C        1.21254637       7.94496283       3.12264764      -0.00481976      -0.00273125       0.00342532
C       -0.00035683       9.98772933       3.69644813       0.00105418      -0.00253076       0.00523372
C        7.40027307       1.43157227       3.91923462       0.00071111       0.00163387      -0.00758425
C        6.15783819       3.56455130       3.95485894      -0.00149720      -0.00330960      -0.00008390
C        5.00856833       5.64586901       3.45541497      -0.00985119       0.00698910      -0.00763300
C        3.71984092       7.94365869       3.12904225       0.00553982       0.00108330      -0.00026961
C        2.46651043      10.00364840       3.60746951      -0.00078542       0.00118148       0.01169984
C        9.86971450       1.43199550       3.91522176      -0.00169695       0.00127929      -0.00448783
C        8.63496630       3.56388313       4.00819926       0.00173923       0.00491374       0.00472858
C        7.40377544       5.69627467       3.89068883      -0.00871529       0.00061914       0.01055019
C        6.16098903       7.83223189       3.61007803       0.00463463      -0.00109692       0.00077040
C        4.93334271       9.98771119       3.69700436      -0.00206818      -0.00113883      -0.00006140
Au       2.46103527       5.45022912       6.04616500       0.00064813      -0.01491241      -0.00214871
