49
Lattice="12.336457 0.0 0.0 -6.168228499999997 10.683685154694365 0.0 0.0 0.0 15.0" Properties=species:S:1:pos:R:3:forces:R:3 energy=-428.86121261882175 free_energy=-428.86121261882175 stress="0.006465465971382126 0.002699927982994821 1.0990923114966294e-05 0.002699927982994821 0.0035896549507836773 5.153928743586362e-06 1.0990923114966294e-05 5.153928743586362e-06 -7.345058950154654e-06" pbc="T T T"
C       -0.00255252      -0.01375709       3.71429707      -0.00370048      -0.00287350       0.00383868
C       -1.21723948       2.14158548       3.67825679       0.00704389      -0.00459433       0.00122044
C       -2.44440591       4.27231035       3.65222668       0.00008212       0.00037326      -0.00444050
C       -3.70846565       6.38982776       3.66229059      -0.00068273       0.00118336       0.00385679
C       -4.96317448       8.51659797       3.71258104      -0.00601198       0.01213052       0.01136710
C        2.45377369       0.02088944       3.67044525       0.00027319       0.00027949      -0.00200049
C        1.21161378       2.14270369       3.69334760      -0.00322556       0.00065676      -0.00911707
C        0.02421518       4.25472247       3.71443427      -0.00299474       0.00564805      -0.00283611
C       -1.19097085       6.38272359       3.67162468       0.00570151      -0.00255793       0.01114959
C       -2.48335243       8.52630727       3.64857499      -0.00731411      -0.01427594       0.00433752
C        4.91652423      -0.01736980       3.60857231      -0.00159135      -0.00478695       0.00703021
C        3.72672438       2.12356520       3.65213343      -0.00647556      -0.00060265      -0.00413791
N        1.27863284       6.42632363       3.81258779       0.00676183       0.00859827       0.00469388
C       -0.01762990       8.52177886       3.65051376       0.00052012       0.00038527      -0.01241646
C        7.38963504      -0.00823129       3.61546185       0.00526530      -0.00911093       0.00087994
C        6.17068672       2.11295772       3.57386364      -0.00295292       0.00411300      -0.00540661
C        4.94991526       4.18715639       3.66701446       0.00210210       0.00267739      -0.00605515
P        3.27300372       6.18260646       4.30775345      -0.00929298       0.01321532      -0.00130403
C        2.43324582       8.56183584       3.76916191       0.00619311      -0.00144672      -0.00256187
C        9.86893242      -0.00192392       3.69067764      -0.00144325       0.00252418      -0.00807609
C        8.64442770       2.13173468       3.61401578      -0.00879083      -0.00042662      -0.00202330
C        7.40710961       4.25734965       3.60950230       0.00796230       0.00195907       0.00720739
C        6.10836795       6.35375351       3.73388765       0.00470726      -0.00470189      -0.01831652
C        4.90036491       8.51709398       3.82040201       0.00582866       0.00025973       0.01045439
C        0.01516932       1.42986524       3.69623457       0.00331673      -0.00805928       0.00221305
C       -1.19691234       3.56778407       3.68065240       0.00048153      -0.00232713      -0.00485132
C       -2.44302357       5.68778504       3.65603175       0.00188718       0.00106409       0.01093262
C       -3.72015437       7.81297251       3.67387635      -0.01413299       0.00119426       0.00351458
C       -4.94330032       9.95997230       3.70284508      -0.00193939       0.01061196       0.01018807
C        2.46244409       1.47147634       3.67376424      -0.00533232      -0.00020643      -0.00740382
O        1.18568773       3.52521483       3.70308548      -0.00508572       0.00404562       0.00378597
C        0.08770581       5.68772322       3.73192906       0.00794068       0.00542179      -0.00761756
C       -1.24079955       7.80863994       3.64859180       0.00083112      -0.00671881       0.00845375
C       -2.48871428       9.96538020       3.64110887      -0.00231058      -0.01194990       0.00293024
C        4.92203113       1.41288158       3.59746332      -0.00527741       0.00050362       0.00112514
O        3.76283941       3.49350113       3.72277478       0.00042114      -0.00028329      -0.00486110
C        1.20875080       7.79820604       3.73113031       0.00338187       0.00787583      -0.00425509
C       -0.01321929       9.95207550       3.61652305       0.00317841      -0.00170200      -0.00539774
C        7.39934610       1.41500356       3.58942095      -0.00658012      -0.00660416      -0.00113030
C        6.17557746       3.52296278       3.58098522       0.00421988       0.00818921       0.00420797
C        4.88186966       5.58357830       3.76434040       0.00380020       0.00048201       0.00539769
C        3.63130036       7.85445529       3.91989320       0.00855682       0.00434450      -0.00153086
C        2.45346989       9.97943919       3.67533597       0.00636491      -0.00657437      -0.00319837
C        9.88657555       1.42797902       3.65582392      -0.00273418       0.00299738      -0.00010770
C        8.65153749       3.55550748       3.61734774      -0.00031247       0.00010005      -0.00180583
C        7.38169822       5.67417486       3.66337396       0.00732525      -0.00075683      -0.01288882
C        6.13107811       7.79380692       3.77048446       0.00466764      -0.00150305       0.00502271
C        4.92497624       9.95550555       3.74185339      -0.00300420      -0.00083102       0.00500337
Au       3.03207763       5.86011642       6.55622235      -0.00762889      -0.00794027       0.00492955
