50
Lattice="12.336457 0.0 0.0 -6.168228499999997 10.683685154694365 0.0 0.0 0.0 15.0" Properties=species:S:1:pos:R:3:forces:R:3 energy=-442.40066558053877 free_energy=-442.40066558053877 stress="0.0038160735299648044 -3.156288409843362e-06 1.017902796073235e-05 -3.156288409843362e-06 0.00469155562127521 -3.8603438395551017e-07 1.017902796073235e-05 -3.8603438395551017e-07 -4.763010748999613e-06" pbc="T T T"
C       -0.00598685       0.01207724       3.66050296       0.00733666       0.00527774       0.00107004
C       -1.22977736       2.15919032       3.70209977      -0.01092268      -0.00317210      -0.00819882
C       -2.45671894       4.28581688       3.72075145       0.00020440      -0.00418218       0.00618422
C       -3.70212617       6.41728209       3.71333067       0.00114049       0.00163842      -0.00484833
C       -4.94306860       8.55410918       3.67642765       0.00248427       0.00771632      -0.00045997
C        2.46626265       0.01307446       3.67663582      -0.00073267      -0.00781080      -0.01534407
C        1.23659898       2.15797321       3.72861988       0.00396782       0.00312994       0.00589858
C        0.04322010       4.32624596       3.77575920      -0.00043413       0.00169456       0.00975818
C       -1.22469607       6.42227436       3.70619620       0.00491727       0.00340614      -0.00540466
C       -2.46103092       8.55418574       3.67667945       0.00068697       0.00293138      -0.00234992
C        4.93864670       0.01189877       3.66425244      -0.00857435       0.00521902      -0.00253474
C        3.69582979       2.15767691       3.73113014      -0.00026651       0.00583921       0.00496101
N        2.46593201       4.15811667       4.27169203      -0.00170760      -0.01114042      -0.00046975
O        1.16749228       6.44597410       3.59133056      -0.00549221       0.00108474      -0.00189516
C        0.01006029       8.54253960       3.63483538       0.00347959      -0.00790226       0.00527305
C        7.40998292      -0.00455332       3.64480702      -0.00550799       0.00028103       0.00370742
C        6.16232204       2.15898427       3.70684457       0.01047897       0.00145364      -0.00899696
C        4.88912093       4.32647526       3.78120996       0.00305569      -0.00412131       0.00706964
O        3.76485272       6.44643928       3.60326780       0.00337016       0.00010030      -0.01181492
C        2.46633120       8.48019362       3.59704778      -0.00208826       0.00164579      -0.00338964
C        9.85898958      -0.00461783       3.64289234       0.00713996       0.00269275       0.00398566
C        8.63460420       2.14672465       3.68553849      -0.00329514       0.00094972       0.00947139
C        7.38891714       4.28592026       3.72466878       0.00220423      -0.00716081       0.00276457
C        6.15704519       6.42259894       3.71179372      -0.00291571      -0.00006862      -0.00970591
C        4.92260901       8.54272015       3.63504568      -0.00387745      -0.00533137       0.00683185
C       -0.00096376       1.44418433       3.68732436      -0.00154569       0.00576596      -0.00609970
C       -1.20222669       3.59500338       3.73336455      -0.00245143      -0.00466736      -0.00506252
C       -2.46395829       5.70394749       3.72019713       0.00494243      -0.00101726       0.00428341
C       -3.70208477       7.84291436       3.69192432       0.00200868       0.00591582      -0.00406882
C       -4.93914740       9.98417721       3.66757806       0.00183641       0.00200054       0.00011819
C        2.46612433       1.43879063       3.70886973       0.00204326      -0.00680060      -0.00912275
C        1.27966402       3.58361288       3.89221835       0.00181422       0.00655899       0.00966617
C       -0.00355384       5.73869073       3.70248550       0.00060488       0.00004756      -0.00055145
C       -1.23143574       7.84372288       3.67074718       0.00098125       0.00304589       0.00204417
C       -2.46473249       9.98422652       3.66945913      -0.00425786      -0.00116440      -0.00121323
C        4.93354964       1.44385703       3.69172947       0.00272566       0.00957979      -0.00683163
C        3.65288516       3.58330681       3.89454824      -0.00339881       0.00782352       0.00963977
C        1.20454925       7.81850078       3.59792423       0.00443409      -0.00579379      -0.00085528
C        0.00744580       9.97832229       3.64427816      -0.00870758      -0.00354767       0.00154313
C        7.40054078       1.43507799       3.67561790       0.00489308      -0.00153160       0.00994817
C        6.13453186       3.59498505       3.73869861       0.00583618      -0.00562267      -0.00682006
C        4.93610522       5.73899632       3.70994864      -0.00231687      -0.00730751      -0.00003751
C        3.72817051       7.81880191       3.60121941      -0.00897830      -0.00529873      -0.00210683
C        2.46620965       9.93399906       3.62560167       0.00176144       0.00798622      -0.00560184
C        9.86861261       1.43503776       3.67279949      -0.00885911      -0.00038572       0.01142453
C        8.63437532       3.57202025       3.71107200      -0.00046834      -0.00273530       0.00212657
C        7.39613446       5.70408165       3.72390306      -0.00093106      -0.00368151       0.00228426
C        6.16383889       7.84384847       3.67268676       0.00175951       0.00495980       0.00176145
C        4.92517777       9.97842146       3.64184450       0.00940275      -0.00018673       0.00050389
Au       2.47305410       5.11685793       6.30125908      -0.00778055       0.00188593       0.00146517
