49
Lattice="12.336457 0.0 0.0 -6.168228499999997 10.683685154694365 0.0 0.0 0.0 15.0" Properties=species:S:1:pos:R:3:forces:R:3 energy=-427.7952623532276 free_energy=-427.7952623532276 stress="-0.011640781219389308 -0.0004647104009962404 -1.4641995133018208e-06 -0.0004647104009962404 -0.0018563708738973568 -5.281442355208466e-06 -1.4641995133018208e-06 -5.281442355208466e-06 1.5020327772012512e-06" pbc="T T T"
C       -0.00799537       0.01106869       3.76071715      -0.00367687      -0.00491462      -0.00711811
C       -1.25710827       2.12306942       3.70343194       0.00634859       0.00160933      -0.00163666
C       -2.48536412       4.27271596       3.76036473      -0.00108427       0.00179613       0.01179122
C       -3.69588409       6.42437183       3.80759524       0.00141631      -0.00395178      -0.00288485
C       -4.93390671       8.57006010       3.86091142      -0.00200277       0.00053976      -0.00780571
C        2.45537458       0.03146247       3.66875388       0.00873264      -0.00393096      -0.01107808
C        1.19144164       2.17409518       3.53997289       0.00227339       0.00141419      -0.00559420
C       -0.06919764       4.25685261       3.72200522      -0.00801775       0.00497410       0.00577322
C       -1.26975907       6.42309896       3.84648768      -0.00204609      -0.00508176      -0.00439283
C       -2.47868338       8.56542029       3.80829308       0.00268397      -0.00600671       0.00521622
C        4.92950906      -0.00569993       3.66641020       0.00353944       0.01134768       0.00499594
C        3.70436287       2.06263610       3.19159708      -0.00795529       0.01782881       0.00211841
N        1.09773574       6.41723781       3.93974131      -0.00231942      -0.00067969       0.01158927
C       -0.01606918       8.53326146       3.89202345       0.00112696      -0.00419884      -0.00061729
C        7.39634701      -0.02561070       3.76951226      -0.00927798      -0.00348845      -0.00093482
C        6.17797741       2.11783825       3.51232214       0.00090183      -0.01049919       0.00033391
C        5.08136529       4.33043309       3.35685691      -0.00685907      -0.00043905      -0.00684455
P        3.84679697       6.28195670       5.04744184       0.00726318      -0.00103638      -0.00621807
C        2.45618859       8.51263612       4.05809125       0.00425629       0.00828765      -0.00417444
C        9.85379984      -0.01991788       3.82832485      -0.00707522      -0.00227259       0.00245447
C        8.62642194       2.11991954       3.71432042       0.00111172      -0.00031998      -0.00550818
C        7.43341874       4.27289757       3.70139329      -0.00452616      -0.00192747       0.00208376
C        6.22097499       6.42801044       3.87478466       0.00340512       0.00802928      -0.00428030
C        4.93877691       8.56026124       4.03930788       0.00187259      -0.00384947      -0.00415438
C       -0.01799684       1.43498400       3.65847873       0.00456768      -0.00095684       0.00242453
C       -1.27484208       3.54418974       3.72416906      -0.00335368       0.00278902       0.00059994
C       -2.48305028       5.69793931       3.79911760       0.00026162      -0.00436611       0.01613951
C       -3.70390900       7.85288828       3.82848976      -0.00295150      -0.00280261      -0.00701607
C       -4.93827793       9.99694615       3.77871919       0.00139165      -0.00081316      -0.00837142
C        2.45636691       1.45672239       3.46780656       0.00048215      -0.00094319      -0.00819586
N        1.08834822       3.54289256       3.59449915       0.00191149       0.00450446      -0.00059844
C       -0.06502159       5.70643928       3.84365006      -0.00414731       0.00119120      -0.00068575
C       -1.25197277       7.84595186       3.85492555       0.00239800      -0.00787066       0.01806961
C       -2.48042746       9.99139804       3.72057809       0.01186720       0.00095038       0.00190133
C        4.93629823       1.41133206       3.46010854      -0.00606938       0.00852527       0.00131490
S        3.82102325       3.60469878       2.36927498       0.00969878      -0.01282965       0.00129322
C        1.19513006       7.79011813       3.99337830       0.00378617       0.00534795       0.00119662
C       -0.00685146       9.95743857       3.78678552      -0.00492204      -0.00249382       0.00648360
C        7.39235360       1.40485962       3.66750762       0.00112131      -0.00775940       0.00364791
C        6.22056075       3.54593773       3.52902876      -0.00258266      -0.00662403      -0.00958881
C        5.04220657       5.65094124       3.87903228      -0.00622209       0.00946986      -0.00659321
C        3.70661653       7.88695047       4.27068212       0.00282247       0.00266866       0.00020487
C        2.45301445       9.93988530       3.88039380      -0.00921186       0.00495593       0.00162041
C        9.85256498       1.40472425       3.74642946       0.00252357       0.00019119       0.00190940
C        8.63802777       3.54703022       3.72902476      -0.00193397       0.00272734      -0.00003443
C        7.43351519       5.70140847       3.77778797       0.00089544      -0.00071736       0.00961006
C        6.18434196       7.85549194       3.96451822       0.00299827       0.00209914      -0.00101455
C        4.92926602       9.97737093       3.87157210      -0.00626447      -0.00499394       0.00199766
Au       2.55358451       4.99193452       3.68810062       0.01084202       0.00452037       0.00057102
