49
Lattice="12.336457 0.0 0.0 -6.168228499999997 10.683685154694365 0.0 0.0 0.0 15.0" Properties=species:S:1:pos:R:3:forces:R:3 energy=-428.3461520186274 free_energy=-428.3461520186274 stress="-0.00016413820765326652 -0.0017505079382891188 3.6660072728677605e-06 -0.0017505079382891188 0.005737046874303459 3.0402193072571422e-06 3.6660072728677605e-06 3.0402193072571422e-06 1.0300967005765243e-07" pbc="T T T"
C       -0.01032471       0.02737873       3.56226205       0.00557035      -0.00072335       0.00134990
C       -1.25586725       2.15717620       3.57267028      -0.00343535       0.00319200       0.00079431
C       -2.47382547       4.29385081       3.57380804      -0.00326626       0.00046232       0.00906145
C       -3.69353402       6.43517638       3.56464598      -0.00168655      -0.00124669       0.00000047
C       -4.92762083       8.58310794       3.54379572       0.00054938       0.00343115      -0.00142472
C        2.44762262       0.05037209       3.59633960       0.00237427       0.00045652       0.00309289
C        1.18105034       2.18835734       3.63130296      -0.00390901      -0.00397712       0.00076259
C       -0.03295023       4.29480621       3.54118228       0.00330618      -0.00362109      -0.00478609
C       -1.22472284       6.40964377       3.53660482       0.00741633       0.00151657      -0.00414044
C       -2.45946633       8.56928775       3.55882129      -0.00740382      -0.00251779      -0.00257272
C        4.92739797       0.01715185       3.71013188      -0.00036407      -0.00368860       0.00166719
C        3.66227275       2.12635462       3.99898907       0.00830094      -0.00358656       0.00403603
O        1.16856197       6.42320217       3.53508319      -0.00457510       0.00196101       0.00699336
C        0.00221786       8.53673996       3.61473652       0.00569330       0.00502835       0.00140552
C        7.39416672      -0.00843126       3.70429061      -0.00321841       0.00470801      -0.00337999
C        6.15425848       2.15826525       3.86584474       0.00443817       0.00359045       0.00062381
C        4.98848869       4.36887586       4.08708896      -0.00712727      -0.00415115       0.00010609
N        3.78613771       6.45700175       3.99615987      -0.00275327      -0.00690953       0.00405943
C        2.44176618       8.48549582       3.68173826      -0.00203838      -0.00243265       0.00605450
C        9.84577592      -0.00931226       3.63190607      -0.00297752      -0.00104326       0.00188448
C        8.61734434       2.14574659       3.67533701      -0.00234377      -0.00668244      -0.00434394
C        7.40387462       4.29772280       3.71932611       0.00437799      -0.00026377      -0.00259693
C        6.19896590       6.46197579       3.68582751       0.00633219       0.01086140      -0.00426244
C        4.93163633       8.55556158       3.63283924      -0.00156438       0.00620767       0.00494330
C       -0.01608571       1.46360069       3.57063623      -0.00464639      -0.00085385       0.00491810
C       -1.23923981       3.58844606       3.55406627      -0.00198846       0.00399409       0.00271945
C       -2.46444894       5.70839482       3.54998081       0.00287272       0.00199486       0.00252009
C       -3.69639423       7.86283342       3.54202684      -0.00705575      -0.00292545      -0.00493124
C       -4.94220670      10.01244212       3.54570380       0.00630100       0.00016501       0.00111474
C        2.42013200       1.48013884       3.71851848       0.00290198       0.00048888       0.00129165
O        1.15264852       3.57470570       3.56407002      -0.00297261      -0.00653491      -0.01091848
C       -0.01643658       5.70687794       3.53451007       0.00811909      -0.00289833      -0.01250631
C       -1.23291205       7.84063514       3.56178698       0.00335338       0.00638668       0.00594625
C       -2.47775350      10.00509919       3.61485451      -0.00291264      -0.00324930      -0.00058536
C        4.91769870       1.44546544       3.87074970       0.00759272      -0.00353413      -0.00027036
P        3.58679247       3.66968896       4.77750663      -0.01014767      -0.00003021       0.00480990
C        1.20222075       7.80187418       3.61828715       0.00249354      -0.00804296      -0.00460082
C       -0.00356972       9.97425438       3.67909564       0.00047079       0.00206982       0.00463349
C        7.38448261       1.43380084       3.74799718      -0.00284337       0.00126979       0.00006556
C        6.16622759       3.59651780       3.89256327       0.00180814       0.00511938      -0.00157238
C        4.95295303       5.80365062       3.91411972       0.00211783       0.00272106       0.00362846
C        3.71536842       7.78396063       3.75997253      -0.00293965       0.00085503       0.00082607
C        2.44882873       9.92822167       3.67139241      -0.00630496       0.00001343      -0.00815821
C        9.85398614       1.43201289       3.61929556      -0.00267576      -0.00233930      -0.00581908
C        8.62360262       3.57684627       3.64975909      -0.00059542      -0.00797106      -0.00039342
C        7.41161399       5.72612561       3.64793499       0.00149831       0.00059948      -0.00363305
C        6.18174387       7.87034057       3.60143769       0.00039222       0.00900304      -0.00510101
C        4.92021359       9.97919970       3.59279410       0.00261923       0.00385200       0.00964808
Au       2.95470081       3.88790792       6.93492786       0.00084580      -0.00072446      -0.00296020
