49
Lattice="12.336457 0.0 0.0 -6.168228499999997 10.683685154694365 0.0 0.0 0.0 15.0" Properties=species:S:1:pos:R:3:forces:R:3 energy=-428.08934977560347 free_energy=-428.08934977560347 stress="-0.005782885978336127 0.000257345793581073 -3.229173061818401e-06 0.000257345793581073 -0.00020877792526706826 -5.859353825342344e-06 -3.229173061818401e-06 -5.859353825342344e-06 -2.1308559408096488e-07" pbc="T T T"
C        0.00400667       0.00955972       3.77547000       0.00507852       0.00781132       0.00105127
C       -1.25465511       2.11339486       3.98171068      -0.00543362      -0.00098755       0.00820848
C       -2.50261527       4.26324242       3.96877956       0.00277590      -0.00762952       0.00017491
C       -3.69926143       6.41227695       3.74326740       0.00126635      -0.00103932       0.00111280
C       -4.93729299       8.55778874       3.62374373      -0.00059452       0.00102471       0.00208891
C        2.46533218       0.06005370       3.75339224       0.00398407      -0.01120503      -0.00072676
C        1.20713107       2.17926018       3.98539094       0.00495599       0.00310580      -0.01450476
C       -0.11329173       4.20778763       4.39732794      -0.00253320       0.00177453      -0.00372294
C       -1.28173629       6.40479647       4.21953702      -0.00203644      -0.00248364       0.00040523
C       -2.47533692       8.56111118       3.87413752       0.00412657       0.00425577      -0.00068142
C        4.92885802       0.00842132       3.72503338      -0.00221227       0.00026438      -0.00332107
C        3.72661293       2.18218701       3.54219453      -0.00958655       0.00587790       0.00101198
P        1.32411969       6.43591863       5.15486702      -0.00052183       0.00297128      -0.00301953
C       -0.01019507       8.55396886       4.01987346       0.00372872      -0.00767079      -0.00173562
C        7.39847216      -0.01156727       3.74742449      -0.00206958       0.00929277      -0.00121390
C        6.19017785       2.10924567       3.50446055      -0.00615404      -0.00067423      -0.00157517
C        5.04781546       4.21314655       3.11982843       0.00047645      -0.00263923       0.00280058
S        3.62011736       6.42173509       2.45667494       0.00241759      -0.00120172      -0.00681457
C        2.46615223       8.54745702       3.76003434       0.00149353      -0.00477903      -0.00948822
C        9.87132499      -0.01067923       3.74135229      -0.00540324      -0.00403084       0.00603792
C        8.63670319       2.12061232       3.73491389       0.00418817       0.00971503       0.00047482
C        7.44121315       4.26266663       3.50342629       0.00096615      -0.00468007       0.00785747
C        6.20965174       6.40421511       3.28888839      -0.00381347      -0.00451303      -0.00392479
C        4.94028124       8.54987771       3.48554250       0.00225306       0.00145144      -0.00142609
C       -0.00895483       1.42713494       3.93759108       0.00254493       0.00627303       0.00093563
C       -1.30648399       3.51800874       4.15378579      -0.00158902      -0.00325291       0.00505784
C       -2.49864143       5.69181680       3.98218781      -0.00015185      -0.00848056       0.00018227
C       -3.70364490       7.84393825       3.74660359       0.00344359       0.00421406       0.00172140
C       -4.92984775       9.99751998       3.72318573       0.00305157      -0.00099451      -0.00629977
C        2.46623060       1.50234274       3.76131893       0.00185143      -0.01043460      -0.00580907
N        1.07377880       3.52750587       4.25411074      -0.00971489      -0.00406225       0.00076363
C       -0.13793008       5.63420297       4.53734679       0.00278146       0.00439589       0.00611856
C       -1.25555316       7.84350360       4.07210749       0.00086479      -0.00305833       0.00010355
C       -2.47733451       9.99805016       3.77831563       0.00313542      -0.00082857       0.00407667
C        4.94319129       1.42626750       3.56463754      -0.01194840       0.00261226      -0.00529499
N        3.85923827       3.53771188       3.30737203      -0.00238999       0.00572831       0.00738996
C        1.24519347       7.88687761       4.12498328       0.00791131       0.00678870       0.00699352
C       -0.00813014       9.97202152       3.81075660      -0.00098730      -0.00208862      -0.00013844
C        7.40914932       1.40513725       3.65357402       0.00332069       0.01282919      -0.00160387
C        6.24412250       3.51652785       3.33251513      -0.00126133      -0.00368350       0.00490129
C        5.07727504       5.63047617       2.98121467      -0.00263439      -0.00720075       0.00322052
C        3.68402245       7.90297914       3.36749281       0.00265643       0.00029897       0.00621483
C        2.46803912       9.97067436       3.74679564      -0.00590390      -0.00239662      -0.00034496
C        9.86349267       1.40817956       3.82557594      -0.00410082       0.00076772      -0.00461989
C        8.63865246       3.54592838       3.73212944       0.00318105       0.00225827       0.00891120
C        7.43511314       5.69035383       3.50469910      -0.00204516      -0.00315608      -0.00152466
C        6.17882972       7.84000218       3.43117181      -0.00235963      -0.00224448      -0.00503359
C        4.94048204       9.97187159       3.68768052       0.00225397       0.00346741       0.00426557
Au       2.47351811       4.93303899       3.83029593       0.01073776       0.00823704      -0.00925677
