50
Lattice="12.336457 0.0 0.0 -6.168228499999997 10.683685154694365 0.0 0.0 0.0 15.0" Properties=species:S:1:pos:R:3:forces:R:3 energy=-440.65022607641316 free_energy=-440.65022607641316 stress="0.005500537826708379 3.86449025521062e-06 -1.6507315766011924e-07 3.86449025521062e-06 0.005484929121643928 -8.77017627076392e-08 -1.6507315766011924e-07 -8.77017627076392e-08 1.705925903051569e-06" pbc="T T T"
C       -0.01155990       0.00229928       3.64594638      -0.00618216       0.00309943       0.00063557
C       -1.23291162       2.14985516       3.62324424       0.00127142       0.01088046       0.00629831
C       -2.45831207       4.27290173       3.62232795       0.00291311       0.00109100       0.00228068
C       -3.70781080       6.40466572       3.64034620       0.00389364      -0.00090218       0.00604474
C       -4.94982994       8.54206855       3.65772016       0.00495243       0.00104191      -0.00564152
C        2.45996031       0.00921257       3.66128995       0.00053922      -0.00308118      -0.01013605
C        1.23474513       2.15683720       3.64755987      -0.00301603      -0.00679230      -0.01027315
C        0.05612473       4.30968587       3.62785894       0.00447808       0.00264588       0.01181867
C       -1.21868527       6.40695254       3.64311055      -0.01062769       0.00526957      -0.00406341
C       -2.46668874       8.54240253       3.65937684       0.00062286      -0.00059732      -0.01313443
C        4.93135328       0.00325023       3.63943223       0.00775446      -0.00482090       0.00346704
C        3.68564867       2.15725348       3.64060989       0.00314673      -0.00809691      -0.00381772
O        2.46052018       4.22169823       3.62406673      -0.00397025       0.00458757       0.00238384
O        1.18272984       6.43603908       3.62615342      -0.01538684       0.00578172       0.00656771
C        0.00595124       8.53007818       3.63748965      -0.00430597       0.00517551       0.00042907
C        7.40200788      -0.01280657       3.61313015       0.00812607      -0.00584033       0.01077095
C        6.15346479       2.15092503       3.61430128      -0.00068969      -0.00096762       0.00711868
C        4.86495547       4.31032438       3.62015904      -0.00735733      -0.00336982       0.00927934
O        3.73874110       6.43647960       3.62315222      -0.00133402      -0.00055904       0.00105097
C        2.45969361       8.47485569       3.62049271       0.00157993      -0.00534686       0.01003088
C        9.85377746      -0.01326804       3.61717943      -0.00251249      -0.00441731       0.01022905
C        8.62864649       2.13680670       3.61161954      -0.00368878      -0.00149161      -0.01700635
C        7.37962067       4.27300211       3.61507784      -0.00562859       0.00556490       0.01008110
C        6.13992749       6.40708286       3.63645155       0.00404226       0.00464626      -0.00233546
C        4.91380792       8.52998734       3.63949421       0.00530434       0.00406741      -0.00443990
C       -0.00669080       1.43410299       3.64067434      -0.00681503      -0.00024320      -0.00733547
C       -1.20113756       3.58341704       3.62314759       0.00612453       0.00743069      -0.00066479
C       -2.46520593       5.69281173       3.63563150      -0.00370210       0.00098311      -0.00134752
C       -3.70810972       7.83071504       3.65695253       0.00043783      -0.00046608      -0.00994711
C       -4.94495135       9.97294855       3.65794969      -0.00256372       0.00385753       0.00433309
C        2.46013897       1.43194331       3.65509520       0.00165973      -0.00140342      -0.01341554
C        1.26123458       3.55413328       3.63294727       0.00493558      -0.00920737       0.00540228
C        0.00475959       5.73135452       3.63416569      -0.00852824       0.00497076      -0.00953729
C       -1.23450288       7.83101382       3.65010397      -0.00109687       0.00141901      -0.00573477
C       -2.47152696       9.97353594       3.65745215       0.00256584      -0.00306350      -0.00695643
C        4.92705334       1.43516799       3.63083320       0.00719384      -0.00959939       0.00109906
C        3.65978148       3.55448322       3.62807348      -0.00837665      -0.00811484       0.00077814
C        1.20302257       7.80859378       3.62898833      -0.00659803       0.00305609      -0.00942886
C        0.00058879       9.96677014       3.62884322       0.00883177       0.00246204       0.00265784
C        7.39495569       1.42515073       3.60964475      -0.00439547      -0.00290603       0.00829133
C        6.12212423       3.58422669       3.61360357      -0.00565167       0.00253622       0.00501663
C        4.91653390       5.73176147       3.62733553       0.00373248       0.00415837      -0.00743325
C        3.71678018       7.80884022       3.62691497       0.01169527      -0.00126340       0.00283401
C        2.45951730       9.92675478       3.61381611       0.00381721      -0.01214014       0.00492820
C        9.86186894       1.42455884       3.61373160       0.00104793      -0.00031108       0.01506242
C        8.62884432       3.56080379       3.61472451      -0.00080565       0.00039274       0.00060568
C        7.38633660       5.69282704       3.62882839       0.00600576       0.00348703       0.01000059
C        6.15448134       7.83087989       3.64869975       0.00728991       0.00296717      -0.01085754
C        4.91873038       9.96635919       3.63523609      -0.00072895       0.00342946      -0.00598930
Au       2.76777426       5.58296254       9.70967487       0.00000000       0.00000000       0.00000000
