49
Lattice="12.336457 0.0 0.0 -6.168228499999997 10.683685154694365 0.0 0.0 0.0 15.0" Properties=species:S:1:pos:R:3:forces:R:3 energy=-426.43370939259296 free_energy=-426.43370939259296 stress="0.0016612279754852654 -0.0020051166699283805 -1.674371790919835e-05 -0.0020051166699283805 0.006105468313078652 -8.806621714578836e-06 -1.674371790919835e-05 -8.806621714578836e-06 2.1262096106021955e-06" pbc="T T T"
C       -0.01369763       0.02554283       3.59171464       0.00513741       0.00007434       0.00134178
C       -1.25712549       2.15621889       3.60145609       0.00359191       0.01428484      -0.00753953
C       -2.47557353       4.29161972       3.59292813      -0.00896124      -0.00375547       0.00409870
C       -3.70066723       6.42822873       3.57440990      -0.00017683       0.00309046       0.00330448
C       -4.94096873       8.57303329       3.56130092      -0.00026672      -0.00080047      -0.00200499
C        2.44421864       0.04060589       3.64314900      -0.00120227      -0.00652970      -0.00911963
C        1.18073177       2.18352178       3.67723640      -0.00396558      -0.00211258       0.00574134
C       -0.03054573       4.28944686       3.58362285       0.00091034      -0.00537381       0.00165410
C       -1.22329011       6.40536869       3.57458307      -0.00480406      -0.00765098      -0.00877341
C       -2.46234855       8.56030086       3.59484519      -0.00107092       0.00943950       0.00088829
C        4.92827669       0.00765841       3.72672213       0.00961915      -0.00337633       0.00296299
C        3.66537324       2.11633047       4.02118208      -0.00127060      -0.00166155       0.00083478
O        1.17383531       6.41301345       3.57262743      -0.00680246       0.00186542       0.00476716
C        0.01059213       8.52586807       3.62956161      -0.00562656       0.00217066       0.00346098
C        7.39503093      -0.00952860       3.69110742       0.00115440      -0.00380529       0.00606222
C        6.14791584       2.16415236       3.84120795       0.00220818       0.00205812       0.00126391
C        4.95851092       4.39100075       3.99397010      -0.01352117      -0.00860624       0.01151594
O        3.76962197       6.46407406       3.83801779      -0.00310648      -0.00849221       0.00173951
C        2.45898163       8.47436774       3.64429600       0.00184485      -0.00448085       0.00345693
C        9.84310598      -0.00952259       3.62358527       0.00294251       0.01077432       0.00313485
C        8.61394965       2.14598007       3.66514242      -0.00254217       0.00051138       0.00285102
C        7.39269640       4.29632120       3.68996089       0.00187390       0.00042722      -0.00633001
C        6.17525987       6.45467063       3.63636899       0.00638156       0.00173275       0.00849847
C        4.91851498       8.55224713       3.60037234       0.00310689       0.00152483      -0.00002402
C       -0.01685311       1.46257926       3.61102460      -0.00469322       0.00151553       0.00168980
C       -1.23816361       3.58681821       3.58811543      -0.00442503       0.00787713      -0.00258359
C       -2.46504257       5.70549096       3.57457708      -0.00678535      -0.00770513       0.00463661
C       -3.70237273       7.85560710       3.56664437       0.00005063       0.00747471      -0.00247373
C       -4.94639202      10.00600871       3.58265924       0.00093862      -0.00426517      -0.00288955
C        2.41689948       1.47049294       3.76402567      -0.00188345      -0.00507235      -0.00323728
O        1.15606786       3.57063758       3.61040924       0.00965546       0.00340686      -0.01382687
C       -0.01285026       5.70303440       3.57510559      -0.00292772      -0.00712109      -0.00827308
C       -1.23169091       7.83348031       3.59625503      -0.00239349      -0.00145810      -0.00370643
C       -2.47988037       9.99510546       3.65250884       0.00333136       0.00573821      -0.00708801
C        4.91874450       1.43815294       3.87267188       0.00459975      -0.00690348      -0.00011721
P        3.63221821       3.65583134       4.78987883       0.00961767       0.01538053      -0.00148974
C        1.20504590       7.79284147       3.61872429      -0.00529193       0.00247860       0.00138292
C       -0.00204788       9.96714507       3.68420185       0.00369528      -0.00361162      -0.00293191
C        7.38105248       1.43502436       3.72907388      -0.00090475      -0.00163990       0.00193750
C        6.15449236       3.60111523       3.84189207      -0.00291781       0.00328796      -0.01140734
C        4.96717093       5.79662006       3.82562192      -0.00560686      -0.00762041       0.00349724
C        3.72656003       7.83128878       3.67044026       0.00082463      -0.00617467       0.00139368
C        2.45203580       9.92796891       3.64906658       0.00139758      -0.00264784       0.00578100
C        9.85183450       1.43497824       3.62356828       0.00320195       0.01358279      -0.00120233
C        8.62155738       3.57511787       3.64416644      -0.00475133      -0.00371894      -0.00151053
C        7.40412486       5.71858829       3.62367116       0.00465794      -0.00040437       0.00319190
C        6.17033872       7.86641210       3.57946180       0.00206655      -0.00120977       0.00839812
C        4.91531388       9.98461114       3.59320431       0.00507584       0.00461594      -0.00092793
Au       3.02683093       4.02307769       6.91838231       0.00801361       0.00288620      -0.00202910
