49
Lattice="12.336457 0.0 0.0 -6.168228499999997 10.683685154694365 0.0 0.0 0.0 15.0" Properties=species:S:1:pos:R:3:forces:R:3 energy=-426.23961413086994 free_energy=-426.23961413086994 stress="-0.004728364119574496 -0.0012843519698764385 -2.462281095312307e-07 -0.0012843519698764385 -0.005680138079441556 -5.706042917440589e-06 -2.462281095312307e-07 -5.706042917440589e-06 1.074037721786974e-06" pbc="T T T"
C       -0.00039380      -0.01091475       3.58311872      -0.00374782       0.00148950       0.00062115
C       -1.24134666       2.12436910       3.39019800      -0.00524277      -0.00128823       0.00138860
C       -2.49225182       4.26638517       3.50266023       0.00131387       0.00561849      -0.00090798
C       -3.70603403       6.40777366       3.64663527       0.00762369      -0.00451908       0.00030101
C       -4.92522993       8.54108306       3.68411343      -0.00408778      -0.00030142      -0.00227051
C        2.46567343      -0.03466793       3.71950636       0.00493136      -0.00339391      -0.00098392
C        1.25295493       2.04753147       3.33724444       0.00252348      -0.00234039      -0.00397569
C       -0.07101315       4.30126829       3.26639704      -0.01001092      -0.01350535      -0.00986367
C       -1.25638404       6.40360463       3.70772751      -0.00153073       0.00483612      -0.00048341
C       -2.45957679       8.53283618       3.77808260       0.00359551       0.00307146      -0.00110499
C        4.93538481      -0.01207428       3.85920892      -0.00135159       0.00291356      -0.00618721
C        3.67011820       2.09866409       3.86615847       0.00916807      -0.00497967       0.00620330
B        1.11634318       6.40863474       4.18499422       0.00303862      -0.00625872      -0.00454056
C        0.00053006       8.54307296       3.94039180       0.00102495       0.00587173       0.00456033
C        7.40288141       0.00050922       3.84589735       0.00721388      -0.00604181      -0.00108585
C        6.15455715       2.14242643       3.83756452      -0.00096700       0.00575984      -0.00068857
C        4.94310326       4.32044197       3.95827330      -0.00540341       0.00296358       0.00367458
N        3.81922775       6.48254381       4.16020009      -0.00288279      -0.00138303       0.00448749
C        2.49053761       8.55008258       3.99784841       0.00870121      -0.01616804       0.00169110
C        9.86931312      -0.00124859       3.69590178      -0.00240678       0.00009227       0.00203479
C        8.62473384       2.13127162       3.63452641       0.00306601       0.00965195      -0.00011341
C        7.39317643       4.27415625       3.69069269       0.00405228       0.00165722      -0.00202339
C        6.18713796       6.43534934       3.74321894       0.00015306       0.00082833       0.00646978
C        4.95245893       8.55277268       3.78977379      -0.00548391       0.00766948      -0.00612568
C       -0.00392498       1.40995934       3.41514006      -0.00151384       0.00229468       0.00286615
C       -1.25842142       3.54512634       3.34214242      -0.01029826      -0.00384628       0.00299558
C       -2.48627187       5.69105904       3.60061126       0.00512264      -0.00238221       0.00447978
C       -3.69444872       7.82808087       3.69757772       0.00268932       0.00008517       0.00512016
C       -4.93576033       9.95875525       3.65736160      -0.00143782       0.00290596       0.00032856
C        2.45904902       1.38403117       3.67146443       0.00929003      -0.00662011       0.00456674
S        1.41210318       3.63094629       2.67448324      -0.00216839      -0.00503993      -0.00287375
C       -0.04367720       5.66144813       3.66352907      -0.01063675      -0.00473056      -0.01190318
C       -1.22687825       7.82135327       3.83370535       0.00129484       0.00605200       0.01275491
C       -2.46175892       9.95100142       3.80654614       0.00276240       0.00106367      -0.00355279
C        4.92485373       1.41904669       3.87515356       0.00401521      -0.00277257      -0.00247030
B        3.70486388       3.53841211       4.13111808      -0.00884842       0.00374434      -0.00308500
C        1.25133558       7.85876774       4.06384028      -0.00173163      -0.00144965       0.00115411
C        0.00028497       9.96903419       3.89252818      -0.00044370       0.00459902       0.00357970
C        7.39372002       1.42479022       3.77228834       0.00261577       0.00410201      -0.00655489
C        6.15490166       3.57341517       3.82213915      -0.00318091       0.00895331      -0.00006126
C        4.95403539       5.76085511       3.93203920      -0.00251895       0.00264940      -0.00032628
C        3.74097612       7.82670091       3.98682446       0.00561935      -0.00023836      -0.00752752
C        2.47784249       9.97056666       3.85095640       0.00718562      -0.01847056       0.00179682
C        9.86655442       1.42124868       3.56019372      -0.00241588       0.00182016       0.00616149
C        8.61691620       3.55510264       3.59632070       0.00504913       0.00828171      -0.00665899
C        7.39982966       5.69968643       3.67120633       0.00637834      -0.00317140       0.01252141
C        6.17941805       7.84353801       3.72359499      -0.00819031       0.00149979       0.00196314
C        4.93435721       9.96803426       3.68407659      -0.00402458       0.00522281      -0.00103097
Cd       2.39159160       4.96171749       5.20954401      -0.00790368       0.00320371      -0.00532094
