49
Lattice="12.336457 0.0 0.0 -6.168228499999997 10.683685154694365 0.0 0.0 0.0 15.0" Properties=species:S:1:pos:R:3:forces:R:3 energy=-421.55304281603384 free_energy=-421.55304281603384 stress="0.0026148096816054067 3.991409023938816e-05 -9.706210233061551e-08 3.991409023938816e-05 -0.0038599761210197604 2.1014766673302784e-05 -9.706210233061551e-08 2.1014766673302784e-05 -4.985683722800031e-07" pbc="T T T"
C        0.00307296      -0.00709840       3.84509935      -0.00729356      -0.00572754       0.00628085
C       -1.21792902       2.15111934       3.95190068       0.00665970       0.00323824       0.00722867
C       -2.44996474       4.27350159       3.92454927       0.00307930       0.00052232       0.00301195
C       -3.70110173       6.40106484       3.83450143       0.00151790      -0.00857009       0.00018281
C       -4.94775659       8.52197827       3.74196769      -0.00112805      -0.00568660      -0.00257946
C        2.46707487      -0.05828141       3.88157304       0.00179596       0.00181469       0.00410570
C        1.26294045       2.09032686       3.98094257      -0.00390871      -0.00191832       0.00413553
C        0.07303798       4.29573275       3.79458048       0.00390046       0.00311545       0.00343137
C       -1.24388576       6.40757252       3.62451576       0.00653465       0.00097310      -0.00566300
C       -2.45467185       8.52214159       3.73967834      -0.00149154      -0.00642328      -0.00167623
C        4.93137605      -0.00744583       3.84806232       0.00676971      -0.00277987       0.00351919
C        3.67181350       2.08970688       3.98634055       0.00154758      -0.00198170       0.00145670
S        1.11629284       6.38759082       2.40395778      -0.00755854      -0.00553279       0.00933616
C       -0.00024334       8.56535910       3.50151191      -0.00198550       0.00797950       0.00090270
C        7.39742393       0.02468178       3.78239736       0.00247553       0.00362514      -0.00722186
C        6.15297009       2.15030380       3.96033669      -0.00549677       0.00275948       0.00166637
C        4.86222382       4.29447482       3.81012552      -0.00532498       0.00075093      -0.00309764
S        3.81007800       6.37982815       2.42650389       0.00783766       0.00038371       0.00315669
C        2.46664130       8.61983395       3.28959639       0.00204405       0.00330572       0.00400087
C        9.87364310       0.02474939       3.78056334      -0.00510676       0.00545508      -0.00410644
C        8.63571376       2.15017943       3.95363735       0.00055969      -0.00515105       0.00456741
C        7.38494715       4.27334650       3.93082940      -0.00110187      -0.00089230       0.00133063
C        6.17748082       6.40727363       3.63516485      -0.00434944       0.00057875      -0.00796741
C        4.93387155       8.56449544       3.50670800       0.00066021       0.00838531      -0.00101464
C        0.01241170       1.42273786       3.93863895      -0.00060168      -0.00450868      -0.00399112
C       -1.19076761       3.57604661       3.92278812       0.00516269       0.00440702      -0.01013518
C       -2.46611511       5.69161052       3.83314006       0.00675779      -0.00161510      -0.00098685
C       -3.70118059       7.81623462       3.77307978      -0.00147999      -0.00926390       0.00095772
C       -4.94181204       9.94289359       3.82021534      -0.00188950      -0.00251333       0.00496424
C        2.46728407       1.35943742       3.96069167      -0.00042026       0.00350324      -0.00219602
B        1.47519683       3.59990529       4.02972976      -0.00565102       0.00137524       0.00611948
C       -0.06397911       5.65243142       3.41446666       0.00940508       0.00266995       0.00103674
C       -1.22516409       7.82568029       3.58856598      -0.00015567      -0.00000851      -0.00812649
C       -2.46051252       9.94290606       3.82094432       0.00436889      -0.00355791       0.00384631
C        4.92239418       1.42211691       3.94491591      -0.00010776      -0.00387439       0.00041606
B        3.45906614       3.59919476       4.03720508       0.00301928       0.00116091       0.00492645
C        1.21726176       7.94804274       3.15091428      -0.00601015       0.00645385       0.00069822
C       -0.00236364       9.98716843       3.72661501       0.00636567       0.00390533       0.00343370
C        7.39362064       1.44481432       3.92270269      -0.00452785       0.00124411      -0.00636502
C        6.12607302       3.57523650       3.93385611      -0.00531068       0.00437476      -0.00795973
C        4.99734649       5.65127284       3.43164944      -0.00891796       0.00396173       0.00158639
C        3.71581979       7.94677058       3.15825479       0.00643897       0.00562828       0.00232211
C        2.46713361      10.01211704       3.64546037      -0.00085889       0.00513602      -0.00688760
C        9.87777129       1.44516878       3.91856081       0.00512628       0.00247998      -0.00553430
C        8.63578945       3.56987656       3.96664288       0.00070183      -0.00488278       0.00040381
C        7.40049154       5.69143747       3.83859561      -0.00268822      -0.00221023       0.00243523
C        6.15869695       7.82513640       3.59548567      -0.00114357      -0.00027091      -0.01234967
C        4.93674754       9.98711359       3.72635709      -0.00901656       0.00402631      -0.00027284
Cd       2.46113389       4.72076273       5.72019923       0.00079656      -0.01584486       0.00667144
