49
Lattice="12.336457 0.0 0.0 -6.168228499999997 10.683685154694365 0.0 0.0 0.0 15.0" Properties=species:S:1:pos:R:3:forces:R:3 energy=-426.6160227750397 free_energy=-426.6160227750397 stress="0.00286556524224153 0.0019837544600466665 3.815829364353187e-06 0.0019837544600466665 -0.0039013588494510973 1.9494380000983246e-05 3.815829364353187e-06 1.9494380000983246e-05 -4.2136515888356684e-06" pbc="T T T"
C       -0.00204667      -0.01677340       3.74843175       0.00294219       0.00125550      -0.00104455
C       -1.20873406       2.14980999       3.85175642      -0.00044165      -0.00267575      -0.00108431
C       -2.43782425       4.27303695       3.79621713       0.00150555      -0.00077917      -0.00734846
C       -3.69967572       6.39309426       3.65177359       0.00960727      -0.00261077      -0.00190498
C       -4.95920795       8.51278584       3.59455175       0.00089267      -0.00263509      -0.00332642
C        2.45827875      -0.06204810       3.76653343      -0.00140078       0.00223238       0.00224812
C        1.26320928       2.08594356       3.88998857      -0.00405764       0.00733853       0.00095478
C        0.08535512       4.31050012       3.91912008      -0.00522662      -0.01009348      -0.00828884
C       -1.23262163       6.41896729       3.78137209      -0.00212295      -0.00039532       0.00377725
C       -2.47649224       8.52344299       3.71589965      -0.00061279      -0.00233454      -0.00880823
C        4.92721281      -0.01344926       3.79918233      -0.00515479      -0.00685927       0.00881372
C        3.67612492       2.07938583       3.85770583      -0.00240335       0.00733022      -0.00270152
N        1.14959203       6.49972475       4.14520003      -0.01701719       0.00274603       0.00111286
C       -0.01309972       8.54994509       3.80149052       0.00217685      -0.00525624       0.00298792
C        7.39809208       0.01041121       3.83964342      -0.00449218       0.00260105       0.00226758
C        6.16081374       2.13967419       3.81491349      -0.00170526       0.00069607       0.00834460
C        4.88073135       4.27580700       3.60695020      -0.00603366      -0.00243350      -0.00375160
S        3.60944471       6.38901845       2.48737098       0.00151007       0.01367205       0.00526123
C        2.45158232       8.55293301       3.69476736       0.01179500       0.00274372      -0.00186340
C        9.87211999       0.00880620       3.78351448       0.00116717       0.00360350      -0.00396851
C        8.64423061       2.14417829       3.82982324       0.01064740       0.00023804      -0.00062320
C        7.39897661       4.26299382       3.69903741      -0.00341769      -0.00139758       0.00047181
C        6.17241395       6.39203612       3.39708342      -0.00008384       0.00294682      -0.00039597
C        4.91680934       8.54453469       3.49208342      -0.00594906       0.00684179      -0.00257550
C        0.01457257       1.41682645       3.84279096      -0.00136764       0.00078844       0.00066366
C       -1.16942566       3.58373936       3.86040533      -0.00479661      -0.00639501      -0.00333534
C       -2.45556539       5.69150715       3.74168146       0.00639382       0.00002803      -0.00709600
C       -3.71254867       7.81041149       3.64286005       0.00319297      -0.00500992      -0.00587384
C       -4.95083096       9.93344982       3.70082795       0.00178587      -0.00238456      -0.00007450
C        2.46600096       1.35110268       3.84442844      -0.00433815       0.00699407       0.00951691
B        1.46476887       3.58733591       3.99112900       0.00387867       0.00840695      -0.00456822
C        0.02119658       5.74855603       3.92557873      -0.00782547      -0.00807408       0.00290831
C       -1.23999391       7.82830228       3.76384996      -0.00176162      -0.00193309       0.00079489
C       -2.46957150       9.93986747       3.75625641      -0.00426871      -0.00237103      -0.00775313
C        4.92610502       1.41411666       3.82748464      -0.00354839      -0.00187739       0.00588824
B        3.49628374       3.58099441       3.88296190       0.00512710       0.00301836       0.01057957
C        1.20469302       7.82814660       3.86274898       0.00973179       0.00082334      -0.00511997
C       -0.00465076       9.97415573       3.80658261      -0.00415010      -0.00603958       0.01326939
C        7.40046209       1.43505598       3.83682814       0.00442663       0.00480722       0.00039255
C        6.14181795       3.56117829       3.72288742      -0.00736095      -0.00158073      -0.00007524
C        4.98435722       5.63648954       3.22720084       0.00710488      -0.00512852       0.01322953
C        3.66170323       7.90719726       3.33769128       0.00189595      -0.00510497      -0.01422209
C        2.46315189       9.97850092       3.79910774       0.00130560       0.00650449      -0.00550131
C        9.88481408       1.43928887       3.83301876       0.00804168      -0.00217229       0.00083797
C        8.65033727       3.56488525       3.78366540       0.00238527       0.00013951       0.00213259
C        7.40594254       5.68000345       3.58791216       0.00549145       0.00132643      -0.00312386
C        6.14576096       7.81288256       3.45062494      -0.00596562       0.00890217      -0.00626868
C        4.92956890       9.96937732       3.69092150      -0.00058419       0.00512021       0.00809003
Cd       2.58315792       5.08041876       5.27086436       0.00308103      -0.01556304       0.00615413
