49
Lattice="12.336457 0.0 0.0 -6.168228499999997 10.683685154694365 0.0 0.0 0.0 15.0" Properties=species:S:1:pos:R:3:forces:R:3 energy=-431.2898999292868 free_energy=-431.2898999292868 stress="-0.005352340267282287 -0.0025213983221543854 4.710662868181059e-06 -0.0025213983221543854 -0.005141142518324302 -3.944413347924281e-06 4.710662868181059e-06 -3.944413347924281e-06 3.743688119603775e-08" pbc="T T T"
C       -0.00433826      -0.00418583       3.65308549      -0.00621940      -0.00259948      -0.00991631
C       -1.25317747       2.11692233       3.60455731       0.00250717       0.00107233      -0.01041767
C       -2.47194552       4.26396589       3.53644636       0.00279385       0.00417579      -0.00118208
C       -3.68733051       6.41160341       3.53591100       0.00178029      -0.00279375       0.00120049
C       -4.91852876       8.55525494       3.59647196       0.00427827       0.00768048       0.00249835
C        2.45883415       0.00348850       3.72759086      -0.00253795       0.00454821      -0.00036911
C        1.18924579       2.14504407       3.87093181      -0.00288045       0.00113746      -0.00476302
C       -0.02157550       4.20255190       3.80227566      -0.00459384       0.00505725      -0.00476555
C       -1.22003536       6.39094890       3.66979012       0.00712302       0.00050865       0.00711321
C       -2.45700614       8.54566234       3.62877440      -0.00149377      -0.00691238       0.00661383
C        4.93109403       0.00034129       3.71420395      -0.00068319      -0.00069352       0.00688981
C        3.67774787       2.10444268       3.95848296       0.00479956       0.00524291       0.00618312
B        1.23403826       6.41723217       4.04548322      -0.00723376       0.00013454       0.00016559
C       -0.00300073       8.55147173       3.74674669      -0.00438265      -0.00176239       0.00256801
C        7.39426644       0.00421931       3.66856895       0.00701864       0.00319016       0.01221189
C        6.15574973       2.14118845       3.70558861       0.00122507       0.00078892       0.00680947
C        4.99172688       4.30541178       3.88809264      -0.00343266      -0.00706902      -0.00052898
C        3.75321756       6.44062945       4.04183224       0.00134940      -0.00350366      -0.00321707
C        2.47222331       8.56381135       3.83474079      -0.00531039      -0.00139486       0.00255910
C        9.86211296      -0.00566983       3.63943774       0.00592231       0.00008631      -0.00422638
C        8.62129360       2.13254025       3.55925609       0.00479588      -0.00257198      -0.00420353
C        7.41146016       4.27911300       3.56528000      -0.00382238      -0.00675226       0.00459009
C        6.19271382       6.43569244       3.63932429      -0.00126129       0.00284252      -0.00018100
C        4.94809041       8.54799452       3.70947801      -0.00092441       0.00065941       0.00003163
C       -0.02420553       1.41238371       3.68645232      -0.00346928      -0.00414248       0.00041932
C       -1.25713095       3.52799373       3.60572601       0.00033871       0.00355303      -0.00568388
C       -2.46286098       5.68981112       3.55627660       0.00801552       0.00479905       0.00800790
C       -3.68865274       7.83798325       3.57333609      -0.00045505      -0.00275331       0.00241440
C       -4.93327672       9.97289564       3.65354030      -0.00439683       0.00640316      -0.00128557
C        2.44034503       1.41968162       3.87540533       0.00348348       0.00577870      -0.00035320
N        1.11089450       3.48564342       4.04407205      -0.01037528      -0.00007221      -0.00379923
C       -0.01137743       5.64723529       3.82352003       0.00241063       0.00178787      -0.00355224
C       -1.22193749       7.82489028       3.68039246      -0.00063797      -0.00444847      -0.00424392
C       -2.46855554       9.97132104       3.68991460      -0.00381594      -0.00392345       0.00109551
C        4.92900321       1.42349163       3.79375089       0.00208069       0.00256853       0.00376698
B        3.79135251       3.53248268       4.20130440       0.00185041      -0.00114122       0.00589550
C        1.24347352       7.87426318       3.87173085      -0.00662972      -0.00489339       0.00445908
C       -0.00580875       9.97623177       3.69847837       0.00353113       0.00048772      -0.00338737
C        7.38850121       1.42592864       3.62231014       0.00218026       0.00281497       0.00231555
C        6.17970443       3.56833511       3.70038166      -0.00414857      -0.00402192       0.00382871
C        4.95111179       5.74297871       3.83998241      -0.00069355      -0.00656425      -0.00433879
C        3.70566259       7.81751402       3.86839054      -0.00296128      -0.00409287      -0.00829152
C        2.46407820       9.97632000       3.70162566       0.00623292       0.00077741      -0.00240086
C        9.85139498       1.41272563       3.57587087       0.00615240      -0.00163479      -0.00346423
C        8.62885789       3.55812038       3.52518630       0.00208732      -0.00231651      -0.00054936
C        7.41373788       5.70768528       3.55616774      -0.00190052      -0.00301554       0.00029773
C        6.18366689       7.84912364       3.63183204       0.00306918       0.00823122      -0.00235352
C        4.93105744       9.96189013       3.65420510      -0.00161503      -0.00192867      -0.00424748
Cd       2.48148066       5.01194416       5.18251568       0.00084904       0.00667578      -0.00021339
