49
Lattice="12.336457 0.0 0.0 -6.168228499999997 10.683685154694365 0.0 0.0 0.0 15.0" Properties=species:S:1:pos:R:3:forces:R:3 energy=-428.6278278517489 free_energy=-428.6278278517489 stress="-0.0030282809905616947 0.0035824827196816824 -2.0497990431664787e-06 0.0035824827196816824 0.0020887863097391077 -3.2524650226484136e-06 -2.0497990431664787e-06 -3.2524650226484136e-06 -5.02125504771955e-07" pbc="T T T"
C       -0.00039998       0.01691901       3.79463860       0.00319534       0.00339723      -0.00411106
C       -1.22664482       2.14353336       3.72778882       0.00710295       0.00360041      -0.00478222
C       -2.45666746       4.27559803       3.60364338      -0.00324217       0.00140576      -0.00072760
C       -3.71151887       6.41361209       3.61073722      -0.00051259      -0.00563872      -0.00247163
C       -4.95296640       8.55505557       3.72714276      -0.00217172      -0.00142951       0.01209099
C        2.46489031       0.04734379       3.75330428       0.00120712      -0.00236160       0.00135208
C        1.23812635       2.22360304       3.98289334      -0.00447892      -0.00483453      -0.00940624
C        0.01128768       4.30462851       3.89037664      -0.00433876      -0.00088662       0.00084779
C       -1.25555024       6.43017210       3.64935710      -0.00145009      -0.00321563      -0.00145098
C       -2.48948135       8.56099159       3.63835206       0.00375014       0.00459617       0.00862064
C        4.92832576      -0.00305601       3.62971998       0.00352189       0.01271586      -0.00502657
C        3.74976085       2.11921845       3.69137568      -0.00834015      -0.00294122      -0.00727697
O        1.12441087       6.47074419       3.70078289       0.00024697      -0.00271711      -0.00969436
C       -0.02589422       8.54655522       3.64543899      -0.00044390      -0.00403666      -0.00277263
C        7.40797383      -0.02558803       3.61768430      -0.00909625      -0.00428351       0.00609211
C        6.19799407       2.10688967       3.54306453      -0.00042927       0.00385472      -0.01201221
C        5.00238725       4.20630923       3.65263085       0.00841916       0.00051867      -0.01106988
B        3.79252481       6.38986190       4.25809567      -0.00670732      -0.00092963       0.00872622
C        2.43142719       8.50687931       3.80666002       0.00456542       0.00114856       0.00496308
C        9.86550738      -0.01606613       3.71449328       0.00147583       0.00070139       0.00686379
C        8.65290986       2.12325002       3.57388501      -0.00037392       0.00267131       0.00154595
C        7.42584628       4.26486119       3.55131872      -0.00108248      -0.00026433       0.00230822
C        6.16262818       6.38342378       3.73813794      -0.00041614      -0.00340336       0.00667225
C        4.91621859       8.53359065       3.85685138       0.00061802       0.00105980       0.00338817
C        0.00794239       1.44834569       3.83082106       0.00206169       0.00193578       0.00401146
C       -1.23228484       3.57028325       3.70399009      -0.00498596       0.00179341       0.00922942
C       -2.48023606       5.70056949       3.60842957      -0.00026409      -0.00319500       0.01078145
C       -3.72430477       7.84345656       3.65420913       0.00001761      -0.00013384       0.00041739
C       -4.93796330       9.99015675       3.76936121      -0.00027335       0.00135387       0.00836344
C        2.49261978       1.48330763       3.83141433      -0.00807843      -0.00651404       0.00536589
C        1.13697911       3.58471274       4.26515945      -0.00442652      -0.00401203      -0.00518139
C       -0.05430130       5.73830053       3.76824036      -0.00046510      -0.00147210      -0.00515855
C       -1.26634237       7.85290468       3.62649864       0.00005946      -0.00357484       0.00126217
C       -2.48439381       9.99646484       3.67005974       0.00841675       0.00820026       0.00257202
C        4.95458187       1.41449912       3.60878098      -0.00322188       0.00889734      -0.01537679
O        3.82000763       3.49299105       3.61121805       0.01152325      -0.00419315      -0.00797394
C        1.17848238       7.84492351       3.72050005       0.00364916      -0.00063956       0.00736498
C       -0.00180353       9.96650591       3.62310297      -0.00694038      -0.00338999      -0.00256680
C        7.41802315       1.40444361       3.56105811      -0.00389666      -0.00130004      -0.00400271
C        6.20709814       3.52448635       3.53761469       0.00649388       0.00090666      -0.00931700
C        4.95901594       5.61157988       3.83675078      -0.00164107       0.00004791       0.00068423
C        3.67300210       7.81947861       3.96652456       0.00284260      -0.00132160      -0.00413802
C        2.45745885       9.93877737       3.70062703      -0.00343250       0.00048064       0.00432813
C        9.87569282       1.41119442       3.65507592       0.00466828       0.00251884       0.01353545
C        8.65220124       3.55162306       3.55523336      -0.00319798       0.00397185      -0.00487627
C        7.40160703       5.68846861       3.61342103      -0.00023640      -0.00455848      -0.00618316
C        6.14800584       7.81713693       3.78929974      -0.00148221      -0.00322149       0.00659896
C        4.93265494       9.96877392       3.78517146       0.00476197       0.00083305       0.00178026
Cd       2.49055417       4.93683409       5.30378382       0.00702870       0.00785911      -0.00418955
