49
Lattice="12.336457 0.0 0.0 -6.168228499999997 10.683685154694365 0.0 0.0 0.0 15.0" Properties=species:S:1:pos:R:3:forces:R:3 energy=-426.26885514015015 free_energy=-426.26885514015015 stress="-0.0014452012030690404 -0.0036746035031020303 -7.542589211188768e-06 -0.0036746035031020303 -0.0018849216109026632 -1.048146313796309e-05 -7.542589211188768e-06 -1.048146313796309e-05 4.910485079806595e-07" pbc="T T T"
C       -0.00120128      -0.02182399       3.73904581      -0.00785571      -0.00172281       0.00749839
C       -1.25501750       2.11242932       3.70272032      -0.00328265      -0.00086690      -0.00261107
C       -2.46587076       4.26174100       3.71369156      -0.00468501       0.00475143       0.00057729
C       -3.67850730       6.40162037       3.74637310       0.00549553       0.00340289      -0.00004679
C       -4.91543745       8.54097628       3.78587414       0.00331850      -0.00657997      -0.00195589
C        2.46179753       0.00011161       3.70721452      -0.00845495       0.00335993       0.00310991
C        1.17858209       2.10018307       3.69928991       0.00231734       0.00332207      -0.00272143
C       -0.02649810       4.19824282       3.87125435       0.00021659       0.01171099       0.00334875
C       -1.19480019       6.36888864       3.83918023      -0.00352103       0.00559571      -0.00002963
C       -2.44914026       8.52989093       3.77531858       0.00114151      -0.00671679       0.00084782
C        4.92598661      -0.00366285       3.65023660      -0.00199269      -0.00658226       0.00631560
C        3.66676008       2.08166245       3.31020255       0.00814477       0.00380523      -0.00487996
B        1.28785253       6.39717111       4.19260195      -0.00486980      -0.00712098      -0.00850233
C        0.00269144       8.54562462       3.85526487      -0.00080550      -0.00735268       0.00897118
C        7.38980418       0.00477089       3.70872068       0.00887855       0.00876356       0.00252763
C        6.14492481       2.14483728       3.47248826      -0.00354366       0.00025202      -0.00320653
C        4.98497837       4.33172722       3.35144232      -0.00015727      -0.00685855       0.00030887
C        3.72774196       6.40457593       4.03661070       0.00577963       0.00359766       0.00165372
C        2.47079408       8.55883771       3.93825549      -0.00529695      -0.00332094      -0.00305511
C        9.86110517      -0.00879503       3.75367482       0.00266628      -0.00843626      -0.00289272
C        8.61873194       2.13371156       3.64098390       0.00713844      -0.00865945      -0.00250953
C        7.40851172       4.27846830       3.61490794      -0.00220647       0.00122820      -0.00312239
C        6.19198645       6.42070339       3.73746011      -0.00789080       0.00216127      -0.01257650
C        4.94772052       8.53774994       3.84230573      -0.00222836       0.00677817      -0.00781121
C       -0.01741094       1.40447952       3.70130270      -0.00039529      -0.00073114       0.00731897
C       -1.24351426       3.52533006       3.73626559      -0.00160785       0.00636888       0.00391389
C       -2.44536095       5.68016368       3.75726786       0.00147813       0.00622055       0.00284152
C       -3.68198934       7.82505787       3.77439186       0.00668175      -0.00484362       0.00115589
C       -4.93068563       9.96407469       3.76198978      -0.00762512      -0.00608575       0.00513314
C        2.43249101       1.42845618       3.59408867       0.00457958       0.00890753       0.00308439
O        1.13529653       3.45005354       3.97657995       0.00075607       0.00750839      -0.00875740
C        0.03051252       5.61119720       3.94261843      -0.00504075       0.01159858      -0.00189902
C       -1.21133912       7.80557737       3.82756626      -0.00179460      -0.00274352       0.00504007
C       -2.46611345       9.96265654       3.71597532      -0.00782733      -0.00556712       0.00497252
C        4.90992519       1.42747748       3.47240463       0.00038383      -0.00116922      -0.00032772
S        3.61020113       3.64949830       2.58241106       0.00893475      -0.00389067       0.00345952
C        1.24594649       7.86504723       3.99145827      -0.00185705      -0.01009295       0.00437737
C       -0.00768028       9.97370506       3.73751195       0.00753392      -0.00128283       0.00507541
C        7.37614388       1.43079637       3.60146608       0.00216799       0.00727123       0.00414278
C        6.16611938       3.57194738       3.46905782      -0.00149371      -0.00481502       0.00179982
C        4.92690190       5.72650884       3.69559212      -0.00633414      -0.00875556      -0.00325481
C        3.70069888       7.80559161       3.94841611       0.00066337       0.00306310      -0.00462005
C        2.46121830       9.97767567       3.79890472       0.00357596      -0.00053162      -0.00200395
C        9.85567722       1.41440881       3.69216314       0.00464145      -0.01246786      -0.00514230
C        8.63211697       3.55731931       3.64952078      -0.00169905      -0.00542228      -0.00314161
C        7.41798380       5.70025277       3.69438941      -0.00214657       0.00807206      -0.00599382
C        6.18598347       7.83691593       3.80472779      -0.00453720       0.00469575      -0.00278621
C        4.93106324       9.95345094       3.78302757      -0.00460557       0.00285524       0.00294904
Cd       2.57971073       5.31126423       5.56050324       0.01726113       0.00732628       0.00342446
