49
Lattice="12.336457 0.0 0.0 -6.168228499999997 10.683685154694365 0.0 0.0 0.0 15.0" Properties=species:S:1:pos:R:3:forces:R:3 energy=-427.18014392883646 free_energy=-427.18014392883646 stress="-0.007743470308285509 -0.003219347814050396 -3.242095178035615e-06 -0.003219347814050396 -0.00495552214500429 -6.341841231454018e-07 -3.242095178035615e-06 -6.341841231454018e-07 2.832111847142996e-07" pbc="T T T"
C       -0.00751602      -0.00384801       3.99637676      -0.00081182      -0.00799919       0.01586345
C       -1.26754704       2.11385945       4.04644020       0.00182990      -0.01008440       0.00284719
C       -2.49399651       4.26464060       3.94245320       0.00157418       0.00376906      -0.01226952
C       -3.68444773       6.41497342       3.85351459      -0.00276673       0.00390815       0.00730021
C       -4.91428890       8.56037475       3.90439944      -0.00554932       0.01563854       0.00799792
C        2.46238043       0.01650508       3.91749064       0.00211760       0.00596159       0.01017387
C        1.18382453       2.13969348       3.99540670      -0.00582850       0.00285552      -0.00032616
C       -0.05934746       4.20486280       3.92278039       0.00339412       0.00299944       0.00701439
C       -1.22878866       6.39046065       3.76955982       0.00200858       0.00131380       0.00380826
C       -2.45361770       8.54998001       3.85057498      -0.00697903      -0.00951579      -0.00819417
C        4.92664132       0.00804617       3.77563430       0.00172680       0.00529907      -0.00638063
C        3.66286878       2.10106640       3.47676119      -0.00816183       0.01075697       0.00425767
P        1.30426763       6.30663563       2.69678905      -0.01107415       0.00195163       0.00941910
C       -0.00427621       8.55288023       3.66586197      -0.00082135      -0.01026058      -0.00468662
C        7.38835326       0.00371368       3.81383419       0.00577507       0.00040020      -0.00879245
C        6.16001184       2.14070650       3.60907889       0.00233451      -0.00312132      -0.00976436
C        5.03430942       4.31581426       3.18373573       0.00114495      -0.01066438       0.00107469
C        3.78880397       6.45011983       3.53901723      -0.00456242      -0.00396782       0.00152621
C        2.46932096       8.56452845       3.67171244       0.00931183      -0.00194760       0.00153066
C        9.85392171      -0.00881633       3.95015248       0.00815393      -0.00355767      -0.01441678
C        8.61078872       2.13188308       3.89890784       0.00202652       0.00132676       0.00367108
C        7.41169266       4.28135953       3.71001570      -0.00607463      -0.00191030      -0.00875460
C        6.22046124       6.44616057       3.62593320      -0.00266186       0.00607852      -0.00346691
C        4.95468014       8.55788410       3.81569859       0.00581922       0.00490819      -0.00747950
C       -0.03042725       1.41312437       4.03377219      -0.00076636      -0.01240865      -0.00199654
C       -1.28266495       3.52609415       4.00142983       0.00329437      -0.00410461      -0.00733436
C       -2.46871038       5.68929349       3.88315767       0.00297662       0.00764100       0.00295601
C       -3.68499442       7.84219642       3.88067913      -0.01252141       0.00302644       0.00334740
C       -4.93061818       9.98011285       3.96649909       0.00155884       0.00884353       0.00644672
C        2.44162923       1.44047236       3.82366212      -0.00633508       0.00661775       0.00423280
N        1.09959016       3.49892803       4.15078575       0.00266567       0.00170530       0.01395486
C       -0.03720186       5.62255622       3.64091234      -0.00030122       0.00155865       0.00276014
C       -1.22798496       7.82898886       3.74075791      -0.00236654      -0.00822864      -0.00353951
C       -2.46908629       9.98013316       3.85412732       0.00147295      -0.00330830       0.00291949
C        4.92083616       1.42967111       3.62370461      -0.00297385       0.01130156      -0.01105246
P        3.61761529       3.54879063       2.47049381       0.00603019      -0.00001587       0.00268146
C        1.23952790       7.89105806       3.46018417       0.00571132      -0.00029790      -0.00182190
C       -0.00928368       9.97832217       3.76725827       0.00210427      -0.00370659      -0.00794438
C        7.38016922       1.42861480       3.79088445       0.00342822       0.00112188       0.00341825
C        6.19337559       3.56830596       3.48522101       0.00024768      -0.01043214       0.00360340
C        5.00113735       5.75815495       3.38246449      -0.00584940      -0.00743922       0.00025339
C        3.72184903       7.83529132       3.66344075       0.00797506      -0.00141959       0.00288639
C        2.45578648       9.97208147       3.84312422       0.00894203      -0.00035415      -0.01295396
C        9.83966767       1.41037776       3.99559622       0.00160099      -0.00525711       0.00155113
C        8.61424327       3.55765198       3.87626816      -0.00301086       0.00380906      -0.00614571
C        7.42768912       5.71018907       3.73643265      -0.00549214       0.00274828       0.00051967
C        6.19477500       7.85547216       3.80111672       0.00066713       0.01139431       0.00364742
C        4.92973526       9.96662583       3.94257675       0.00311886      -0.00092202      -0.00051179
Cd       2.62223821       4.94255765       4.50804042      -0.00410288      -0.00601139       0.00616907
