49
Lattice="12.336457 0.0 0.0 -6.168228499999997 10.683685154694365 0.0 0.0 0.0 15.0" Properties=species:S:1:pos:R:3:forces:R:3 energy=-421.51262456523955 free_energy=-421.51262456523955 stress="-0.004521980865865817 -0.0018328580142754406 1.3841516987055445e-05 -0.0018328580142754406 -0.007120635642477575 2.6103072510682424e-06 1.3841516987055445e-05 2.6103072510682424e-06 -9.479749339307368e-07" pbc="T T T"
C       -0.00083770      -0.02685004       3.93867743       0.00291640      -0.00028821       0.00749680
C       -1.24471215       2.12170825       3.94613123      -0.00205338       0.00188656       0.00282153
C       -2.48980942       4.25505959       3.68810926      -0.00394893       0.00495406       0.00167836
C       -3.70571907       6.39480101       3.65387244       0.00415445      -0.00231777       0.00278103
C       -4.92329652       8.52555737       3.80497535      -0.00613425      -0.00154306      -0.00621141
C        2.47429996      -0.05696377       3.80135938      -0.00389506       0.00346853       0.00383448
C        1.25185717       2.05712186       4.08964689      -0.00232000      -0.00387522      -0.00889332
C       -0.05592220       4.29027127       3.71672139       0.00694351       0.01127233       0.00890835
C       -1.25820897       6.39232162       3.38779440       0.00830613      -0.00473453       0.00219849
C       -2.45244797       8.51194884       3.59005665      -0.00053626       0.00124785      -0.00855696
C        4.93354098      -0.02845245       3.62696829       0.00692838      -0.00450741       0.00607048
C        3.67383926       2.04104653       3.52097294       0.00186097       0.00171764       0.00639914
S        1.36898837       6.33273659       2.63764548      -0.01174881      -0.00175426      -0.00385899
C        0.00655773       8.53233097       3.46495039      -0.00316116      -0.00554830      -0.00375355
C        7.39381353      -0.00887242       3.70783261       0.00121696       0.00068693      -0.00021464
C        6.14790424       2.13291346       3.59229797      -0.00250551      -0.00498782       0.00431264
C        4.96089775       4.32120006       3.55444282       0.01009565       0.00055910       0.00080795
C        3.77165395       6.43907568       4.27126823      -0.00947025       0.00773465      -0.00192329
C        2.46608071       8.54332667       3.75440878      -0.00261844       0.00324128      -0.00182190
C        9.86191055      -0.00840127       3.90219830      -0.00011424      -0.00573371      -0.00653067
C        8.62015623       2.12496675       3.78139358      -0.00291381      -0.00086181      -0.00643011
C        7.38993185       4.26464692       3.69924177       0.00411236      -0.00313445       0.00089407
C        6.18434264       6.41193671       3.81541360       0.00216978       0.00112430       0.00318297
C        4.94247582       8.53644374       3.91629695      -0.00024655       0.00803468       0.00084671
C       -0.00492340       1.39962900       4.01491345      -0.00118560      -0.00307054       0.00734008
C       -1.26542033       3.53831795       3.79554281      -0.00108007       0.01141870       0.00691555
C       -2.48629477       5.67687022       3.57046441       0.00559266      -0.00019208      -0.00463235
C       -3.69513511       7.81251495       3.67646876      -0.00136780      -0.00007876       0.00068929
C       -4.93494850       9.93799295       3.86378314      -0.00206995      -0.00119954      -0.00126880
C        2.47044241       1.35715327       3.83744175      -0.00091027       0.00078810      -0.00168030
P        1.32573986       3.71616684       4.62632350      -0.01103669      -0.01010894       0.00773882
C       -0.08080162       5.63267469       3.27513237       0.01718421       0.00908054      -0.00013357
C       -1.22532609       7.81135558       3.43009356      -0.00159409      -0.00966841      -0.00118526
C       -2.45906353       9.93306536       3.66739677      -0.00002676       0.00481133      -0.00167414
C        4.92533298       1.40551548       3.57532963       0.00031667      -0.00617171       0.00882441
S        3.53367406       3.63432560       2.86677603       0.00004875      -0.00060870      -0.01205094
C        1.26737928       7.89564684       3.36632613      -0.00392584       0.00314601       0.00439750
C        0.00235957       9.95491910       3.61103169       0.00536520      -0.00693299       0.00472810
C        7.38017192       1.42237448       3.70229201      -0.00367300       0.00104323      -0.00010180
C        6.14619843       3.55858845       3.61844084       0.00827086      -0.00372687      -0.00395813
C        4.92420052       5.71938391       3.87361852       0.00202295       0.00407547       0.00447886
C        3.70059938       7.79981714       3.95894651      -0.00026565       0.01007588      -0.00513201
C        2.45980642       9.96572496       3.80943437      -0.00171445      -0.00116511      -0.00282139
C        9.85865587       1.41388692       3.88840043      -0.00280905      -0.00501483      -0.00267046
C        8.61672027       3.54657697       3.72974417      -0.00165643      -0.00112057      -0.00162261
C        7.39775088       5.68818857       3.72375672       0.00292811      -0.00338806      -0.00502032
C        6.17851306       7.82748794       3.86408564      -0.00482388       0.00126984      -0.00045063
C        4.93139730       9.95626838       3.92156538       0.00390370       0.00403893       0.00202463
Cd       2.59306771       5.47422963       5.82473488      -0.00453154      -0.00394224      -0.00677268
