49
Lattice="12.336457 0.0 0.0 -6.168228499999997 10.683685154694365 0.0 0.0 0.0 15.0" Properties=species:S:1:pos:R:3:forces:R:3 energy=-429.11847721223637 free_energy=-429.11847721223637 stress="-0.005830559961181224 6.294659807340198e-06 2.628542461605725e-06 6.294659807340198e-06 -0.0013713214256265555 8.859094141741913e-07 2.628542461605725e-06 8.859094141741913e-07 -7.032195787952355e-07" pbc="T T T"
C        0.00177811       0.00467077       3.66037959       0.00146258      -0.00618937      -0.00358606
C       -1.24409168       2.12798416       3.52341333      -0.00066849      -0.00053693       0.00059990
C       -2.49492541       4.26963852       3.62797092       0.00073210       0.00250917       0.00401139
C       -3.71844782       6.41069144       3.72360368       0.00362236       0.00214320      -0.00101832
C       -4.93810093       8.55083697       3.74025823       0.00532679      -0.00046582       0.00788624
C        2.46883147      -0.00115741       3.79611172       0.00161706       0.00481510      -0.01129526
C        1.25601258       2.08768608       3.42729674      -0.00371481      -0.00663735       0.00210771
C       -0.05992020       4.31505994       3.46169579       0.00855826      -0.00450085       0.00092336
C       -1.28541012       6.42839087       3.78997392      -0.00273654      -0.00427100      -0.00090761
C       -2.47950805       8.55431673       3.85816817       0.00377269       0.01261015      -0.01042098
C        4.94093342      -0.00489138       3.88174605       0.00227128       0.00296379       0.00271020
C        3.70972348       2.15987296       3.80374375      -0.00057762      -0.00703105      -0.00206303
C        1.12122470       6.39113016       4.16120046      -0.00053019       0.00105298       0.00271123
C       -0.00220134       8.53010604       3.95111935      -0.00296790      -0.00540448       0.00189125
C        7.41222602      -0.02538319       3.85103988      -0.00176741       0.00796645      -0.00225583
C        6.17418915       2.13077579       3.78507399      -0.00885169       0.00093619       0.00369967
C        4.90342354       4.29490370       3.72578244      -0.00150629      -0.00882274       0.00451125
O        3.81514065       6.47801593       3.72486029       0.00327214       0.00233456       0.00384582
C        2.49723718       8.49620144       3.91127841       0.00266302       0.00324879       0.00075968
C        9.86581271      -0.01900656       3.72377890       0.00185464      -0.00686433       0.00768092
C        8.63137758       2.12177576       3.69049524       0.00630500       0.00193166       0.00016237
C        7.38579074       4.26699712       3.68205999      -0.00249512      -0.00087322      -0.00176029
C        6.17514882       6.41937775       3.65989753      -0.00358256       0.00272303       0.01491132
C        4.94975988       8.55272883       3.72885233      -0.00000571       0.00483163       0.00179862
C       -0.00253912       1.42255287       3.52655092      -0.00276913      -0.00554692      -0.00024729
C       -1.25707538       3.56060538       3.51191201      -0.00207013       0.00042811       0.00612397
C       -2.49696652       5.69839331       3.70743960      -0.00098767      -0.00332371      -0.00005121
C       -3.70666585       7.83750620       3.77948340       0.00979592       0.00577844      -0.01277729
C       -4.93444269       9.97758502       3.73856956       0.00429670      -0.00088481      -0.00292862
C        2.47472743       1.41408318       3.70507573       0.00094492      -0.00075721      -0.00471081
P        1.43850104       3.69271009       2.74799808      -0.01089842       0.00703744      -0.00734939
C       -0.04845894       5.72674062       3.78561649       0.00142870       0.00155574      -0.01054950
C       -1.25070353       7.84165316       3.88633917      -0.00532698      -0.00278489      -0.00071268
C       -2.46804670       9.97217077       3.87071105       0.00231131       0.01207412      -0.01202420
C        4.94871981       1.41814174       3.84031306      -0.00508332      -0.00293381       0.00448809
C        3.70640380       3.56331832       3.85995729       0.00581326      -0.01059790       0.01422014
C        1.23406578       7.76495344       4.02400682       0.00280192       0.00271012      -0.00320907
C        0.00567332       9.95139634       3.90754153       0.00061642      -0.00293848      -0.00815113
C        7.40830104       1.40332024       3.77830210      -0.00106934       0.01143429       0.00556634
C        6.15899680       3.56148600       3.71398857      -0.00437301      -0.00293125       0.00148675
C        4.97500634       5.72759135       3.67547869      -0.00192730      -0.00437776       0.00683444
C        3.74625685       7.85417260       3.79362081       0.00238483       0.00168526       0.01083838
C        2.47937408       9.92685220       3.83440945      -0.00248011       0.00069010      -0.00818515
C        9.86660724       1.41298189       3.64390990       0.00364067      -0.00829459      -0.00263478
C        8.62336952       3.55096192       3.66355400       0.00188730       0.00272894      -0.00776744
C        7.39730103       5.69007887       3.67841059       0.00046279       0.00130915       0.00140454
C        6.17958002       7.84438407       3.69386558      -0.00074555       0.00483794       0.00223143
C        4.93544657       9.97612180       3.70711150       0.00215072      -0.00272127       0.00079199
Cd       2.37795693       4.84806531       4.99075297      -0.01285809      -0.00264658       0.00040895
