49
Lattice="12.336457 0.0 0.0 -6.168228499999997 10.683685154694365 0.0 0.0 0.0 15.0" Properties=species:S:1:pos:R:3:forces:R:3 energy=-421.8514617341855 free_energy=-421.8514617341855 stress="-0.0018027465038808295 -0.0007071364526437399 -1.6771548528043885e-05 -0.0007071364526437399 -0.005498849353314432 4.809268631940486e-06 -1.6771548528043885e-05 4.809268631940486e-06 -9.792402581613765e-07" pbc="T T T"
C        0.00022199      -0.03041891       3.66048893       0.00122230       0.00132177       0.00038320
C       -1.23739817       2.11109758       3.45874532       0.00355944       0.00435172       0.00372729
C       -2.49320196       4.25487407       3.48441430      -0.01670297       0.00194417       0.00058966
C       -3.70946652       6.39077487       3.64188177       0.00274010      -0.00213075      -0.00048448
C       -4.92476835       8.52124835       3.72719982      -0.00371830       0.00117520      -0.00989084
C        2.47041766      -0.05202340       3.73833906      -0.00048542       0.00024480      -0.00092122
C        1.25637267       2.02810484       3.39977541       0.01097545      -0.00394815      -0.00566470
C       -0.11950353       4.26416475       2.96122832       0.00374200       0.00480730       0.00588007
C       -1.26822112       6.40691121       3.27914510       0.00255821      -0.00088424      -0.00160547
C       -2.44944243       8.51750258       3.60518615       0.00359269       0.00658960       0.01114262
C        4.93829815      -0.02383207       3.83424153       0.00507179       0.00290693      -0.00388862
C        3.66863118       2.05742985       4.12546957       0.00122609       0.00204695       0.00316764
S        1.40634240       6.40523584       2.56814584      -0.01909422      -0.00325904      -0.00377957
C        0.00825016       8.54569855       3.51780509      -0.00219306      -0.00760187      -0.01475185
C        7.40204349      -0.00485785       3.82361348      -0.00317512      -0.00348537       0.00188030
C        6.16535624       2.12549253       4.04593886      -0.00455916      -0.00399143      -0.00023293
C        5.00157916       4.30358650       4.39929335       0.01343897       0.00070576      -0.00106622
C        3.77204231       6.47889986       4.48804110       0.00223308      -0.00525845      -0.01007462
C        2.47324092       8.54838702       3.80432494      -0.00353657       0.00314695      -0.00375094
C        9.87533751      -0.00565710       3.77652712       0.00416836      -0.00389854       0.00134306
C        8.63222240       2.12770690       3.76049655      -0.00393201      -0.00464997       0.00208127
C        7.40249742       4.26235725       3.88301895      -0.00318453      -0.00585957       0.00668662
C        6.18934738       6.41341198       3.95877585       0.00859851       0.00139523       0.01177779
C        4.94492613       8.53505370       3.88797773      -0.00177777       0.00443720       0.01149697
C       -0.00234572       1.39254975       3.48915424       0.01042259       0.00161689       0.00257713
C       -1.27033313       3.52599364       3.29829847      -0.00672000       0.01110937       0.00860499
C       -2.49165838       5.67812762       3.46569487      -0.00155090      -0.00022840      -0.00369422
C       -3.69496626       7.81026944       3.64944902       0.00305265       0.00287684       0.00612406
C       -4.93456382       9.93683842       3.69396657      -0.00301562       0.00046608      -0.00586742
C        2.46093794       1.35958063       3.78253101       0.01514368      -0.00440388      -0.00851676
S        1.43321311       3.54867870       2.62932442      -0.00573278       0.00600437       0.01515627
C       -0.12269475       5.66614743       2.94648558       0.00678665       0.00628127      -0.00660441
C       -1.22242618       7.82342668       3.44136253      -0.00137992      -0.00494437      -0.00692784
C       -2.45380425       9.93518762       3.74071711       0.00238567       0.00965269       0.00241222
C        4.93219829       1.39742323       4.03351846      -0.00116887       0.00052876      -0.00333677
P        3.57271237       3.54267642       5.04001856      -0.01518651       0.00141602       0.00547658
C        1.27080665       7.91150276       3.39296331      -0.00626193      -0.00547595      -0.01159969
C        0.00450182       9.96134205       3.74856231       0.00057298      -0.00702878      -0.00359098
C        7.39801746       1.42138929       3.88855491      -0.00751804      -0.00244886       0.00082702
C        6.18042917       3.55415152       4.11581267       0.00370513      -0.00356421       0.00177248
C        4.95631487       5.73988471       4.27313627       0.00699545      -0.00019848       0.00051666
C        3.70600105       7.80894544       4.04516071      -0.00384095       0.00641560      -0.00141018
C        2.47020739       9.97021716       3.82519354      -0.00055646      -0.00002872      -0.00705244
C        9.87449124       1.41605439       3.66623375       0.00288513      -0.00308506       0.00328266
C        8.62260042       3.54984418       3.71057102      -0.01095805      -0.00439780       0.00574771
C        7.40103493       5.68680007       3.82593348       0.00265343      -0.00652186      -0.00302268
C        6.17929061       7.82321525       3.84991483      -0.00290221       0.00246011       0.00019898
C        4.93614130       9.95147112       3.76406290       0.00311608       0.00090446       0.00249535
Cd       2.26616210       5.58568269       5.80802487       0.00830492       0.00248770       0.00238627
