49
Lattice="12.336457 0.0 0.0 -6.168228499999997 10.683685154694365 0.0 0.0 0.0 15.0" Properties=species:S:1:pos:R:3:forces:R:3 energy=-425.3719823976349 free_energy=-425.3719823976349 stress="-0.0033556127872860194 -0.0016694520017013028 1.5414645490455396e-05 -0.0016694520017013028 0.0034868311363621266 1.7358213530486386e-05 1.5414645490455396e-05 1.7358213530486386e-05 -2.7204017062456356e-06" pbc="T T T"
C       -0.00565156      -0.01175752       3.75464044      -0.00861424       0.00236480       0.00349202
C       -1.25137393       2.12176582       3.70610721      -0.01340182       0.00151760       0.00477743
C       -2.46246452       4.26145754       3.68561347      -0.00327817       0.00373797       0.00929881
C       -3.68512679       6.40476718       3.72628434       0.01265297       0.00371824      -0.00394266
C       -4.92213808       8.55106054       3.78161223       0.00363420      -0.00535182      -0.00894022
C        2.45406992       0.01861585       3.68906862      -0.00504772       0.00240254       0.00969637
C        1.18001766       2.13855845       3.67889334       0.00236018       0.00545585      -0.01115223
C       -0.03215300       4.25870054       3.69883642       0.00104384       0.00701297      -0.00059475
C       -1.23011620       6.38395736       3.68279806      -0.00029752       0.00221921      -0.00889671
C       -2.46077211       8.53819830       3.70538454      -0.00079011      -0.00197046      -0.00165947
C        4.92589160      -0.00965879       3.63211449       0.00163860      -0.00626764      -0.00493391
C        3.68096939       2.09701304       3.36332826       0.00417386       0.00274493       0.00140025
O        1.14451129       6.40953601       3.76642800       0.00029139      -0.00547932      -0.00693495
C       -0.00644328       8.51703476       3.71671948      -0.00140507      -0.01543958       0.00496142
C        7.39395854      -0.03749671       3.69635536       0.00892887       0.00404976       0.00974913
C        6.15849035       2.12837048       3.54652383      -0.00424957      -0.00122804       0.00140595
C        5.00269527       4.32323299       3.55722653       0.00850314       0.00166685      -0.00175672
C        3.83064970       6.41373512       4.37392192       0.00896901       0.00149128       0.00715804
C        2.43640477       8.47197259       3.88863169      -0.00225856       0.00302742      -0.00015500
C        9.85034192      -0.03960681       3.77637389       0.00450556      -0.00431654      -0.00122912
C        8.62430614       2.11292058       3.68149532       0.00278732      -0.00618215       0.00000298
C        7.42172569       4.26428574       3.69445062      -0.00003216       0.00412719      -0.00239683
C        6.21344274       6.41923701       3.81930274      -0.00369276       0.00480731       0.00054667
C        4.93899509       8.52543755       3.88646860      -0.00678822       0.00387758      -0.00386240
C       -0.01226933       1.42364515       3.71309223      -0.00605506       0.00684780       0.00164113
C       -1.23480992       3.55051073       3.68302306      -0.00281128       0.00605252       0.00604238
C       -2.45913095       5.67690981       3.69260409       0.00662996       0.00383261      -0.00541044
C       -3.69478410       7.83196420       3.73984939       0.00803454      -0.00406276      -0.00567007
C       -4.93728074       9.97729891       3.75488860      -0.00647959      -0.00448848       0.00096803
C        2.43092952       1.45081396       3.59470504       0.00104621       0.00683541      -0.00418382
O        1.13607073       3.51354652       3.81290519       0.00499504       0.00596192       0.01150571
C       -0.03061609       5.67301314       3.68783315      -0.00235313       0.00419077       0.00336256
C       -1.23823492       7.81586561       3.69384508      -0.00792818      -0.00529941      -0.00447602
C       -2.47621196       9.97563173       3.67798179      -0.00347846      -0.00177972       0.00399576
C        4.91774656       1.42506911       3.51324133      -0.00245250       0.00122831      -0.00342742
S        3.64157048       3.70335296       2.72676123       0.00815363      -0.00176863      -0.00710572
C        1.19643041       7.79500377       3.78562840       0.00024833      -0.00782409       0.00665587
C       -0.00414069       9.94851294       3.68607396       0.00929707      -0.00846095      -0.00193536
C        7.38558721       1.40366357       3.64155991       0.00079527       0.00280772       0.00538771
C        6.18146678       3.55459868       3.60190265       0.00109917      -0.00473647       0.00034477
C        4.96477171       5.71912394       3.90833271      -0.00458948      -0.00313254      -0.00787531
C        3.70674610       7.76395455       4.03974479      -0.00354616      -0.00210952      -0.00029011
C        2.44743177       9.90760356       3.78680477       0.00988811       0.00549161       0.00269257
C        9.86024755       1.39731802       3.72009918      -0.00215299      -0.00991320      -0.00022121
C        8.63912805       3.54136799       3.68612824      -0.00093172      -0.00248227      -0.00102193
C        7.42683741       5.69242794       3.74089743       0.00335118       0.01229625       0.00234985
C        6.18763931       7.83831757       3.84271706      -0.00583087       0.00697911      -0.00272659
C        4.92670494       9.94575658       3.80536835      -0.00416555       0.00217550       0.00597058
Cd       2.71533289       5.39194052       5.91015253      -0.01039655      -0.01662743      -0.00260699
