49
Lattice="12.336457 0.0 0.0 -6.168228499999997 10.683685154694365 0.0 0.0 0.0 15.0" Properties=species:S:1:pos:R:3:forces:R:3 energy=-430.49187302172174 free_energy=-430.49187302172174 stress="-0.0051805240962955355 -0.0025674519386512692 -1.0811716224750027e-05 -0.0025674519386512692 0.002567095728191349 3.641565609192773e-06 -1.0811716224750027e-05 3.641565609192773e-06 1.322604315423848e-06" pbc="T T T"
C       -0.00763782       0.00354085       3.83650868       0.00424200       0.00451310      -0.00145511
C       -1.26181819       2.12125841       3.87548250       0.00394056       0.00217680      -0.01067419
C       -2.47865982       4.26619315       3.80554815      -0.00413443      -0.00571409      -0.00367881
C       -3.68201173       6.41976800       3.71592923      -0.00365123      -0.00022395       0.00486682
C       -4.91928876       8.56825210       3.75546265      -0.00142334       0.00297936       0.00557975
C        2.46118261       0.02996973       3.83291086      -0.00141753      -0.00133285      -0.00152393
C        1.18715482       2.17377652       3.93041480       0.00346808      -0.00240725      -0.00666015
C       -0.03877214       4.23993604       4.08157262       0.00345483      -0.00386167      -0.00041264
C       -1.24936980       6.41009367       3.93301241      -0.00100905      -0.01004977      -0.00438193
C       -2.46411135       8.55828668       3.83698311       0.00498827       0.00649456      -0.00126078
C        4.92970455       0.00350632       3.72617331       0.00249123      -0.00248648      -0.00010618
C        3.66418895       2.09127947       3.40144897      -0.00205675      -0.00961310       0.00575377
N        1.11861925       6.42200734       4.20364118       0.00851176       0.00443576       0.00639223
C       -0.00315875       8.52758431       3.89528906       0.00079730       0.00707860       0.00226093
C        7.39648528      -0.03013455       3.73655630      -0.00160649       0.00462684       0.00528831
C        6.15835625       2.13380095       3.47179324      -0.00149671      -0.00507869      -0.00234292
C        5.03567051       4.34558585       3.14805420       0.00584735       0.00401076       0.01084094
N        3.84018201       6.41497088       3.65039778      -0.00262428       0.00713173      -0.01554863
C        2.46740256       8.46878635       3.86722506      -0.00044905      -0.00668188       0.00432020
C        9.85201866      -0.03411173       3.79301781      -0.00666660      -0.00672549      -0.00328664
C        8.61994059       2.11976903       3.68992781       0.00092968       0.00851210       0.00768854
C        7.42469814       4.27918559       3.53381215      -0.00289527       0.00015311      -0.00225013
C        6.23278828       6.45193630       3.49189340       0.00411888       0.00282177      -0.00458453
C        4.94633109       8.53800146       3.72043727       0.00364297       0.00187418      -0.00400409
C       -0.02305791       1.43047305       3.89079848       0.00510304       0.00310465      -0.00378752
C       -1.26089218       3.54360905       3.91978028      -0.00013688      -0.00045576      -0.00683413
C       -2.46918928       5.69224266       3.81756177      -0.00695621      -0.00855039      -0.00044003
C       -3.68957582       7.84685879       3.77157218       0.00076937       0.00584727       0.00543619
C       -4.93467389       9.99087704       3.83370501      -0.00109825       0.00181051       0.00854813
C        2.44482176       1.46035697       3.76292277      -0.00104774      -0.00520883      -0.00088929
N        1.12040725       3.51939140       4.16857742       0.00086447      -0.00555636       0.01177011
C       -0.03607538       5.70697832       4.09087658       0.00795739      -0.00268311      -0.00147313
C       -1.23680169       7.83518805       3.89415972       0.00316320      -0.00353827      -0.00113201
C       -2.47064463       9.99011553       3.80974659       0.00102306       0.00520331      -0.00517496
C        4.92031902       1.42972169       3.52981864      -0.00157213      -0.00962081      -0.00189438
S        3.58804118       3.61275205       2.53834079      -0.01918453       0.00105524      -0.00254483
C        1.21087404       7.77332208       3.99240542      -0.00096234       0.00409357       0.00243702
C       -0.00204642       9.95546102       3.78334310       0.00198570       0.00637493       0.00334533
C        7.38284120       1.40851609       3.62549112       0.00045855       0.00711021       0.00754631
C        6.18658256       3.57032545       3.37160986       0.00069686      -0.00337139      -0.00903633
C        5.01446462       5.76615678       3.35875600       0.00327691       0.00558574       0.00330668
C        3.73382200       7.77744491       3.75445090       0.00419559       0.00173443       0.00031778
C        2.45779160       9.90697774       3.79864197      -0.00897177      -0.00908203       0.00248246
C        9.84644967       1.39932702       3.78988325      -0.00031469       0.00001458       0.00251218
C        8.63309057       3.55003939       3.67267220      -0.00473859       0.00443548       0.00598105
C        7.43926166       5.70728985       3.56285875      -0.00028472      -0.00158909       0.00300729
C        6.19528400       7.85966048       3.65353783       0.00264436       0.00119697      -0.00483274
C        4.92612381       9.95842010       3.79402124       0.00310050       0.00226831      -0.00501854
Cd       2.67028040       4.96380089       4.83569519      -0.00697331      -0.00281258      -0.00445342
