49
Lattice="12.336457 0.0 0.0 -6.168228499999997 10.683685154694365 0.0 0.0 0.0 15.0" Properties=species:S:1:pos:R:3:forces:R:3 energy=-428.90992315540785 free_energy=-428.90992315540785 stress="-0.0039019799674282836 -0.003860592592002555 -5.52270780098218e-06 -0.003860592592002555 0.00259486711103025 2.2363701932082037e-06 -5.52270780098218e-06 2.2363701932082037e-06 -3.4515834771894975e-07" pbc="T T T"
C       -0.00952372       0.00281758       3.86704240       0.00099312       0.00313082      -0.00450857
C       -1.26984600       2.11835094       3.91540146       0.00573090      -0.00126426      -0.00670142
C       -2.49135272       4.26627466       3.83826786       0.00608507      -0.00481523       0.00024756
C       -3.68392101       6.41801035       3.74354717      -0.00665712      -0.00052282      -0.01118805
C       -4.92007430       8.56581185       3.76908589      -0.00297812       0.00131953       0.00622328
C        2.46296572       0.02629415       3.87677080       0.00242072      -0.00452466      -0.00828839
C        1.17664203       2.15318243       3.98202096      -0.00410294       0.00186012      -0.00028328
C       -0.05738942       4.23705084       4.10265063      -0.00040517      -0.00122483       0.00109959
C       -1.23744582       6.40452899       3.94919076      -0.00126026       0.00056175       0.00203623
C       -2.45621341       8.55554348       3.86354822       0.00669154       0.00041682      -0.01108470
C        4.93636872       0.00053659       3.74582421       0.00176133      -0.00049697      -0.01135808
C        3.66197065       2.11823993       3.48001283       0.00070962      -0.01417447       0.00836483
N        1.16058560       6.39610768       4.16568762       0.00836146      -0.00028237       0.00186863
C        0.01602532       8.51285466       3.88106359       0.00063061       0.01185676      -0.00402684
C        7.40060454      -0.02988962       3.72972414      -0.00863826      -0.00394407       0.00007712
C        6.15769190       2.14144903       3.50382788       0.00383734       0.00368620       0.00060784
C        4.99722053       4.36292653       3.15561358       0.00736433       0.00737451       0.00062169
O        3.84483541       6.48392468       3.39990062       0.00673158       0.00310924      -0.01310396
C        2.48612281       8.46149749       3.78995830      -0.00360283      -0.00595525       0.00134321
C        9.84971674      -0.03282902       3.79083017      -0.00683135      -0.00112027      -0.00711270
C        8.61283687       2.12249085       3.71741718       0.00258242       0.00447270      -0.00824249
C        7.40859116       4.28232554       3.54694801      -0.00126918       0.00602786       0.00274297
C        6.23105310       6.46215094       3.43055057      -0.00122843       0.00004980      -0.00178592
C        4.95192444       8.55112428       3.68378097       0.00064701      -0.00159046      -0.00635317
C       -0.03354908       1.42440873       3.93569161       0.00159702       0.00109559      -0.00451860
C       -1.27318306       3.54229413       3.95424828       0.00499670      -0.00619007      -0.00072728
C       -2.46778372       5.69155120       3.84908934      -0.00508707      -0.00258480       0.00050172
C       -3.68440188       7.84567484       3.79728291      -0.00111095       0.00251954       0.00188217
C       -4.93182371       9.98982159       3.86346561      -0.00147144       0.00179805       0.01412752
C        2.44013096       1.45144234       3.81884590      -0.00435298      -0.00465545      -0.00378949
N        1.09514120       3.50343838       4.21638325      -0.00472687      -0.00060939       0.01697840
C       -0.02046532       5.69894746       4.08905753       0.00315141      -0.00063736       0.00238140
C       -1.22510458       7.82802874       3.90468804       0.00618760       0.00401872       0.00396539
C       -2.46475978       9.98540671       3.83990993       0.00534566      -0.00203822      -0.00738842
C        4.92175200       1.42618462       3.56793742       0.00545615      -0.00374861       0.00601585
P        3.52349356       3.62296675       2.56912034      -0.00990324      -0.00483439       0.00671169
C        1.22735017       7.75375136       3.94239163      -0.00416810       0.00428375       0.00753505
C        0.00410931       9.94860972       3.77912771      -0.00593930       0.00631037       0.00240165
C        7.38372588       1.41050866       3.64261404      -0.00059540      -0.00056057       0.00731152
C        6.17786066       3.58052451       3.38368494      -0.00082309       0.00882714       0.00333716
C        5.04912878       5.78647267       3.21679076       0.00229889       0.00061652       0.00339670
C        3.75380321       7.84892472       3.64557848       0.00262749      -0.00399285      -0.00330499
C        2.46209667       9.90768763       3.76754103      -0.01121156      -0.00614462       0.00656944
C        9.84026551       1.40313158       3.81499634       0.00243835       0.00176065       0.00093014
C        8.61974523       3.55344024       3.70234046       0.00248280       0.00533456       0.00256877
C        7.43838495       5.70897306       3.56689453      -0.00696352       0.00079589       0.00444490
C        6.20379003       7.86648591       3.62480277      -0.00083382      -0.00259599      -0.00539925
C        4.92639569       9.96923218       3.79514102      -0.00026179       0.00143310      -0.00017793
Cd       2.68190152       4.84986654       4.73842985       0.00329368      -0.00415200       0.00305112
