49
Lattice="12.336457 0.0 0.0 -6.168228499999997 10.683685154694365 0.0 0.0 0.0 15.0" Properties=species:S:1:pos:R:3:forces:R:3 energy=-428.6128013807078 free_energy=-428.6128013807078 stress="-0.005749960459044553 0.0035246257717621754 9.181290039549817e-07 0.0035246257717621754 0.0025747358012244413 -3.7070846415143147e-06 9.181290039549817e-07 -3.7070846415143147e-06 -1.4931797907491084e-06" pbc="T T T"
C        0.00003141       0.01458784       3.79095466       0.00384216      -0.00207202       0.00410026
C       -1.22899540       2.13944775       3.89874953      -0.00017428      -0.00069356      -0.00170184
C       -2.46329272       4.27696612       3.81120783      -0.00527189       0.00362561      -0.00057525
C       -3.70761371       6.41598712       3.66180088      -0.00215404      -0.00243273       0.00701848
C       -4.94787087       8.56321476       3.63428241       0.00625466      -0.00655741       0.00071531
C        2.45968503       0.06298310       3.79228224      -0.01378045       0.00292063       0.00392821
C        1.21846722       2.20659802       3.98290133      -0.00239178       0.00047141      -0.00051763
C       -0.03908862       4.28555291       4.11492855       0.00438057       0.00639462       0.00148523
C       -1.26931711       6.42471295       3.95312892       0.00065950      -0.00220187      -0.00081288
C       -2.48698519       8.56717132       3.80110605       0.00139747      -0.00376192      -0.00171932
C        4.93113188       0.00781028       3.77570133      -0.00260398       0.00061893      -0.00038899
C        3.74542667       2.17279554       3.70225810       0.00316553      -0.00454847       0.00138040
O        1.06252145       6.48244950       4.25764856       0.00630196      -0.00119868       0.00137522
C       -0.02840776       8.54396291       3.92001616       0.00190890       0.00098362      -0.01019875
C        7.40754444      -0.02679180       3.82825409      -0.00341733       0.00538786       0.00884403
C        6.20729192       2.10199501       3.59427957       0.00140956       0.00836754      -0.00537571
C        5.03514232       4.18446683       3.29160169      -0.00380738      -0.00381609      -0.00216742
P        3.51590230       6.32508655       2.61044001      -0.00010135      -0.01219760       0.00080601
C        2.43087729       8.50165563       3.81985424      -0.00880340       0.00399667       0.00024664
C        9.86858510      -0.02372539       3.82491651      -0.00131182      -0.00722836      -0.00360408
C        8.65516689       2.11929913       3.75141586      -0.00598982      -0.00712139       0.00209709
C        7.44923895       4.25666759       3.51386626       0.00566373       0.00108491      -0.00086940
C        6.19196438       6.39853117       3.35488295       0.00821564       0.00287516       0.00435883
C        4.91993104       8.53530512       3.56836605       0.00401289       0.01224285       0.00065336
C        0.00445992       1.44566835       3.89772930       0.00054626      -0.00316860      -0.00093358
C       -1.24391271       3.56633750       3.94149835      -0.00113739       0.00644585      -0.00089823
C       -2.48577202       5.69877873       3.80714138      -0.00445658       0.00309898      -0.00006119
C       -3.71861660       7.84925539       3.69486404       0.00483433      -0.00574672       0.00370963
C       -4.93693821       9.99975372       3.74346311      -0.00446797      -0.00571646       0.00038807
C        2.47408852       1.50163349       3.84358529      -0.00233402       0.00230711       0.00319616
N        1.12994315       3.55962745       4.20899710       0.00301383      -0.00140126       0.00876835
C       -0.09750898       5.71738989       4.13085418       0.00505333       0.00517024      -0.00576146
C       -1.27151999       7.85305450       3.90181828       0.00487138      -0.00311458       0.00116838
C       -2.48331344      10.00423102       3.79033144      -0.01062254       0.00175292      -0.00872677
C        4.95575569       1.42360209       3.67071285       0.00642355       0.00017365      -0.00168479
N        3.86457315       3.53402083       3.58584505      -0.00867028      -0.00987142      -0.00755272
C        1.16667449       7.84650630       3.96245565      -0.00215361      -0.00497647      -0.00899701
C       -0.00484414       9.97061948       3.83707794       0.00122597       0.00259680       0.00312206
C        7.42621696       1.39702629       3.72500613      -0.00754803       0.00283024       0.00195827
C        6.24616695       3.50550879       3.41436757       0.00217386       0.00693198      -0.00130399
C        5.01578641       5.62744920       3.15401899       0.00796350       0.00068603      -0.00748288
C        3.66693654       7.84074840       3.49033219      -0.00297450       0.01702547       0.00151279
C        2.46034587       9.93297880       3.85674425      -0.00679408       0.00101531       0.00184715
C        9.88001867       1.40894145       3.83771631      -0.00242958      -0.01026619      -0.00313022
C        8.65967859       3.54650549       3.68770752      -0.00209530      -0.00475022      -0.00038681
C        7.42433480       5.68871620       3.49891854       0.00475449      -0.00095522       0.00480277
C        6.16486474       7.83486618       3.48878983       0.00610424       0.00247747       0.00190553
C        4.93365248       9.96259200       3.74468080       0.00705049       0.00360966       0.00450660
Cd       2.71898560       4.92600762       4.78521972       0.00426363      -0.00129431       0.00095608
