49
Lattice="12.336457 0.0 0.0 -6.168228499999997 10.683685154694365 0.0 0.0 0.0 15.0" Properties=species:S:1:pos:R:3:forces:R:3 energy=-419.6724504228824 free_energy=-419.6724504228824 stress="-0.000949139954233826 -0.0021374781723425946 1.6014710033314526e-05 -0.0021374781723425946 -0.004273871814510738 2.717275025464771e-05 1.6014710033314526e-05 2.717275025464771e-05 6.111824648519768e-06" pbc="T T T"
C       -0.00596200      -0.00646249       3.68763481      -0.00227171      -0.00677514      -0.00483131
C       -1.24436330       2.13491369       3.52446236       0.00223551       0.00245992       0.00793118
C       -2.50018250       4.27315799       3.54588013      -0.00852629      -0.00481065       0.00044159
C       -3.71327655       6.40754805       3.65455906       0.00728677       0.00289715      -0.00124748
C       -4.93642807       8.53640068       3.71971488      -0.01029608       0.00831315      -0.00198286
C        2.46478100      -0.04210883       3.79375669       0.00662152      -0.00189225      -0.00512378
C        1.25142706       2.05099452       3.47299987       0.00063494      -0.00407696       0.00332178
C       -0.11374684       4.28806373       3.06968624       0.00110027       0.01174398      -0.00384727
C       -1.26841826       6.42263208       3.34389718      -0.00553299       0.00119547      -0.00672915
C       -2.45188267       8.53224444       3.65296699       0.00392373      -0.00124263       0.00513212
C        4.93458843      -0.00878333       3.86967285       0.00075007       0.00147340       0.00390489
C        3.65910584       2.07652900       4.13082999       0.00397935      -0.00045798       0.00123678
S        1.33226628       6.43991491       2.43943882      -0.00155814      -0.00531366      -0.00039651
C        0.01227548       8.55452654       3.52437785       0.00557947       0.00270293       0.00680181
C        7.39854897       0.00843677       3.82507073       0.00223980       0.00082574       0.00266223
C        6.14466104       2.15920656       4.00561492       0.00049792       0.00010412       0.00253002
C        4.93264301       4.37797191       4.14227509      -0.00586601      -0.01548065      -0.00372529
O        3.77477612       6.49507901       4.02695949       0.00424217       0.01238318      -0.00730128
C        2.49175544       8.54247410       3.66720555      -0.00496609      -0.00438271       0.00569530
C        9.86527804       0.00840306       3.75888326       0.00042423      -0.01188889       0.00056208
C        8.61916821       2.14691729       3.77612531      -0.00629341       0.00438962       0.00254988
C        7.37493111       4.28480852       3.82856624       0.00164839       0.01301362      -0.00434366
C        6.16890928       6.43683352       3.81266840       0.00228190      -0.00151902       0.00169498
C        4.93278314       8.54979964       3.75736060      -0.00024075      -0.00345571       0.00558438
C       -0.00649430       1.41983506       3.54975578       0.00076774      -0.00541696       0.00305800
C       -1.26931665       3.55070302       3.39063690      -0.00261456       0.00723536       0.00252078
C       -2.49260030       5.69430801       3.52376158      -0.00047106      -0.00970915      -0.00665908
C       -3.69686893       7.82655385       3.67212794      -0.00436757       0.00797164       0.00186628
C       -4.94116990       9.95624775       3.72606243       0.00061578       0.00848281      -0.00918876
C        2.45438230       1.36880762       3.83292360       0.00622765      -0.00876855       0.00198000
S        1.44183178       3.58696235       2.73306403       0.00944260       0.00557856      -0.00024992
C       -0.12043254       5.68765994       3.01370369       0.00226925       0.01408791      -0.00305705
C       -1.22501513       7.83719336       3.48170180       0.00689389       0.00003488      -0.00116900
C       -2.45707220       9.94874586       3.79106923       0.00360278      -0.00228517      -0.00230678
C        4.92067883       1.41988584       4.03744569       0.00112590      -0.00316985       0.00266531
P        3.47251134       3.67660149       4.80935407      -0.00263764       0.00410763       0.00469473
C        1.25785990       7.91147672       3.32560200      -0.00042003      -0.00529541      -0.01089296
C        0.00258019       9.97562140       3.76737165       0.00249788       0.00397186       0.00629721
C        7.38338454       1.44224778       3.88708925      -0.00239132       0.00304049      -0.00125354
C        6.13369600       3.59735383       4.00098682       0.00729581       0.00216146      -0.00085029
C        4.96027132       5.78050713       3.99540130      -0.00441097      -0.00447277      -0.00851837
C        3.73902918       7.85083505       3.76718707      -0.00359523       0.01149498       0.01105027
C        2.47038964       9.97133800       3.78085292      -0.00181108      -0.01055003       0.00191649
C        9.86395855       1.43890009       3.69527912      -0.00233028      -0.00276951       0.00336513
C        8.60916074       3.56744539       3.72572418      -0.01178136       0.00486134      -0.00026917
C        7.39094680       5.69998166       3.76509092       0.00791866       0.00938639      -0.00481344
C        6.17243639       7.84447326       3.75371261      -0.00535206      -0.00381852       0.00352912
C        4.92399752       9.97975129       3.72998087       0.00243054      -0.01444971       0.00220070
Cd       2.76560999       4.47561200       7.16822682      -0.00679985      -0.01191568      -0.00643605
