49
Lattice="12.336457 0.0 0.0 -6.168228499999997 10.683685154694365 0.0 0.0 0.0 15.0" Properties=species:S:1:pos:R:3:forces:R:3 energy=-428.45296431689746 free_energy=-428.45296431689746 stress="-0.0038470085848865553 -0.0022248896474759347 -9.09706464300564e-06 -0.0022248896474759347 -0.005651288038468903 -7.392786194432806e-06 -9.09706464300564e-06 -7.392786194432806e-06 -7.836608793899328e-07" pbc="T T T"
C       -0.00579148       0.00073130       4.02864838       0.00460921      -0.00695243      -0.00094731
C       -1.25872039       2.12470394       4.10207252       0.00515982       0.00881955      -0.00100928
C       -2.47767658       4.27546393       4.00203737      -0.01143445      -0.00456483      -0.00960035
C       -3.68463429       6.41284936       3.88109436      -0.00546966       0.00123084       0.01506231
C       -4.92809189       8.55243711       3.92584931       0.00121570      -0.01527459      -0.00213794
C        2.45472182       0.00938101       3.87108228      -0.00203079       0.00659091      -0.00323733
C        1.18689489       2.10160744       3.88291616       0.00880703       0.01031836       0.00902231
C       -0.06236184       4.22381221       3.88240684       0.00290433       0.00400280       0.00493600
C       -1.21237693       6.38841397       3.75959807      -0.00873971      -0.01083109       0.00818829
C       -2.45623335       8.54224474       3.82655541      -0.00241715       0.00207933       0.00438163
C        4.92155678       0.00882247       3.76316630       0.00347179      -0.00658911      -0.00480893
C        3.66385411       2.10118111       3.42781347       0.00937551       0.00382354       0.00339691
P        1.39239797       6.30950289       2.72728891       0.00086404      -0.00456508      -0.00704368
C       -0.00075679       8.55657503       3.65498587       0.00115647       0.00930801       0.00843138
C        7.38044775       0.02291412       3.87140142       0.01052669       0.00126169       0.00160843
C        6.15830756       2.14555056       3.64735348      -0.00517162      -0.00838227      -0.00198874
C        5.03647301       4.30307400       3.24269250      -0.00555062       0.00504238       0.00295555
B        3.65989980       6.42403886       3.55266178      -0.01027889       0.00381665      -0.00946192
C        2.46109811       8.60437260       3.73213747      -0.00462419       0.00219223      -0.00482337
C        9.85559546       0.01207307       4.03467599       0.00081878       0.00361682      -0.00539456
C        8.61257054       2.14636223       3.98632219      -0.00602448      -0.00460826      -0.00743974
C        7.41265407       4.28286696       3.78263703       0.00183142       0.00162522       0.00514154
C        6.19492788       6.42834745       3.72095033       0.01026799       0.00238703       0.00154994
C        4.94216975       8.56530655       3.89124470      -0.00258762      -0.00315706       0.00185918
C       -0.02013781       1.42331132       4.04255014       0.00847815       0.00197993       0.00941670
C       -1.26050697       3.53641069       4.05935563      -0.00412017       0.00881442      -0.00279272
C       -2.45148922       5.69281968       3.90286339      -0.01658573      -0.00757172      -0.00009290
C       -3.69066354       7.83742366       3.88448762       0.00070737      -0.00386831       0.00177607
C       -4.93609911       9.98099185       3.96244608       0.00385632      -0.01381206       0.00655624
C        2.43148228       1.44324728       3.73332972       0.00661130       0.01333825      -0.00164090
O        1.12983180       3.49101567       3.88290305       0.00511193       0.00877687       0.00784938
C       -0.01099724       5.60257307       3.64664844       0.00571207      -0.00046447       0.00023479
C       -1.22406090       7.82182482       3.71841138      -0.00282332      -0.00166064       0.00714477
C       -2.47543570       9.97460655       3.82260397      -0.00333293       0.00377756      -0.00833870
C        4.91224026       1.43684210       3.61028253       0.00087213      -0.01387076      -0.00011306
P        3.68614335       3.53176143       2.34502810      -0.01256032      -0.01204930       0.00324021
C        1.24896777       7.91739997       3.47977295      -0.00548945       0.00035071      -0.00252515
C       -0.01372914       9.98715342       3.77955949       0.01209427       0.00910086      -0.00810525
C        7.37794512       1.44368298       3.86174015      -0.00344488      -0.00444832      -0.00439604
C        6.20114809       3.56124544       3.54555179       0.00081697      -0.00219657      -0.00592289
C        4.99496816       5.70220251       3.47616758       0.00721111       0.01000666      -0.00727199
C        3.69681497       7.90065325       3.74332263      -0.00575672       0.00554787      -0.00593729
C        2.44942088      10.01078082       3.92161088       0.00441668      -0.00078311      -0.00013635
C        9.84932808       1.43155963       4.08058504       0.00103615       0.00600392      -0.00567459
C        8.62468922       3.56872321       3.95412618      -0.00503019      -0.00748735      -0.00844596
C        7.42201169       5.70673985       3.80571880       0.00423087       0.00125154       0.01782867
C        6.17883126       7.84655288       3.86356339      -0.00024758      -0.00497129       0.00197414
C        4.93005516       9.98323250       4.01724166      -0.00026810      -0.00222819      -0.00620839
Co       2.57970892       4.80316157       3.61725686       0.00182450       0.00527289       0.00294092
