49
Lattice="12.336457 0.0 0.0 -6.168228499999997 10.683685154694365 0.0 0.0 0.0 15.0" Properties=species:S:1:pos:R:3:forces:R:3 energy=-435.4900125834752 free_energy=-435.4900125834752 stress="-0.009675718649141645 0.001341757064169932 -2.665327393266704e-06 0.001341757064169932 -0.008337955641712799 -4.7279884770439863e-07 -2.665327393266704e-06 -4.7279884770439863e-07 9.614522025866484e-08" pbc="T T T"
C        0.00010404      -0.00273029       3.67522585       0.00186110       0.00579345       0.00016242
C       -1.23620166       2.13224433       3.63786688      -0.00219626      -0.00107235      -0.00917711
C       -2.49395248       4.27746107       3.73791907       0.00105285       0.00700285      -0.01024937
C       -3.71509252       6.41445034       3.79357690      -0.00083120       0.00229377       0.01559275
C       -4.93994355       8.54849559       3.75901597      -0.00588450       0.00214142      -0.00429537
C        2.47514184       0.00553897       3.76256382      -0.00126242      -0.00263381      -0.00328990
C        1.25181192       2.09880241       3.55925023      -0.00199227      -0.00718688       0.00336871
C       -0.08581399       4.29745552       3.63721604      -0.00188281       0.00363237      -0.00472012
C       -1.26522293       6.42850937       3.83228568      -0.00192311      -0.00482775      -0.01068736
C       -2.47715160       8.55562436       3.84577528       0.00806362       0.00499505      -0.00798047
C        4.93480882       0.00745791       3.83921858      -0.00094247       0.00711908      -0.00167546
C        3.72689299       2.15923629       3.78036091      -0.00116889      -0.00460629      -0.00363246
B        1.29134281       6.37572921       3.88523839       0.00427777       0.00984313       0.00022851
C       -0.00785419       8.55784839       3.86819893      -0.00213466      -0.00893410       0.00564302
C        7.40175844       0.00701762       3.80397207      -0.00347512      -0.00495242       0.00075796
C        6.17961462       2.12276839       3.80733581      -0.00218339      -0.00218353      -0.00304439
C        4.97977196       4.21771643       3.78559820       0.00306909       0.00291112       0.01267942
B        3.66483802       6.39162792       3.66227380      -0.01013074      -0.00555169      -0.00161711
C        2.46352945       8.58140237       3.77197725       0.00682496      -0.00603906       0.00295298
C        9.87313413       0.00924436       3.71096434       0.00112707      -0.00234069      -0.00216367
C        8.63864428       2.13526399       3.74098087       0.00763112       0.00666814       0.00914453
C        7.40857003       4.27014688       3.77032806      -0.00459509      -0.00857072       0.01282561
C        6.16531252       6.40162858       3.74737166       0.00287384      -0.00016218       0.00030080
C        4.93687451       8.55391890       3.69832606      -0.00297309       0.00700504       0.00298322
C       -0.00193374       1.41823109       3.61069516      -0.00260950       0.00099289      -0.00408384
C       -1.27130046       3.55396372       3.65807657      -0.00441533       0.00041521      -0.01231463
C       -2.49357496       5.70288145       3.79467889      -0.00122963       0.00179874      -0.00634865
C       -3.70893192       7.83993306       3.80597244       0.00199159       0.00701022       0.00168969
C       -4.93198320       9.97462133       3.73075131      -0.00146565       0.00069915      -0.00572112
C        2.48920763       1.43269084       3.70314526      -0.00452195      -0.00544558       0.00080550
B        1.19207304       3.55676143       3.43645055      -0.00408778      -0.00050633       0.01054514
C       -0.06196152       5.69525610       3.78737334       0.00396444       0.00186814      -0.00622801
C       -1.24934319       7.84986434       3.86718648       0.00133615      -0.00855495      -0.00295884
C       -2.46866504       9.97835844       3.82972271       0.00383457       0.00670868      -0.00436893
C        4.94707265       1.42908342       3.81795857      -0.00239275       0.00164116      -0.00478578
N        3.79564496       3.52611900       3.81811932       0.00998955      -0.00671000      -0.01325596
C        1.23828992       7.87286507       3.85534731       0.00318706       0.00546005       0.00673312
C       -0.00196770       9.98125327       3.84634538      -0.00782394      -0.00756078       0.00299028
C        7.40970590       1.42289002       3.78728544       0.00484624       0.00213229       0.00520971
C        6.19641165       3.53111461       3.78738961      -0.00419633      -0.00431396       0.01379527
C        4.96047970       5.64336679       3.74292765       0.00079555       0.00405950       0.00257480
C        3.68982950       7.87756024       3.69698152       0.00441376      -0.00600401      -0.00026333
C        2.46855660       9.99690531       3.76327331       0.00130698      -0.00784917       0.00628481
C        9.87146630       1.42732628       3.69653786       0.00099126      -0.00094505      -0.01095593
C        8.63071961       3.55768437       3.74893498       0.00381391       0.00704377       0.00829944
C        7.40085733       5.69406024       3.76937951       0.00022180      -0.00830576       0.00995761
C        6.16524111       7.83269744       3.72808590      -0.00669076       0.00310699      -0.00085862
C        4.93669407       9.97816575       3.69198683       0.00291296       0.00775798      -0.00088906
Co       2.50388761       4.85803662       3.86727306       0.00262239       0.00515685       0.00004019
