49
Lattice="12.336457 0.0 0.0 -6.168228499999997 10.683685154694365 0.0 0.0 0.0 15.0" Properties=species:S:1:pos:R:3:forces:R:3 energy=-427.67468049351805 free_energy=-427.67468049351805 stress="-0.0033878983447502217 0.0010348074030069377 5.0354012183812776e-06 0.0010348074030069377 -0.007951185770256854 1.4600688245185336e-05 5.0354012183812776e-06 1.4600688245185336e-05 2.206733580107167e-07" pbc="T T T"
C        0.01053902       0.00552732       3.58770448      -0.00903083      -0.00192974       0.01018504
C       -1.22197393       2.14787889       3.45289964      -0.00150959       0.00767785      -0.00224060
C       -2.46080127       4.28595477       3.61317568       0.00490377       0.00518433      -0.00382475
C       -3.68484235       6.41712911       3.76059160      -0.00316246      -0.00604163       0.00208602
C       -4.93244722       8.54185313       3.69653274      -0.00376451      -0.00071669       0.00272096
C        2.47645468      -0.01759105       3.74603645       0.00104901      -0.00017978      -0.00531552
C        1.27474848       2.11012046       3.41719110      -0.00016335      -0.00492202       0.00877269
C       -0.06448209       4.30473632       3.11485172       0.01048627      -0.00335760       0.00166253
C       -1.22700538       6.42962274       3.58643671      -0.00307122      -0.00288368       0.00187397
C       -2.45686343       8.55116180       3.76011845       0.00089295      -0.00360318       0.00407679
C        4.94171169       0.01393952       3.93409091       0.00505332       0.00089403       0.00005837
C        3.67641595       2.08177027       4.16446624       0.01251280      -0.00436226       0.00005213
B        1.32376523       6.41261815       3.70205638       0.01073810      -0.00580345      -0.00805829
C       -0.00215212       8.58112441       3.78297571       0.00193136      -0.00321749       0.00053873
C        7.40728836       0.03925714       3.87293260       0.00233368       0.00439669      -0.01493445
C        6.19058334       2.14498700       4.16357566      -0.00763761       0.00951384       0.01223050
C        5.05223775       4.31009021       4.49481344      -0.00830696      -0.00837080       0.00350727
P        3.43261156       6.18056346       3.45819148       0.00019676       0.00690087      -0.01065707
C        2.46673564       8.62580109       3.69565290       0.00116494       0.00748193      -0.00685357
C        9.88648669       0.03423547       3.67545944       0.00782385      -0.00392109       0.00170035
C        8.65525917       2.15649696       3.81797617       0.00083580      -0.00385835       0.00324637
C        7.44222011       4.28418763       4.01159266      -0.00787028       0.00077496       0.00184562
C        6.19137487       6.41624817       3.88581078      -0.00100369       0.00833640      -0.00315580
C        4.94089212       8.55525523       3.63270788      -0.00476297       0.00303998      -0.00871399
C        0.01336029       1.43082182       3.45596493      -0.00410631      -0.00060786       0.00167448
C       -1.25165377       3.56439754       3.36453195       0.00357126       0.00769859      -0.00064975
C       -2.45710865       5.70910860       3.65268688      -0.00110821       0.00179705      -0.00495516
C       -3.69236797       7.83864025       3.73383653      -0.00111481      -0.00661866       0.00661796
C       -4.92754182       9.96425002       3.65826056      -0.00482096       0.00021351      -0.00702232
C        2.48245561       1.40567389       3.76886933       0.00842126      -0.00288734       0.00075430
P        1.32203020       3.48449927       2.25509813      -0.00205964       0.00780325       0.00473263
C       -0.01077902       5.70219743       3.40640244      -0.00372494      -0.00575585       0.00463691
C       -1.22621818       7.84888629       3.72639142       0.00068612      -0.00354646      -0.00224313
C       -2.45585050       9.97198260       3.82403783       0.00149116       0.00019100       0.00427296
C        4.94335997       1.43248040       4.11767298       0.00561015       0.00166243      -0.00312425
P        3.53323496       3.58266553       5.12789849      -0.00306094      -0.00932648       0.00149614
C        1.24441748       7.91559925       3.74068043       0.00368052       0.00045593       0.00789049
C        0.00336618      10.00440718       3.87527119       0.00347256      -0.00109446      -0.00421745
C        7.41650980       1.45275678       3.96131818      -0.00782183       0.00355623       0.01346630
C        6.23126740       3.56279725       4.27253190      -0.00776444       0.00515226       0.00385123
C        5.00044070       5.65812080       4.09696042       0.01221571      -0.01176121      -0.00588840
C        3.68154038       7.90899161       3.58250537      -0.00045707       0.00761498      -0.00388495
C        2.47615005      10.03648835       3.75610741       0.00571530       0.00393738      -0.00573065
C        9.88602860       1.45190342       3.64897134       0.00565800      -0.00376125       0.00526022
C        8.65934243       3.57659241       3.82215001       0.00104932       0.00035953      -0.00594294
C        7.42807177       5.70543209       3.89515730      -0.00684094       0.00094103      -0.00495023
C        6.17106887       7.82902770       3.70777847      -0.00915501       0.00806894       0.00093343
C        4.94600187       9.98824920       3.62114754      -0.00246820      -0.00598771       0.00557359
Co       2.14150980       4.53961124       3.85464773      -0.00670720       0.00086205      -0.00335474
