50
Lattice="12.336457 0.0 0.0 -6.168228499999997 10.683685154694365 0.0 0.0 0.0 15.0" Properties=species:S:1:pos:R:3:forces:R:3 energy=-450.01182222863105 free_energy=-450.01182222863105 stress="-0.00722851135260416 6.502170407105521e-06 -3.485818377553556e-06 6.502170407105521e-06 -0.003920509214690806 -3.6904129911660545e-06 -3.485818377553556e-06 -3.6904129911660545e-06 -2.960117294986766e-07" pbc="T T T"
C       -0.00465244      -0.00294986       3.65723295       0.00845880      -0.00072199       0.00026118
C       -1.24593542       2.12708007       3.65238481       0.00100277      -0.00048338       0.00377663
C       -2.47808088       4.27053361       3.66155009      -0.00368025      -0.00581212      -0.00166719
C       -3.70165003       6.41164041       3.66325033      -0.00312439      -0.00383172       0.00402506
C       -4.93158308       8.55287314       3.66922918       0.00926132       0.00864473      -0.01062335
C        2.46620939       0.00873419       3.64777835       0.00261232      -0.00280317       0.00941871
C        1.22190674       2.13485044       3.68283095       0.00969389      -0.00059401       0.00932720
C       -0.03026450       4.26830572       3.76006231      -0.00390636       0.00105130      -0.00292084
C       -1.24695974       6.41485288       3.72771667       0.00142533       0.00453366       0.00195172
C       -2.47183499       8.55251095       3.66730567      -0.01071952       0.01187405      -0.00273528
C        4.93718933      -0.00352736       3.65718917      -0.00900197       0.00198572       0.00337032
C        3.71054470       2.13454766       3.68527832      -0.00480910      -0.00139588      -0.00172295
B        2.46680910       4.29118617       3.93651521      -0.00611881      -0.00849575      -0.00050483
C        1.17900017       6.42796865       4.05531564       0.00308833      -0.00898391      -0.00138173
C       -0.00841993       8.54394667       3.74199446      -0.00236716      -0.00077018      -0.00233973
C        7.40276561      -0.01212273       3.68858648       0.00007365       0.00488259      -0.00425058
C        6.17817838       2.12658980       3.65459459       0.00093167       0.00265688       0.00717321
C        4.96365445       4.26803458       3.76502331      -0.00109757       0.00365848      -0.00533670
C        3.75339710       6.42755870       4.05745118       0.00507393       0.00007420       0.00282760
C        2.46673640       8.53631203       3.83660282      -0.00208602      -0.01135249      -0.00206668
C        9.86617888      -0.01167645       3.68772772       0.00228718       0.00214760      -0.00055551
C        8.63415723       2.12777090       3.64543193       0.00465941       0.00281516      -0.00182528
C        7.41082752       4.27046598       3.66407419       0.00536207      -0.00539840      -0.00108105
C        6.18019855       6.41505729       3.73173151      -0.00507312       0.00341862       0.00268089
C        4.94164843       8.54448616       3.74436831      -0.00150277      -0.00819599      -0.00114318
C       -0.01218344       1.41664869       3.65522223       0.00855069       0.00107723      -0.00371783
C       -1.25545279       3.55300081       3.67330646      -0.00555397      -0.00190312       0.00953743
C       -2.47466799       5.69735091       3.67678474       0.00090016      -0.00459896      -0.01449209
C       -3.70175796       7.83894122       3.66108397       0.00078494       0.00174962       0.00769922
C       -4.93507749       9.97557642       3.65273223       0.00955391       0.00294070       0.00553128
C        2.46613179       1.43208606       3.67240426       0.00276013      -0.00952628       0.01221312
C        1.17652468       3.54670284       3.76409594      -0.00362437       0.00439387       0.00438108
C       -0.01964993       5.69971199       3.84177359       0.00380147      -0.00132284       0.00134088
C       -1.24117100       7.83773111       3.71410724      -0.00978501       0.01091725      -0.00358032
C       -2.46887891       9.97521424       3.65358426      -0.00687733       0.00613269      -0.00582287
C        4.94444711       1.41613060       3.65610765      -0.00597683       0.00156772       0.00423163
C        3.75687272       3.54636565       3.76631164      -0.00078164       0.00529575       0.01028393
C        1.22493894       7.82719060       3.87173528       0.00181389      -0.01297841      -0.00541473
C        0.00044602       9.96420716       3.69076004      -0.00576911       0.00271940      -0.00458389
C        7.40598036       1.41145346       3.65419347       0.00517839       0.00575863      -0.00715361
C        6.18840513       3.55257558       3.67800515       0.00493593       0.00049404       0.00379433
C        4.95285203       5.69965053       3.84652370      -0.00584708      -0.00023486      -0.00060293
C        3.70845087       7.82708096       3.87385378      -0.00552243      -0.01209489      -0.00749510
C        2.46641993       9.95584035       3.72654224       0.00027460      -0.00134743       0.00469827
C        9.86250536       1.41187038       3.65242284       0.00168827       0.00402931      -0.00295272
C        8.63449196       3.55416088       3.64439155       0.00113007      -0.00341284       0.00592220
C        7.40778617       5.69737181       3.67885045      -0.00672649      -0.00275040      -0.01129965
C        6.17441506       7.83814509       3.71733740       0.00557414       0.00673904      -0.00408457
C        4.93226349       9.96483339       3.69134036       0.00354721      -0.00429058      -0.00508961
Co       2.46416612       5.70983562       5.25596264       0.00552683       0.01174138       0.00199893
