49
Lattice="12.336457 0.0 0.0 -6.168228499999997 10.683685154694365 0.0 0.0 0.0 15.0" Properties=species:S:1:pos:R:3:forces:R:3 energy=-428.78375063684155 free_energy=-428.78375063684155 stress="-0.003536992980505883 -0.00025678510356140483 5.006134325755381e-06 -0.00025678510356140483 -0.0007147871437492163 7.922900312252432e-08 5.006134325755381e-06 7.922900312252432e-08 -6.439091987776768e-07" pbc="T T T"
C        0.00554554       0.00975668       3.75261871       0.00124848      -0.00185705       0.00012057
C       -1.24110596       2.12396261       3.93561855       0.00081858       0.00288387       0.00406655
C       -2.47803926       4.27289093       3.98480589      -0.00532471       0.01528973       0.00335924
C       -3.70614092       6.41442946       3.85224846       0.00582898      -0.00424952      -0.00168269
C       -4.94048470       8.55148697       3.69167699       0.00519506      -0.00926941       0.00669033
C        2.46492065       0.04507957       3.77819871       0.01031369       0.00547655      -0.00113348
C        1.20575364       2.13372550       3.83502318       0.00052784      -0.00157948       0.00249619
C       -0.06837228       4.23209439       4.00230136       0.00150215      -0.00750158      -0.00487763
C       -1.24724638       6.40388589       3.93744925       0.00300876      -0.00087908      -0.00026927
C       -2.47291830       8.55639492       3.84080567      -0.00082866      -0.01025046      -0.00413624
C        4.92628666       0.01021606       3.83578382       0.00721733       0.00256217      -0.00068494
C        3.72803901       2.13971907       3.74310962      -0.00337755       0.00322413       0.00424092
B        1.24971572       6.38828686       3.83163035      -0.00644079       0.00205333       0.01353957
C       -0.00445830       8.54963359       3.83172958      -0.00371102       0.00384372      -0.01346540
C        7.40158737       0.00001105       3.83879865      -0.00187482      -0.00047375       0.00342462
C        6.17559290       2.12667091       3.85613114       0.00045031      -0.00396790      -0.00453524
C        5.01929862       4.23591079       3.56145109      -0.00523604      -0.00949198      -0.00720728
S        3.65917584       6.34788862       2.47665390       0.01411105      -0.00435198      -0.00363845
C        2.47567438       8.56736455       3.59162484      -0.00460120       0.00675989      -0.00637090
C        9.87525836       0.00169565       3.77535018      -0.01488917      -0.00163315      -0.00826608
C        8.63636418       2.13345802       3.92693852       0.00600243      -0.00666449       0.00185677
C        7.41158711       4.27541648       3.86202197       0.00132152       0.00125203      -0.00537345
C        6.17634631       6.39984528       3.56221850       0.00229468       0.00363492       0.00619248
C        4.94024373       8.55166220       3.48791578      -0.01026622       0.01190886       0.00654968
C        0.00604016       1.43986537       3.85221367       0.00032767      -0.00022280       0.00312127
C       -1.25815087       3.53272148       4.01546189      -0.00749087       0.00653622       0.00532999
C       -2.47815623       5.69497579       3.94628306       0.00352526       0.00934891      -0.00310129
C       -3.70508956       7.84121894       3.79674924       0.00236229      -0.01303121      -0.00110635
C       -4.92845973       9.99494156       3.73182435       0.00918427      -0.00269682      -0.00002780
C        2.46565504       1.50196164       3.77869898       0.00153147       0.00857379      -0.00661207
O        1.13812060       3.53253451       3.91741168       0.00417053      -0.00563694       0.00243775
C       -0.04051745       5.63170360       3.94818506      -0.00326756      -0.00761458       0.00288266
C       -1.23918979       7.83351345       3.88007432      -0.00061867      -0.00463646      -0.00372545
C       -2.47831048       9.99481176       3.81397654       0.00811232      -0.00349739       0.00087160
C        4.92687108       1.44217950       3.81461523      -0.00160078       0.00198173       0.00507034
O        3.81000655       3.52529348       3.53919370      -0.01259539      -0.00168550       0.00460611
C        1.24473376       7.86096539       3.73515070      -0.00276960       0.00758399      -0.00092655
C       -0.00736190       9.97932260       3.83785192       0.00317998       0.00259275       0.00429494
C        7.39917245       1.42214565       3.89019660       0.00268160      -0.00394917       0.00286688
C        6.19488086       3.53914974       3.80194109      -0.00299937      -0.00252914      -0.00360572
C        5.00315670       5.61831123       3.35604780       0.00783001      -0.00772562       0.00042445
C        3.69551488       7.90099905       3.29023223      -0.00430882       0.00474636       0.00475138
C        2.47373095       9.98735946       3.74817125      -0.01144266      -0.00008344       0.00816108
C        9.87311160       1.42205639       3.89708086       0.00367165      -0.00897838      -0.00944404
C        8.63504066       3.55912351       3.94698968       0.00074760       0.00054629       0.00193486
C        7.40144563       5.69507905       3.78115558       0.00724040       0.00255940      -0.00083460
C        6.17151922       7.83115150       3.54520123      -0.00448993       0.00525028       0.00718481
C        4.94085474       9.97734477       3.68209999      -0.01101918       0.00902980      -0.00314901
Co       2.44015053       4.94833363       3.61580822       0.00474713       0.00681859      -0.01230111
