49
Lattice="12.336457 0.0 0.0 -6.168228499999997 10.683685154694365 0.0 0.0 0.0 15.0" Properties=species:S:1:pos:R:3:forces:R:3 energy=-431.48272875812864 free_energy=-431.48272875812864 stress="-0.006438692937182005 -0.0006375199415463922 4.506318282936619e-06 -0.0006375199415463922 -0.004686319397367278 -9.952430421772858e-06 4.506318282936619e-06 -9.952430421772858e-06 -1.1369868878646758e-05" pbc="T T T"
C       -0.00185032      -0.00747550       3.66395864      -0.00045479      -0.00229901       0.01130361
C       -1.25096800       2.12087945       3.78467973      -0.00121208      -0.00548979       0.00247923
C       -2.48673904       4.26918301       3.52712748       0.00403292       0.00514941       0.00060237
C       -3.69821754       6.41460317       3.38455534      -0.00155366       0.00519307      -0.00543173
C       -4.92344399       8.56042044       3.45502520      -0.00180541       0.00418897      -0.00834303
C        2.46919398      -0.00452986       3.74829569      -0.00729041      -0.00791167      -0.01412363
C        1.20695709       2.04036932       4.25705749      -0.00279262      -0.00347837       0.00624498
C       -0.12054059       4.29224613       4.07771254       0.01462089      -0.00745637      -0.00025182
C       -1.25248501       6.41591665       3.56735185       0.00038501      -0.00024141      -0.00603485
C       -2.46586368       8.55503786       3.49147820       0.00302218       0.00527497      -0.00960929
C        4.93128238       0.00454937       3.68561493       0.00498707       0.00265325      -0.00600609
C        3.72003365       2.06051422       4.25834101       0.00147757       0.00097189       0.00552036
B        1.25664342       6.41379626       3.90105661      -0.00388192       0.00684101       0.00537263
C       -0.00919834       8.56068715       3.60045047      -0.00612182      -0.00005226       0.00053704
C        7.40053665       0.00344645       3.59413783       0.00324353      -0.00974758      -0.00211795
C        6.17101040       2.13606245       3.76430598       0.00798484      -0.00144161       0.00095762
C        5.02494258       4.32078491       4.00619722       0.00499043      -0.00453099      -0.00751488
C        3.74948887       6.41007041       3.81279637      -0.01703007       0.00238701      -0.00387861
C        2.47449454       8.55524078       3.64346904      -0.00794761      -0.00430099      -0.00378036
C        9.86955033      -0.00428899       3.58399434       0.00680032       0.00011910      -0.00617470
C        8.63131459       2.13281068       3.54982235      -0.00608915       0.00403630       0.00116189
C        7.40540846       4.27573236       3.48648297       0.00040661       0.00101772       0.01619606
C        6.19365844       6.42936225       3.48324375       0.00129347      -0.00470306       0.00620701
C        4.94141453       8.54073366       3.54258589       0.00777412       0.00270771       0.01094135
C       -0.01218127       1.40318148       3.89840560      -0.00433421      -0.00660413       0.00614584
C       -1.28236801       3.54490037       3.78744257       0.00972301      -0.00249942       0.00409827
C       -2.47983276       5.69599525       3.46019616       0.00154867       0.00372485      -0.00809119
C       -3.69615118       7.84310662       3.41634717      -0.00073746       0.00710470       0.00211978
C       -4.92830244       9.97666346       3.60292601      -0.00934112      -0.00100698       0.00617234
C        2.46690341       1.38944904       4.11501165      -0.00241178      -0.00238269       0.00081014
P        1.04335944       3.54817851       5.21597627       0.00242120       0.00996406       0.00569848
C       -0.06821332       5.68697460       3.83680402      -0.00572856      -0.00688221      -0.00376871
C       -1.23781586       7.84155373       3.53520209       0.00040878       0.00426079      -0.00562210
C       -2.46958294       9.97670017       3.62389460       0.00085080       0.00155512       0.00270669
C        4.93687948       1.41957752       3.89837887       0.00833832       0.00482265      -0.00233512
P        3.92833641       3.57843506       5.21016079      -0.00884457       0.00763463       0.00489484
C        1.23852556       7.88378657       3.69587676      -0.01082757      -0.00076359      -0.01026043
C       -0.00619385       9.98314450       3.60265938      -0.00000833      -0.00428772      -0.00921833
C        7.39505917       1.42778006       3.60793999       0.00353631      -0.00743587       0.00333716
C        6.18877916       3.56496539       3.73144285       0.00085977      -0.00548135       0.00825704
C        4.97423336       5.73362585       3.75281625      -0.00216381      -0.00414435       0.00854515
C        3.70081903       7.80293158       3.65694690      -0.00491467       0.00212070      -0.00414447
C        2.47014299       9.97602622       3.58120778       0.00561352      -0.00519106       0.00066370
C        9.86627011       1.41894561       3.61072685      -0.00582606       0.00142268       0.00708973
C        8.62697207       3.55658892       3.48135838      -0.00154658       0.00670056      -0.00061239
C        7.40965925       5.70189860       3.41508707       0.00261189      -0.00342410       0.00814193
C        6.18026107       7.84764268       3.46195740       0.00552531      -0.00175245      -0.00855216
C        4.93534683       9.96199141       3.57554412       0.00877762       0.00240806      -0.00648639
Co       2.45986420       4.91835328       4.31066915       0.00163011       0.01124982      -0.00384701
