49
Lattice="12.336457 0.0 0.0 -6.168228499999997 10.683685154694365 0.0 0.0 0.0 15.0" Properties=species:S:1:pos:R:3:forces:R:3 energy=-435.37660801420213 free_energy=-435.37660801420213 stress="-0.006964655809189249 0.0014794854841648838 -6.1758216202836615e-06 0.0014794854841648838 -0.0029608664203161017 -3.3897532386978384e-06 -6.1758216202836615e-06 -3.3897532386978384e-06 -2.170702494831344e-06" pbc="T T T"
C        0.00317947       0.00066671       3.74314969      -0.00856197       0.00638812      -0.00809555
C       -1.23025278       2.13351569       3.55360720       0.00183867       0.00675344      -0.00214283
C       -2.47420969       4.27859425       3.74496915       0.01251597      -0.00964744       0.00403284
C       -3.70418242       6.41543773       3.92403624       0.01249054       0.00572636      -0.00477002
C       -4.93577704       8.55350317       3.91748468      -0.00882965      -0.00519045       0.00577418
C        2.46527090       0.01306254       3.76893512       0.00026516       0.00161818       0.01539790
C        1.24221647       2.06868744       3.29972216      -0.00187539      -0.00569315      -0.00381799
C       -0.09692872       4.31669834       3.25218276      -0.00421931      -0.00321447      -0.00513771
C       -1.27451035       6.43630953       3.70728061       0.00941078      -0.00690357      -0.00515272
C       -2.47875840       8.56460030       3.86317385      -0.00130286      -0.00081782       0.00766996
C        4.93748790       0.00832870       3.83020741       0.00429648      -0.01119263       0.00044650
C        3.70624199       2.17608629       3.72225488       0.01033143       0.01004120       0.00411515
C        1.17688633       6.40398122       3.56977925      -0.00925285      -0.00395870      -0.00506381
C       -0.01071739       8.54465479       3.78791603      -0.00762278       0.00342202       0.00004379
C        7.40896972      -0.01102082       3.83042022      -0.00757728       0.01385951       0.00001514
C        6.19058269       2.11689305       3.89556817      -0.00486930      -0.01108228      -0.00423729
C        4.98366917       4.23834433       3.96141315      -0.00488002      -0.00113336       0.00638315
B        3.67263861       6.36958350       3.93325328       0.00334276      -0.00468090       0.01182589
C        2.46337326       8.53954485       3.82147335      -0.00071720       0.00537767       0.00135778
C        9.87498833      -0.00536186       3.78773426      -0.00025153       0.00366087       0.01101714
C        8.64915345       2.12879549       3.81602609       0.00490247      -0.00543391       0.00383968
C        7.42837162       4.26398056       3.96142968      -0.00079669       0.00416913       0.00065528
C        6.18682238       6.40785763       4.01870984      -0.00329293       0.00056749       0.00020282
C        4.94033895       8.54937319       3.91458210       0.00939404      -0.00054560      -0.00748441
C       -0.00121768       1.41805605       3.52725257      -0.00667410       0.00577752      -0.00677457
C       -1.25223103       3.56238354       3.51286827       0.00725796      -0.00248440       0.00304529
C       -2.48277532       5.70437450       3.80120796       0.01545914      -0.00706968      -0.00185623
C       -3.70489671       7.84389207       3.91508587      -0.00219303       0.00292948      -0.00158565
C       -4.93277373       9.97938817       3.81518519      -0.00908765      -0.00185114      -0.00295119
C        2.46608431       1.43677574       3.59732082       0.00774569       0.00676012       0.00228823
S        1.20761809       3.54790116       2.36408978      -0.00807033      -0.00306757       0.00131435
C       -0.05161477       5.72881041       3.48165731      -0.00317015      -0.01014793      -0.00872009
C       -1.25003318       7.85206597       3.79952974      -0.00213129      -0.00245460      -0.00513565
C       -2.47033328       9.98589438       3.83428590       0.00250731      -0.00301618       0.01513421
C        4.94586259       1.43022315       3.82988039       0.00185629      -0.01205925      -0.00925488
C        3.75514787       3.56275133       3.79509731      -0.01082908       0.01366580       0.00935759
C        1.22994128       7.79933792       3.74058448      -0.00786998      -0.00610791      -0.00222206
C        0.00104176       9.96573523       3.82991157       0.00145950       0.00440325      -0.01216559
C        7.42177375       1.40826456       3.85828776      -0.00181046       0.00333657       0.00261316
C        6.21388764       3.53032942       3.96968396      -0.00573876      -0.00785520       0.00400041
C        4.99178490       5.65772018       4.01063901       0.00191809      -0.00456924      -0.01359887
C        3.69338492       7.86037731       3.90432832       0.00618569       0.00409389       0.00151733
C        2.47047184       9.96439421       3.81748079      -0.00814016       0.01486366       0.00251652
C        9.88470472       1.42347875       3.72447102       0.00694098       0.00215170      -0.00549005
C        8.65086515       3.55443799       3.85638395       0.00473539      -0.00421947      -0.00028593
C        7.42000030       5.69226679       3.98867091       0.00170833       0.01427138      -0.00695208
C        6.17316937       7.83714171       3.96290509      -0.00189657      -0.00646365       0.00412465
C        4.93948908       9.97272159       3.82428186      -0.00093814       0.00022839      -0.00846901
Co       2.43318701       4.94771035       3.56832059       0.00603678       0.00679470       0.01267521
