49
Lattice="12.336457 0.0 0.0 -6.168228499999997 10.683685154694365 0.0 0.0 0.0 15.0" Properties=species:S:1:pos:R:3:forces:R:3 energy=-428.56806407679795 free_energy=-428.56806407679795 stress="-0.004678561768861735 0.0032445286013041397 -3.3651759789039454e-06 0.0032445286013041397 -0.003613057173630167 -3.4733095480629114e-06 -3.3651759789039454e-06 -3.4733095480629114e-06 -2.2351400320693813e-06" pbc="T T T"
C        0.00521298       0.00592913       3.58955917      -0.00063131       0.00018101      -0.00231035
C       -1.22436124       2.14989461       3.45309576       0.00494946       0.00342370      -0.00102492
C       -2.48169563       4.28556458       3.66648128      -0.00045428      -0.00214491      -0.00085463
C       -3.72322000       6.41202266       3.81345759      -0.00554992      -0.00410760      -0.00365916
C       -4.94917191       8.54480761       3.76770199       0.00244676      -0.00659578      -0.00088869
C        2.47497910       0.00624199       3.65715215      -0.00253953      -0.00302433       0.00405368
C        1.26295964       2.11032511       3.25065086       0.00169911      -0.00607404       0.00464280
C       -0.05374158       4.33501222       3.51565281       0.00340532      -0.00535160      -0.00045146
C       -1.27004391       6.42317297       3.98108553      -0.00418159       0.00463176       0.00196709
C       -2.47903177       8.55151054       3.89313176      -0.00129123       0.00459407       0.00449217
C        4.93788927      -0.00809567       3.77197511       0.00755909      -0.00567561       0.00477582
C        3.74805988       2.09161560       3.58723245      -0.00032414       0.00744511      -0.00325787
P        1.31925927       6.28716665       4.96622311       0.00987787       0.01286759       0.00363917
C       -0.01099129       8.56339757       4.08324624      -0.00023381      -0.00286400       0.00508003
C        7.40618798       0.00738672       3.79667669      -0.00241641      -0.00312460      -0.00344501
C        6.19094271       2.11663870       3.68405232      -0.00417055       0.00190752      -0.00601494
C        4.98915933       4.21516264       3.77653445       0.00278587       0.00569268       0.00130494
B        3.60496589       6.36688428       3.97238404      -0.00565100      -0.00235317       0.00087274
C        2.46283301       8.59439772       4.02634701      -0.00384278       0.00138800      -0.00325688
C        9.87818229       0.01596682       3.68229952      -0.00203076       0.00555163      -0.00156738
C        8.64849471       2.14146636       3.63259658      -0.00462144      -0.00375291      -0.00112187
C        7.40522219       4.27128157       3.71499116       0.00327803      -0.00113189       0.00091630
C        6.14273448       6.38922759       3.81323518       0.00153829      -0.00317597       0.00339975
C        4.92702967       8.55261081       3.80655320       0.00464988       0.00284193       0.00625267
C        0.01910744       1.43635925       3.41258800       0.00288307      -0.00173054      -0.00152327
C       -1.25587062       3.57237934       3.51073016       0.00098242      -0.00130021       0.00472865
C       -2.49516482       5.70465403       3.81465496      -0.00466316       0.00017363      -0.00613652
C       -3.71736284       7.83741001       3.83420036       0.00195643      -0.00440920      -0.00625525
C       -4.93390021       9.97486648       3.67339529      -0.00281949      -0.00460617       0.00154858
C        2.49607984       1.43972794       3.48692478       0.00319464      -0.00322607       0.00143935
P        1.26959393       3.73595517       2.47846194      -0.00157764       0.00723708      -0.00403017
C       -0.06764842       5.67202908       3.99772364      -0.00200724       0.00038912      -0.00050342
C       -1.25457140       7.84678576       4.03322460      -0.00145118       0.00745810       0.00504413
C       -2.47281956       9.97836745       3.78908603       0.00179574       0.00240839       0.00266667
C        4.95675824       1.41132785       3.66926018      -0.00208133      -0.00139625       0.00069605
O        3.80948039       3.47413637       3.75930987      -0.00740965       0.01497486      -0.00755067
C        1.23421247       7.92812461       4.27431172      -0.00214085      -0.00858381      -0.01450270
C        0.00003892       9.97896961       3.88351015       0.00612056      -0.00896585       0.00351491
C        7.41479149       1.42491590       3.69455005      -0.00748580      -0.00309495      -0.00861413
C        6.19265483       3.52844315       3.70538699       0.00291049       0.00311114      -0.00460020
C        4.92269399       5.61624015       3.85577223       0.00225436       0.00157428       0.00191017
C        3.68245357       7.86933174       3.94964372       0.00085209       0.00399436       0.00537987
C        2.47418494      10.00461648       3.82753051      -0.00369246       0.00057371      -0.00633217
C        9.88470739       1.43601590       3.57668792       0.00232635       0.00599541       0.00343968
C        8.63676704       3.56543273       3.65865717       0.00076560      -0.00444440       0.00542131
C        7.38143844       5.69069851       3.77210932      -0.00328017      -0.00436765       0.00410086
C        6.15135056       7.82310842       3.79334771       0.00402419      -0.00468309       0.00505144
C        4.94125598       9.98306191       3.69153736      -0.00064736       0.00518298      -0.00068440
Co       2.39530665       4.81600254       3.90979894       0.00493945      -0.00341349       0.00224720
