50
Lattice="12.336457 0.0 0.0 -6.168228499999997 10.683685154694365 0.0 0.0 0.0 15.0" Properties=species:S:1:pos:R:3:forces:R:3 energy=-443.2076014659292 free_energy=-443.2076014659292 stress="-0.006574901338013629 0.001097519577487588 -7.122440228322261e-07 0.001097519577487588 -0.007564798860864276 1.8894905948315882e-06 -7.122440228322261e-07 1.8894905948315882e-06 -2.4393550393844644e-06" pbc="T T T"
C        0.00741154       0.00573037       3.65044451       0.00467116       0.00135275      -0.00787483
C       -1.22142106       2.14170908       3.55808317      -0.00201007       0.00437024       0.00070401
C       -2.45522095       4.28013132       3.55236677       0.00047153      -0.00116001       0.00035651
C       -3.69088842       6.41341023       3.63904610       0.00269682      -0.00641180       0.00164364
C       -4.93425887       8.54672039       3.71443484       0.00780486       0.00096340      -0.00456756
C        2.47259178       0.00140586       3.65503469       0.00367867      -0.00186017       0.00478290
C        1.24091034       2.13696805       3.73695372       0.00518490      -0.00089351      -0.00038088
C       -0.01047809       4.26784174       3.78327016      -0.00033147      -0.00452434      -0.00056102
C       -1.23038068       6.41566835       3.73744819       0.00427000       0.00773047       0.00704858
C       -2.46329815       8.55003947       3.65362439      -0.00076389       0.01031454       0.00896458
C        4.94250404       0.00309972       3.56313181      -0.00530457       0.00110772       0.00373046
C        3.72003960       2.12175853       3.69546290      -0.00300116      -0.00044833      -0.00313870
B        2.51064557       4.27981418       4.18930121       0.00554555      -0.00537144       0.01316485
B        1.25144308       6.44188973       4.23502349      -0.00474863       0.00526514      -0.01585777
C       -0.00362376       8.56982562       3.71974742      -0.00009189      -0.00304294       0.00304130
C        7.40777321       0.01828954       3.51305164      -0.00790971      -0.00324570      -0.00160553
C        6.18917244       2.12944037       3.49975902      -0.00199750       0.00062181      -0.00829569
C        4.99329558       4.23367150       3.76767314      -0.00585323       0.00481649       0.00500992
P        3.47024028       6.26863464       4.48867338      -0.00251406      -0.00081368      -0.00000567
C        2.46110875       8.61389844       3.80544698       0.00432334       0.00043705      -0.00153093
C        9.88465825       0.01813678       3.56518888       0.00378456       0.00460730       0.00131199
C        8.65329581       2.14518130       3.44816692       0.00325825      -0.00351326       0.00494885
C        7.42876679       4.27636928       3.55132761      -0.00032317      -0.00749725      -0.00669444
C        6.18823332       6.40690792       3.81509083      -0.00813410       0.00502143      -0.01333127
C        4.94202770       8.56223173       3.82437188      -0.00519726      -0.00476955      -0.00108796
C        0.00751346       1.42769034       3.63604430       0.00048725       0.00349841      -0.00008531
C       -1.23258166       3.56079523       3.58910483      -0.00534532      -0.00078665      -0.00434712
C       -2.46002706       5.70185198       3.62729294       0.00756361       0.00043030       0.00200784
C       -3.69763796       7.83798779       3.67216815       0.00685253      -0.00193149      -0.00078648
C       -4.92988190       9.97234842       3.67896251       0.00656836      -0.00020419      -0.00822466
C        2.47533428       1.42225108       3.70793345       0.00229110      -0.00610127      -0.00049144
C        1.20292661       3.55085422       3.90808548       0.00270776       0.00282974      -0.00180001
C       -0.02596399       5.67641779       3.91328701      -0.00134108      -0.00808465       0.00437079
C       -1.23220688       7.84213897       3.71469542      -0.00201146       0.00976885       0.00463460
C       -2.46221620       9.97371353       3.62100831      -0.00154985       0.00570199       0.00182417
C        4.95342436       1.41801604       3.56054735      -0.00189318      -0.00061143       0.00326926
C        3.77554762       3.52310095       3.84306210       0.00042282      -0.00055189       0.01678175
C        1.23532667       7.91673011       3.88889051       0.00795773       0.00542167      -0.00017297
C        0.00515624       9.98871212       3.57423119      -0.00949735      -0.00510601       0.00096611
C        7.41925498       1.43212639       3.45109324      -0.00150221      -0.00363361      -0.00248400
C        6.21367067       3.54484900       3.56683265      -0.00476108       0.00122152      -0.00623616
C        5.01064826       5.63403374       3.94880322      -0.00468041      -0.00192784      -0.00090695
C        3.68466051       7.92815060       3.97094477      -0.00512141      -0.00378167      -0.00696339
C        2.47588749      10.01436533       3.59065179       0.00196351       0.00464483      -0.00106168
C        9.88452096       1.43567003       3.49240786       0.00390965       0.00258761       0.00385093
C        8.65541760       3.56686631       3.48542777       0.00327662      -0.00471476       0.00295620
C        7.42005555       5.69849882       3.65460516      -0.00550154      -0.00440683      -0.00200728
C        6.17186421       7.83532698       3.81004620      -0.00112579       0.00578136      -0.00507125
C        4.94390901       9.98390288       3.66644158       0.00119500      -0.00078690       0.00659604
Co       2.06912827       5.43953317       5.77596780       0.00162581      -0.00231347       0.00360567
