49
Lattice="12.336457 0.0 0.0 -6.168228499999997 10.683685154694365 0.0 0.0 0.0 15.0" Properties=species:S:1:pos:R:3:forces:R:3 energy=-438.661590447891 free_energy=-438.661590447891 stress="-0.007662044224786626 -0.0005137310831230733 -1.5986381327310097e-05 -0.0005137310831230733 -0.0010190646760048262 1.134806243121007e-06 -1.5986381327310097e-05 1.134806243121007e-06 -4.662215239998272e-07" pbc="T T T"
C       -0.00292380       0.00910899       3.84773567       0.00535420       0.00145951       0.00274775
C       -1.25268017       2.11776078       3.89125028       0.00179131       0.00216464       0.00450440
C       -2.48587468       4.26253610       3.96546342       0.00188766       0.00414227      -0.00187241
C       -3.69909512       6.41449720       3.96099382       0.00174909       0.00187612      -0.01217755
C       -4.92392809       8.56649006       3.90188888      -0.00714078       0.00745622       0.00497202
C        2.46590571       0.01678435       3.79972425       0.00049107      -0.00212024      -0.00212589
C        1.22509574       2.17855993       3.71957970       0.00103835       0.00810743       0.00534964
C       -0.03809613       4.25676324       3.91303539      -0.00101315       0.00198447       0.00398476
C       -1.26429730       6.41987496       4.00616974       0.00531372       0.00107041      -0.00203351
C       -2.47481162       8.56090873       3.93410744      -0.00450612      -0.00354709       0.00745852
C        4.93512903      -0.00617790       3.73525885      -0.00400621      -0.00478743       0.00007981
C        3.69383945       2.07730518       3.35034042      -0.00849276       0.00390685      -0.00283523
C        1.17126932       6.38809547       3.85139137       0.00082360       0.00466033       0.00502152
C       -0.01128030       8.53294763       3.87832843       0.01019131      -0.00483458      -0.00527786
C        7.40086717      -0.02448262       3.76793583      -0.00397186      -0.00840181       0.00965027
C        6.17704574       2.12192274       3.56499912       0.00704824      -0.00047181       0.00356780
C        5.03367416       4.31706860       3.30284553      -0.00883467       0.00378048      -0.01311684
C        3.77740097       6.41209727       3.51041192      -0.01145752      -0.00629514      -0.00116927
C        2.46638381       8.50792414       3.77245766       0.00638200      -0.00097571       0.00369447
C        9.86061047      -0.02387709       3.82688941      -0.00372317      -0.00289204      -0.00258426
C        8.62616903       2.11814252       3.82482788       0.00545862      -0.00174110      -0.00467874
C        7.41603334       4.27015135       3.77143557       0.00542137      -0.00408916       0.00248620
C        6.21678953       6.43594887       3.74121666       0.00687252       0.00273813      -0.00487410
C        4.94888057       8.54386517       3.78596648      -0.00919019      -0.00522677      -0.00201171
C       -0.01119308       1.43122739       3.83280920       0.00260109       0.00521141      -0.00226237
C       -1.26531336       3.53833882       3.94859839      -0.00031943       0.00269743      -0.00076551
C       -2.48327747       5.69357709       4.00119573       0.00283987       0.00327415      -0.01057796
C       -3.69949403       7.84574859       3.95187375      -0.01048225       0.00420032      -0.00124268
C       -4.93143877       9.98837565       3.86631762       0.00434249       0.00560684       0.00883154
C        2.46418722       1.43522938       3.62196004      -0.00691001      -0.00016381      -0.00415720
C        1.17894205       3.58165473       3.74000391       0.00828775       0.01053414       0.01448542
C       -0.04444118       5.70075363       3.95142447       0.00320903       0.00002746       0.00162952
C       -1.24698020       7.84207338       3.95462408       0.00602822       0.00016003       0.00161585
C       -2.47069773       9.98187387       3.82997949      -0.00411487      -0.00585850       0.00129802
C        4.94080609       1.40875933       3.53441675      -0.00223659      -0.00073486      -0.00279729
P        3.66831906       3.60091426       2.42279151      -0.01062163       0.00256207       0.00388249
C        1.22779584       7.78730797       3.83860810       0.01142149       0.00185175      -0.00276525
C       -0.00301087       9.95379217       3.79559481      -0.00276483      -0.00661106       0.00504241
C        7.39638768       1.40561367       3.72351434       0.00672370      -0.00616446      -0.00057386
C        6.19926320       3.55500636       3.53424391      -0.00071094       0.00614712      -0.00140754
C        5.01205699       5.73824063       3.49186788      -0.00391388       0.00361759      -0.00129556
C        3.71127274       7.79777410       3.69462275      -0.00668802      -0.00606317      -0.00464218
C        2.46266033       9.93439752       3.79517981      -0.00409711      -0.00479280       0.00894169
C        9.85233104       1.39978183       3.86229594       0.00200592      -0.00143931      -0.00123135
C        8.62732773       3.54847176       3.87258325       0.00664353      -0.00229880      -0.00129933
C        7.42314726       5.69915231       3.84160091       0.00903550      -0.00332816      -0.00497600
C        6.18784449       7.85235432       3.82713250      -0.00365787       0.00349958       0.00108038
C        4.93459388       9.96233732       3.83415988       0.00009603      -0.00345700      -0.00453832
Co       2.48419757       5.02157737       3.56306679      -0.00420382      -0.00644196      -0.00103470
