50
Lattice="12.336457 0.0 0.0 -6.168228499999997 10.683685154694365 0.0 0.0 0.0 15.0" Properties=species:S:1:pos:R:3:forces:R:3 energy=-443.47588011166914 free_energy=-443.47588011166914 stress="-0.0013590341043878728 0.003958447816290467 -2.5219341831508146e-06 0.003958447816290467 -0.0035007232670031395 4.9074583605772485e-06 -2.5219341831508146e-06 4.9074583605772485e-06 -4.8667626417424464e-06" pbc="T T T"
C       -0.02225188      -0.01334623       3.85221602       0.00139523      -0.00302213       0.00747499
C       -1.22980695       2.14521697       3.89467172      -0.00380533       0.00344544      -0.00669825
C       -2.45719636       4.27061633       3.87804756       0.00756857       0.01371263       0.00538274
C       -3.72359333       6.39432296       3.82791202      -0.00532824       0.00542938      -0.00203607
C       -4.97602734       8.52226658       3.80574765       0.00288955      -0.00573004      -0.00871729
C        2.43897661      -0.02698549       3.85294690      -0.00715515      -0.00180293      -0.00463976
C        1.23118633       2.13065790       3.90273774      -0.00807752       0.00245846       0.01429980
C        0.02475277       4.31807619       3.93433140       0.00306952      -0.00058160       0.00252382
C       -1.25012608       6.41391037       3.86247287       0.00488353      -0.00567143       0.00961194
C       -2.49956074       8.53073241       3.82820064       0.00648311      -0.00578003       0.00654085
C        4.91268366      -0.01775187       3.79846886      -0.00333349      -0.00067393       0.00129432
C        3.69169024       2.08821782       3.79833696       0.00073995      -0.00942843      -0.00452900
C        2.50880668       4.21119844       3.90269261       0.00239899      -0.00295352       0.00498661
O        1.13551493       6.49533260       3.91111813      -0.00090779      -0.00018454       0.00065693
C       -0.04665170       8.54642757       3.74970421      -0.00618493       0.00289990       0.00895724
C        7.38077126      -0.01110593       3.76683119       0.00307508      -0.00814870       0.00712195
C        6.16425777       2.10911043       3.76917919       0.00524478      -0.00142504       0.00430349
C        4.94595196       4.21972746       3.58297801      -0.00203090       0.00393793       0.00121223
S        3.89138352       6.50323288       2.04134987      -0.00109589       0.00173724      -0.00038524
C        2.41106933       8.54361782       3.59638006      -0.00584929      -0.00202656      -0.00162795
C        9.85225133       0.00068995       3.79204894       0.00420909       0.00134583       0.00421436
C        8.63453836       2.12821945       3.83298660      -0.00225743       0.00218864      -0.00438951
C        7.40730992       4.25039310       3.76954512       0.00788527       0.00231203      -0.00456263
C        6.14385500       6.38428804       3.63649803      -0.00409969       0.00081115       0.00327393
C        4.89188272       8.52006095       3.66254338       0.00409272       0.00312910      -0.01271924
C       -0.00544390       1.41952905       3.89236926      -0.00630945      -0.00112062       0.00761640
C       -1.21161464       3.58020026       3.91215723       0.00305251       0.00533458      -0.00852505
C       -2.48025812       5.68921782       3.86401049      -0.00235847       0.01128896       0.00306455
C       -3.73856573       7.81604586       3.82792613       0.00378490       0.00043968      -0.00426940
C       -4.96658285       9.94880324       3.84504075      -0.00213082      -0.00730437      -0.00146932
C        2.44939487       1.39700744       3.85956303      -0.00837998       0.00032643      -0.00342651
C        1.27431931       3.58355892       3.93215922      -0.00027713       0.00218230      -0.00480841
C       -0.04022531       5.71925451       3.90430267       0.00519876      -0.00443052      -0.00344185
C       -1.27331715       7.83102359       3.81387959       0.00476005      -0.00837330       0.01150375
C       -2.49581529       9.95516168       3.82657277      -0.00370918      -0.00366678      -0.00186155
C        4.92667352       1.39792998       3.78503557       0.00486907      -0.00284156      -0.00816476
C        3.70250623       3.51283623       3.74036813       0.00006816      -0.00754247      -0.00310782
C        1.16372613       7.87715543       3.69562490      -0.00883281       0.00118896       0.00530566
C       -0.02329200       9.96922796       3.76353813      -0.00334263       0.00188449       0.00237441
C        7.39552840       1.41150324       3.79662569       0.00133225      -0.00766806       0.00565385
C        6.17698710       3.53095805       3.70895940       0.00328899       0.00274616       0.00191015
C        4.93783205       5.64267737       3.36367211      -0.00478548       0.00814062      -0.01264228
C        3.65820175       7.82476152       3.40152136      -0.00028766       0.01016924      -0.00518305
C        2.44295001       9.97063531       3.72390365       0.00545378      -0.00316158       0.00111272
C        9.86945737       1.42599076       3.85163338      -0.00351426       0.00331048      -0.00786513
C        8.64140733       3.54976116       3.83822055       0.01106698       0.00609829      -0.00752164
C        7.38196149       5.67545831       3.76459947      -0.00279215       0.00160130       0.00206289
C        6.12106160       7.80289910       3.69325443       0.00272106      -0.00216530      -0.00395631
C        4.90800351       9.95610088       3.79204151       0.00438057       0.00114779       0.00060281
Co       3.04171552       6.02988157       3.86373417      -0.00706679      -0.00356357       0.00348563
