49
Lattice="12.336457 0.0 0.0 -6.168228499999997 10.683685154694365 0.0 0.0 0.0 15.0" Properties=species:S:1:pos:R:3:forces:R:3 energy=-442.7902592357355 free_energy=-442.7902592357355 stress="-0.00427443684031055 -1.6552606785840342e-06 -1.3318719403035237e-07 -1.6552606785840342e-06 0.006044558794896512 9.828705040664524e-08 -1.3318719403035237e-07 9.828705040664524e-08 1.1575559855659944e-06" pbc="T T T"
C       -0.00328181       0.01074655       3.75135527       0.00195656       0.00311986       0.00547460
C       -1.24887326       2.12012511       3.74407274       0.00160803       0.00295310      -0.00763763
C       -2.47887602       4.26664718       3.73409686       0.00514121       0.00010261      -0.00143230
C       -3.70118252       6.41758921       3.73769817      -0.00341822       0.00298406       0.00542106
C       -4.93043531       8.56851547       3.74939226       0.00039286      -0.00303208      -0.00005629
C        2.46681446       0.04592344       3.75521808       0.00022079      -0.00426293      -0.01429459
C        1.22910041       2.20456337       3.76004009      -0.00314535      -0.00380151       0.00048621
C       -0.02848002       4.27323477       3.74889168       0.00113569       0.00486499      -0.00224997
C       -1.25617913       6.42452243       3.73654519      -0.01043426      -0.00632615       0.00052721
C       -2.47220400       8.56859273       3.73820281       0.00009070      -0.00401186       0.01519500
C        4.93677889       0.01072199       3.74988249       0.00291455       0.00327051       0.00988482
C        3.70457716       2.20476029       3.77010950       0.00409423      -0.00555394      -0.00650719
N        1.15568193       6.37680390       3.76288629       0.01106976      -0.00357357      -0.00068961
C        0.00148800       8.51767060       3.74811054      -0.00413453       0.00808718       0.00962334
C        7.40834121      -0.03979376       3.75013911       0.00218832      -0.00379560       0.00600340
C        6.18248582       2.11991404       3.75666872       0.00157183       0.00659290       0.00107814
C        4.96259175       4.27333956       3.77699634      -0.00674760       0.00382928      -0.00788591
N        3.77802046       6.37679162       3.78076425      -0.01060768      -0.00473653      -0.00451907
C        2.46688276       8.46514944       3.76606837      -0.00016556       0.00380974      -0.00697251
C        9.86201338      -0.03979831       3.75075950      -0.00589731      -0.00348556       0.00617133
C        8.63510692       2.11186913       3.74184659      -0.00187332      -0.00184063      -0.00015685
C        7.41245756       4.26676163       3.74793132      -0.00078797      -0.00279449       0.01074135
C        6.19015444       6.42443768       3.76490064       0.01078580      -0.00499019      -0.00767544
C        4.93237512       8.51749362       3.76421478       0.00286846       0.00921054       0.00069733
C       -0.00900914       1.43868325       3.75067927      -0.00236252      -0.00093778       0.00701340
C       -1.25815302       3.54538859       3.73918528       0.00620481       0.00306254       0.00600468
C       -2.47903543       5.69749874       3.73234716      -0.01181541       0.00165126       0.00728142
C       -3.70125909       7.85037096       3.74077308      -0.00170101      -0.00243614      -0.00324225
C       -4.93106268       9.99853556       3.75059956      -0.00340419      -0.00353971       0.01037252
C        2.46686172       1.47813121       3.76411194      -0.00042505      -0.00415092      -0.00489119
C        1.20008641       3.61733114       3.76317460      -0.00942929      -0.00739505      -0.00074114
C       -0.03940521       5.71770234       3.74723707       0.00038257       0.00535299       0.00383547
C       -1.24433201       7.84320885       3.73980972      -0.00395984      -0.00626248      -0.00582258
C       -2.47179901       9.99848313       3.74699399       0.00400351      -0.00100189       0.00383307
C        4.94249714       1.43855687       3.75983569       0.00678628       0.00395941       0.00155141
C        3.73399427       3.61758098       3.77872317      -0.00039226      -0.01055141      -0.00127636
C        1.21987111       7.75786473       3.76075953       0.00153441       0.00298547      -0.00588840
C        0.00188943       9.94999188       3.74901428       0.00026146       0.01133370      -0.00097748
C        7.41084242       1.39145748       3.74796641      -0.00340716      -0.00370911       0.00352051
C        6.19196982       3.54527597       3.76268778      -0.00514071       0.00320647      -0.00895265
C        4.97328482       5.71780892       3.77772518       0.00033984       0.00365763      -0.00267591
C        3.71383889       7.75784931       3.77333919       0.00090593       0.00149604      -0.00842231
C        2.46696590       9.90442415       3.75606772      -0.00165183       0.00103892      -0.00582176
C        9.85939522       1.39151205       3.74303537       0.00102253      -0.00484349       0.00527737
C        8.63493816       3.54659068       3.73822204       0.00385528       0.00165742       0.00526045
C        7.41302452       5.69764280       3.74955258       0.00965921      -0.00264083      -0.00209129
C        6.17826415       7.84297301       3.75975051       0.00234035       0.00119911       0.00228297
C        4.93183321       9.94982555       3.75499833       0.00118095       0.01230856       0.00021656
Co       2.46653353       4.99727928       3.78133852       0.00638514      -0.00206048      -0.01687293
