49
Lattice="12.336457 0.0 0.0 -6.168228499999997 10.683685154694365 0.0 0.0 0.0 15.0" Properties=species:S:1:pos:R:3:forces:R:3 energy=-435.03911266952144 free_energy=-435.03911266952144 stress="-0.005030964722785607 0.0016025768953203394 -8.35034624615484e-06 0.0016025768953203394 0.0008281865129981263 2.5121529844077216e-07 -8.35034624615484e-06 2.5121529844077216e-07 2.4034834584172394e-06" pbc="T T T"
C       -0.00475147       0.00899043       3.78134596       0.00484487      -0.00878309       0.00473791
C       -1.23718350       2.13307591       3.91889221      -0.00516835      -0.00082190       0.00091331
C       -2.46371888       4.27570956       3.94649306      -0.00490773      -0.00143637       0.00277305
C       -3.70321288       6.41249452       3.82700595       0.00743993       0.01064438      -0.00902484
C       -4.94263691       8.55538224       3.69924963      -0.00460913       0.00745522       0.00812210
C        2.46090576       0.02791017       3.78902964       0.01580644      -0.00135285      -0.00217264
C        1.23475314       2.18654203       3.83907836      -0.00169826       0.00206166       0.00818412
C       -0.00816446       4.29783088       3.95728766      -0.00479395       0.01003426      -0.00021256
C       -1.25112640       6.42859358       3.95472501       0.00116469      -0.00336296      -0.01155556
C       -2.47735096       8.56014323       3.85188842       0.00970584      -0.00946127       0.00227680
C        4.93462917       0.00728101       3.84080828      -0.00802836       0.00366306      -0.00289607
C        3.71022320       2.16587767       3.70112689       0.00469233       0.00198450      -0.01102036
O        1.13978191       6.43568429       3.90190889       0.00412827      -0.00080913       0.01378082
C       -0.01130415       8.53530308       3.87530358       0.00622864       0.00432130      -0.00259096
C        7.40736901      -0.02654108       3.88100794      -0.01208296       0.00819915      -0.00289582
C        6.19169778       2.11463247       3.81407431       0.00637699      -0.00297689       0.00191878
C        5.00261783       4.22455356       3.48917916      -0.00615605      -0.00008070      -0.00539802
P        3.66169830       6.34515462       2.43003322      -0.00496651       0.00233475       0.00848387
C        2.44135326       8.50337028       3.67941809      -0.00245765      -0.00015655      -0.00986984
C        9.86391317      -0.02026731       3.83117308      -0.00580883      -0.00468849      -0.00081073
C        8.64381427       2.12203676       3.91497234       0.00306580      -0.00459032       0.00167409
C        7.42899866       4.26386220       3.79433937       0.00387840      -0.00461017      -0.01234806
C        6.19999083       6.40598564       3.50557920       0.00108393      -0.00136278       0.00720619
C        4.92342099       8.54123398       3.54333927      -0.00511778      -0.00403419      -0.00479324
C       -0.00572214       1.43462830       3.85753162      -0.00420500      -0.00639125       0.00403674
C       -1.24095870       3.56133059       3.96597537      -0.00319518       0.00501151      -0.00624440
C       -2.47615541       5.69932056       3.92585184       0.00150509      -0.00006104      -0.00363652
C       -3.71096841       7.84298617       3.79294228      -0.00098051       0.01013374       0.00432920
C       -4.93821434       9.98560422       3.75409706       0.01317095       0.00257673       0.00218586
C        2.46751445       1.45694150       3.77506310       0.00713448       0.00169478      -0.00033515
C        1.20980150       3.58897961       3.88639176      -0.00576220       0.00397761       0.00202485
C       -0.05873759       5.71569211       3.96245093       0.00107900       0.00472636       0.00138884
C       -1.25573769       7.84854925       3.90795453       0.01250869      -0.00614209      -0.00626900
C       -2.47651956       9.99039119       3.82240373       0.00577171      -0.01091858       0.00926291
C        4.94890485       1.42599676       3.78781676       0.00381946       0.00275924      -0.00369630
C        3.76766749       3.55422358       3.51694929      -0.01013875       0.00708068       0.00495946
C        1.19380398       7.84505013       3.79156582       0.00412043      -0.00263422       0.00721751
C       -0.00131521       9.96486214       3.86952883      -0.01170733       0.00775932       0.00424446
C        7.41694447       1.40164076       3.88723221       0.00452040       0.00205251       0.00384251
C        6.21774605       3.52929915       3.71736578      -0.00005443      -0.00353902      -0.00319918
C        5.02693748       5.64333748       3.29435562      -0.00870551       0.00424925      -0.01463472
C        3.67793914       7.85699133       3.38412646      -0.00526184      -0.01136248      -0.00179243
C        2.46067159       9.93761641       3.82596335      -0.01192206       0.00199855       0.01243328
C        9.86838062       1.40742339       3.90639055      -0.00233485      -0.00356929       0.00371962
C        8.64796325       3.55249003       3.90489999       0.00042359      -0.00839464      -0.00486564
C        7.41954231       5.69188181       3.72361683       0.00897266       0.00135231       0.00228712
C        6.17095601       7.83673402       3.54895244      -0.00653933      -0.00017662       0.00908012
C        4.93147310       9.96573420       3.73561134      -0.00194960      -0.00453714      -0.01016324
Co       2.46975840       4.93600471       3.64242257       0.00710954       0.00018317      -0.00065828
