49
Lattice="12.336457 0.0 0.0 -6.168228499999997 10.683685154694365 0.0 0.0 0.0 15.0" Properties=species:S:1:pos:R:3:forces:R:3 energy=-426.7440457506046 free_energy=-426.7440457506046 stress="-0.00666700563975672 0.00023490536692378854 -1.2126263290827984e-07 0.00023490536692378854 -0.006019706143363468 -5.67798099245813e-06 -1.2126263290827984e-07 -5.67798099245813e-06 3.0405180852296537e-06" pbc="T T T"
C       -0.00113294      -0.00805721       3.68568114       0.01000785      -0.00344265       0.01625984
C       -1.23067142       2.13708019       3.60663708       0.00005951      -0.00467455      -0.00089646
C       -2.47208408       4.27322381       3.77401400      -0.00575782       0.00275400      -0.00840614
C       -3.69998982       6.41123056       3.85904717       0.00009188       0.00043400      -0.00772390
C       -4.94587135       8.53499513       3.74658900      -0.00648284      -0.00471330       0.00876014
C        2.46146269      -0.02434507       3.85979778       0.00159055      -0.01073521      -0.00803576
C        1.25703776       2.07908165       3.54540078      -0.00372685       0.00768192      -0.00306824
C       -0.08755090       4.31675825       3.33058335       0.00795905      -0.00390184      -0.00920051
C       -1.27341819       6.43035297       3.71152700      -0.00334985       0.00904245      -0.00645003
C       -2.47874407       8.54714692       3.85582420      -0.01250575      -0.00084249       0.00071665
C        4.93497408      -0.01095425       3.96916112       0.00164741       0.00037455       0.00345571
C        3.68078019       2.07336008       4.19826987       0.00028553       0.00350326      -0.00026364
C        1.16644761       6.43407579       3.48042811      -0.00601622      -0.01440197       0.00199816
C       -0.01056477       8.54646919       3.75422091       0.00118069       0.00147315      -0.00812928
C        7.40309158      -0.00481601       3.86366292      -0.00011750       0.00563146       0.01028604
C        6.17555142       2.12731815       4.13413150       0.00740147      -0.00645322      -0.00545182
C        5.00912525       4.31468014       4.17055838      -0.00748553      -0.01441581       0.00346440
S        3.75654271       6.29057872       2.64702310      -0.00382288      -0.01320190      -0.00453923
C        2.46835768       8.54831624       3.53722746       0.00527772       0.00211373      -0.00217538
C        9.86857740      -0.00115559       3.69873977       0.00420945      -0.00112737       0.00546267
C        8.64280400       2.13121360       3.88605447       0.00225768       0.00438300      -0.00728590
C        7.42737280       4.26880871       3.99568478      -0.00413461       0.00239702       0.00223339
C        6.19581781       6.41212089       3.75460975       0.00216237       0.00143451       0.00428775
C        4.93927953       8.54322511       3.53891813       0.00756127       0.00180065       0.01317661
C        0.00299952       1.42374838       3.60503553       0.00477616       0.00036868       0.01194588
C       -1.24764379       3.55933532       3.56984912      -0.00355074      -0.00319053       0.00007211
C       -2.47808636       5.69710688       3.79988795       0.00071104       0.00315312      -0.00488528
C       -3.70705685       7.83201779       3.82696660      -0.01116067      -0.00271557      -0.00215456
C       -4.94142835       9.96038246       3.75131597       0.00305712      -0.01066899       0.00762648
C        2.46655168       1.40458644       3.87566913      -0.00326582      -0.00947552       0.00281309
S        1.33479551       3.56697052       2.65531428      -0.00288128       0.01200149       0.00766236
C       -0.04512056       5.72594825       3.50638907      -0.00688359       0.00581079      -0.01590908
C       -1.24725769       7.84443763       3.79228490      -0.00563981       0.00797970       0.00016079
C       -2.46935740       9.96313056       3.90999930       0.00008607      -0.00338189      -0.00406416
C        4.93502510       1.41589521       4.12072477       0.00490877      -0.00088534      -0.00403550
S        3.60437182       3.62075717       4.96835137       0.00064759       0.01163056       0.00275707
C        1.22560274       7.81344413       3.58245834       0.00268339      -0.00493415      -0.00638966
C        0.00062580       9.96462527       3.87077817      -0.00049321       0.00317803      -0.00366610
C        7.40235004       1.41950203       3.97793080       0.00861284       0.00091613       0.00212747
C        6.20180198       3.54958447       4.14098900       0.00094950      -0.00811530      -0.00878649
C        5.00640757       5.64998804       3.72422076      -0.00406938       0.01458266      -0.00886673
C        3.69737697       7.89120234       3.33327623       0.00948898      -0.00368832      -0.00185418
C        2.46613706       9.97267316       3.71268742      -0.00004041       0.00479524       0.01033271
C        9.87801637       1.42820307       3.74080604      -0.00198504      -0.00065778       0.00039668
C        8.64943136       3.55297179       3.90794191      -0.00550626       0.00508259      -0.00902698
C        7.42038701       5.69256891       3.89757958       0.00092077       0.00133050       0.00424493
C        6.16692598       7.82655019       3.63564147      -0.00002699      -0.00175267       0.01644524
C        4.93119653       9.97009315       3.64440261       0.00966016       0.00212332       0.00825765
Co       2.43614628       5.06211800       3.80042748       0.00070824       0.01139984      -0.00367881
