49
Lattice="12.336457 0.0 0.0 -6.168228499999997 10.683685154694365 0.0 0.0 0.0 15.0" Properties=species:S:1:pos:R:3:forces:R:3 energy=-442.3049832469109 free_energy=-442.3049832469109 stress="-0.0037015943265095255 0.00010488207240704671 -3.285554966684008e-07 0.00010488207240704671 0.008835956673598103 2.166715227023839e-08 -3.285554966684008e-07 2.166715227023839e-08 1.0810744517341835e-06" pbc="T T T"
C        0.00019061       0.01712371       3.75341324       0.00225560       0.00374122       0.00253675
C       -1.24568976       2.12199814       3.74486933      -0.00727514      -0.00682152      -0.00767223
C       -2.47973201       4.26668357       3.73404799      -0.00219298      -0.00340313      -0.00095942
C       -3.70416739       6.42129336       3.73779383       0.00028522       0.00567888       0.00454079
C       -4.93133283       8.57596686       3.75031340      -0.00095196       0.00410253       0.00160699
C        2.46519396       0.07079422       3.75562991      -0.00277184      -0.00210587      -0.01099356
C        1.22078825       2.22335915       3.76033403       0.00014111      -0.00554268      -0.00104574
C       -0.03700032       4.24928787       3.74788363       0.00194832      -0.00111485      -0.00054047
C       -1.26926267       6.42416376       3.73659899      -0.00449075      -0.00231780       0.00084082
C       -2.48100122       8.57951898       3.73839435      -0.00719308      -0.00019599       0.01583212
C        4.92965707       0.02083907       3.75060140      -0.00051077      -0.00064260       0.00993721
C        3.71195933       2.22519867       3.76903880       0.00286594      -0.00279543      -0.00660264
C        1.17933887       6.34709116       3.76232950       0.00720330      -0.00161452      -0.00199038
C       -0.00977551       8.52571279       3.74834031      -0.00078336      -0.00569627       0.01199354
C        7.40720947      -0.04174388       3.75113200      -0.00025808       0.00906311       0.00722649
C        6.17777323       2.12200503       3.75710496       0.00944315       0.00095412       0.00132944
C        4.97588534       4.26121987       3.77545780      -0.00326517      -0.00600714      -0.00861676
N        3.77028542       6.35421484       3.77881451      -0.00106948       0.00018187      -0.00526384
C        2.47783887       8.46446337       3.76530214      -0.00076615       0.00357120      -0.00054571
C        9.86443263      -0.04197201       3.75221301      -0.00154676       0.00268602       0.00329879
C        8.63524104       2.11050014       3.74151770      -0.00048437       0.00409024       0.00211558
C        7.41339169       4.26827315       3.74794019       0.00362219       0.00127888       0.00754853
C        6.18969446       6.42179702       3.76464224       0.00331355      -0.00568955      -0.00673876
C        4.93575637       8.51294811       3.76489789       0.00784512       0.00403346       0.00148017
C        0.00185578       1.45224445       3.75185940      -0.00222907      -0.00285656       0.00805309
C       -1.25628755       3.54089532       3.73963048      -0.00078967      -0.00490082       0.00124194
C       -2.48317689       5.69999469       3.73241072      -0.00523979      -0.00165278       0.00593768
C       -3.70425958       7.85689836       3.74050063      -0.00430343       0.00226759       0.00099818
C       -4.92961767      10.01115425       3.75208693       0.00005570      -0.00053206       0.00933863
C        2.46755944       1.51337450       3.76426252       0.00138775      -0.00456738      -0.00834831
N        1.16461484       3.60643029       3.76145031      -0.00251788      -0.00868889       0.00154040
C       -0.03716769       5.69286087       3.74674696       0.00405156       0.00324933       0.00385263
C       -1.25381130       7.84864153       3.73996928      -0.00596550      -0.00104194      -0.00712206
C       -2.47720160      10.01249206       3.74758403      -0.00369274      -0.00121779       0.00186851
C        4.92948052       1.45564831       3.76023825       0.00670394       0.00195236      -0.00062145
N        3.76667778       3.61201964       3.77598230      -0.00590402      -0.00301433      -0.00097726
C        1.22959254       7.74629585       3.76048786       0.00393346      -0.00298743      -0.00918187
C       -0.00442971       9.95384061       3.74982586       0.00098205      -0.00106085      -0.00145155
C        7.40565128       1.39115027       3.74861027       0.00648385       0.00492769       0.00250744
C        6.18927349       3.54465565       3.76256036       0.00362179      -0.00044153      -0.00932847
C        4.97473423       5.70401972       3.77603116      -0.00130944      -0.00400102      -0.00200855
C        3.71883322       7.73921495       3.77243842       0.00272072       0.00108432      -0.00777709
C        2.47082981       9.90162519       3.75728295      -0.00266683       0.00699440      -0.01010279
C        9.86368409       1.39207925       3.74328717      -0.00828411       0.00110605       0.00917706
C        8.63538823       3.54507584       3.73747858      -0.00012442       0.00040379       0.00868213
C        7.41224150       5.69763463       3.74960682       0.00451250      -0.00018821      -0.00197183
C        6.17846375       7.84459367       3.76111212       0.00461815      -0.00132961      -0.00280212
C        4.93387024       9.94771019       3.75646122       0.00217433       0.00804656       0.00258729
Co       2.48391967       4.96726211       3.77820381      -0.00358251       0.01301491      -0.01340935
