49
Lattice="12.336457 0.0 0.0 -6.168228499999997 10.683685154694365 0.0 0.0 0.0 15.0" Properties=species:S:1:pos:R:3:forces:R:3 energy=-435.10040715636785 free_energy=-435.10040715636785 stress="-0.00552602406872081 -0.0018841864536849199 2.2980243290163256e-06 -0.0018841864536849199 0.000267227086756928 -5.502994053129972e-06 2.2980243290163256e-06 -5.502994053129972e-06 -1.7241716500768179e-06" pbc="T T T"
C       -0.00222585       0.01291608       3.84997636      -0.00579230      -0.00267641      -0.00067412
C       -1.25797343       2.11899769       3.86036448      -0.00006739      -0.00106689       0.00314380
C       -2.49076180       4.25993833       3.92408093      -0.00066303       0.00362900       0.00085978
C       -3.70135429       6.41090214       3.94964296      -0.00334092       0.00149269      -0.00430374
C       -4.92938535       8.56257583       3.91417259       0.00126870      -0.00195220       0.00269959
C        2.46658538       0.01140452       3.79070555       0.00626366       0.00185742      -0.00407379
C        1.22274661       2.17344377       3.70152855       0.00035805      -0.00155915       0.00597374
C       -0.03387533       4.25324603       3.86832597       0.00197079       0.00504326       0.00332379
C       -1.26443175       6.41325254       3.95732635      -0.00057410       0.00265828      -0.00736531
C       -2.47144124       8.55502112       3.90715350       0.00451436      -0.00463252       0.00339290
C        4.93759384      -0.01246364       3.71692671       0.00352576       0.00151520      -0.00162548
C        3.68842789       2.07848761       3.35176005       0.00522741      -0.00015210      -0.00986278
C        1.17719241       6.37035465       3.85566736       0.00691990      -0.00499943       0.00501630
C        0.00481594       8.51875701       3.84429877      -0.00482852       0.00067616       0.00649223
C        7.40361229      -0.02896618       3.75071283      -0.00371472       0.00378187       0.00951871
C        6.16373269       2.13452439       3.58563307      -0.00632920       0.00145204      -0.00284810
C        4.98158196       4.35516088       3.38023837       0.01242820      -0.00507578      -0.00911341
O        3.82491294       6.46218577       3.55258568       0.01440824       0.00092470      -0.00339678
C        2.49332760       8.48651139       3.78430864      -0.00533318      -0.00335482       0.00801141
C        9.85878347      -0.02720740       3.82448807      -0.00547812      -0.00225063      -0.00446727
C        8.61894101       2.11958590       3.80739297      -0.00327731      -0.00180151      -0.00041551
C        7.39337337       4.27369777       3.79298504      -0.00360053       0.00137169       0.00091588
C        6.20373449       6.44071994       3.79972607      -0.00341411      -0.00310613      -0.00594393
C        4.95043928       8.54750866       3.83398773       0.00329854       0.00316250      -0.00281085
C       -0.01342354       1.43427653       3.81531358      -0.00172606      -0.00479713       0.00342566
C       -1.26659325       3.53865971       3.89939723       0.00147544       0.00242658      -0.00006314
C       -2.48356483       5.68976335       3.96038665      -0.00152692       0.00593605      -0.00164878
C       -3.69742826       7.84178460       3.94146396       0.00286247      -0.00215471      -0.00162827
C       -4.93086892       9.98886976       3.86893974       0.00013532       0.00061445       0.00461364
C        2.46057949       1.42993921       3.61419066       0.00555510       0.00446139       0.00529869
C        1.18607203       3.57726554       3.71397028      -0.00222577      -0.00249538       0.00365831
C       -0.03866132       5.69449156       3.91117816       0.00072587       0.00488106      -0.00241072
C       -1.24187937       7.83495159       3.91442655      -0.00014651      -0.00171655      -0.00166117
C       -2.46832261       9.97597316       3.81145245       0.00756995      -0.00324055      -0.00343932
C        4.93568829       1.40928138       3.53645372       0.00028082       0.00283583       0.00276632
P        3.63741387       3.60802487       2.44001995      -0.00634883      -0.00659162      -0.00009298
C        1.24292248       7.75749015       3.82776489      -0.00672172      -0.00279037       0.00528707
C        0.00203216       9.94545929       3.76981169      -0.00061260       0.00179739       0.00387912
C        7.38914846       1.40735631       3.71696759      -0.00791570       0.00289466       0.00471355
C        6.16760689       3.57221868       3.58602340       0.00276330      -0.00319524      -0.00786234
C        5.03010907       5.75261606       3.54695172       0.00421810      -0.00797963       0.00582254
C        3.74359381       7.85104543       3.75774348       0.00401141       0.00442044      -0.00453072
C        2.46947720       9.92419135       3.79021784      -0.00551284      -0.00058906      -0.00151105
C        9.84735365       1.40232486       3.84109037      -0.00101466      -0.00252348       0.00169675
C        8.61746748       3.54924681       3.85548129      -0.00283534       0.00095611       0.00026545
C        7.41536079       5.69629139       3.86951561      -0.00525088       0.00158128      -0.00924167
C        6.18966640       7.85597679       3.86920875       0.00018332      -0.00245271      -0.00050132
C        4.93384173       9.97122490       3.85113402      -0.00572103       0.00123611      -0.00863308
Co       2.51144948       4.97927105       3.64162743       0.00400761       0.01154784       0.00935038
