49
Lattice="12.336457 0.0 0.0 -6.168228499999997 10.683685154694365 0.0 0.0 0.0 15.0" Properties=species:S:1:pos:R:3:forces:R:3 energy=-442.48999061945943 free_energy=-442.48999061945943 stress="-0.007321073849142783 -1.4265030731380516e-06 -2.5634330657528356e-07 -1.4265030731380516e-06 0.0063027120226816285 1.1816804772794255e-07 -2.5634330657528356e-07 1.1816804772794255e-07 1.0752919779582576e-06" pbc="T T T"
C       -0.00222955       0.01608887       3.75267917       0.00221241       0.00704864       0.00264439
C       -1.25631236       2.11492117       3.74338673      -0.00740955      -0.00574814      -0.01032997
C       -2.49204174       4.26547043       3.73171715      -0.00239496      -0.00451127      -0.00142101
C       -3.70632713       6.42318422       3.73651314      -0.00193569       0.00679616       0.00247030
C       -4.92996164       8.57876842       3.74967954      -0.00191452       0.00384661       0.00095281
C        2.46958869       0.06640794       3.75652026      -0.00194834      -0.00345179      -0.01355758
C        1.23017534       2.22033054       3.76128678       0.00343140      -0.00225044      -0.00178284
C       -0.06129056       4.26221911       3.74639071       0.00820264       0.00014762      -0.00128381
C       -1.27968844       6.43048580       3.73448812      -0.00400706      -0.00047477       0.00085885
C       -2.48147471       8.58042019       3.73772800      -0.00641386       0.00041326       0.01653543
C        4.93367185       0.01671492       3.75027250       0.00173275      -0.00139975       0.01218755
C        3.72406682       2.21613974       3.77171192       0.00291255      -0.00059066      -0.01067618
C        1.16706200       6.35232479       3.76366731       0.00808897       0.00086740      -0.00060725
C       -0.00843423       8.52365790       3.74847568       0.00071809      -0.00324476       0.01128833
C        7.40760398      -0.04481368       3.75127345      -0.00234180       0.00591631       0.00518584
C        6.18077241       2.11804918       3.75623532       0.00955011       0.00127100       0.00482728
C        4.98807034       4.25933692       3.77733519      -0.00444160      -0.00174173      -0.00822026
N        3.78904055       6.36935001       3.78194467      -0.00441926      -0.00447927      -0.00336713
C        2.47841882       8.46496944       3.76718438      -0.00060805       0.00298253      -0.00326929
C        9.86199257      -0.04389919       3.75146284      -0.00420655       0.00090546       0.00582246
C        8.63208779       2.10722191       3.74087752      -0.00330344       0.00035468      -0.00072104
C        7.41397364       4.26813462       3.74623069       0.00243794       0.00168256       0.00907207
C        6.19544572       6.42558225       3.76387555       0.00335075      -0.00662443      -0.00540174
C        4.93942210       8.51801921       3.76490288       0.00773669       0.00082301       0.00168555
C       -0.00832931       1.44288919       3.75111959      -0.00128096       0.00142002       0.01028562
C       -1.27993492       3.53618650       3.73688880       0.00216161      -0.00369971       0.00398361
C       -2.49182126       5.70110038       3.73038330      -0.00622590      -0.00043485       0.00529031
C       -3.70420623       7.85885293       3.74003365      -0.00530590       0.00328533      -0.00223971
C       -4.92883476      10.01098959       3.75192444      -0.00058407      -0.00007464       0.00989064
C        2.47823209       1.50171358       3.76579244       0.00250007      -0.00501129      -0.00505886
C        1.16715421       3.61450225       3.76341731       0.00366232      -0.00698969       0.00064217
C       -0.06116282       5.70427126       3.74522066       0.00599972       0.00469535       0.00410724
C       -1.25642989       7.85173258       3.73899888      -0.00387157       0.00159296      -0.00711449
C       -2.47476498      10.01035664       3.74766189      -0.00165559      -0.00135219       0.00182698
C        4.93913703       1.44833471       3.76057914       0.00821032       0.00178483       0.00074690
N        3.78922276       3.59740419       3.77986392      -0.00799157       0.00034227       0.00066770
C        1.23017792       7.74639615       3.76189359       0.00426414      -0.00084329      -0.00942235
C       -0.00231955       9.95018998       3.74958338       0.00111288      -0.00170890      -0.00021815
C        7.40610572       1.38738785       3.74808931       0.00403810       0.00050892       0.00169999
C        6.19535875       3.54099559       3.76182036       0.00170739       0.00205616      -0.00784405
C        4.98794566       5.70754901       3.77771819      -0.00192304      -0.00228105      -0.00146629
C        3.72421051       7.75057832       3.77432454       0.00130254      -0.00314081      -0.00838719
C        2.46983445       9.90008820       3.75762193      -0.00544173       0.00521150      -0.00893179
C        9.85515758       1.38599912       3.74238193      -0.00974048      -0.00032126       0.00793294
C        8.63005061       3.54292229       3.73616570      -0.00171284      -0.00212176       0.00493788
C        7.41398026       5.69811642       3.74811595       0.00329766      -0.00027865      -0.00262875
C        6.18115959       7.84841426       3.76004117       0.00523009      -0.00356991       0.00042620
C        4.93388429       9.94953621       3.75577784       0.00139613       0.00708141       0.00231932
Co       2.48995332       4.98295721       3.78346215      -0.00417896       0.00531102      -0.01433866
