49
Lattice="12.336457 0.0 0.0 -6.168228499999997 10.683685154694365 0.0 0.0 0.0 15.0" Properties=species:S:1:pos:R:3:forces:R:3 energy=-433.86103203896454 free_energy=-433.86103203896454 stress="-0.00284756619516692 0.0016682847065172199 7.753779849099128e-06 0.0016682847065172199 0.00388808747137178 -5.721070242571638e-06 7.753779849099128e-06 -5.721070242571638e-06 -7.770522999390999e-07" pbc="T T T"
C        0.00144480       0.02152200       3.76848857       0.00525266      -0.00686845      -0.00247245
C       -1.23194743       2.14014944       3.88520506       0.00437775      -0.00731898       0.01159300
C       -2.46223796       4.27826942       3.91471845       0.00063267       0.00254998      -0.00700670
C       -3.70173799       6.41692420       3.81674547       0.00217739       0.00596202      -0.00093163
C       -4.94890168       8.55979840       3.69889599       0.00240690      -0.00749365      -0.00079048
C        2.46237692       0.05229639       3.78475231      -0.00735711       0.00757519       0.00312439
C        1.22607434       2.20361043       3.82268446       0.00139100       0.00158084      -0.00450133
C       -0.02287106       4.28430591       3.90328362       0.00748886      -0.00853500       0.01001211
C       -1.24493715       6.42289416       3.89376931       0.00022814      -0.00316369       0.00248729
C       -2.47467846       8.56386582       3.82996606      -0.00646110       0.00200397      -0.00845486
C        4.93064133       0.01368272       3.83785774       0.00014291      -0.00163988       0.00479390
C        3.72070255       2.18991604       3.75359435      -0.00159712      -0.00222511       0.00518315
O        1.14302538       6.42350630       3.91121481      -0.00883560       0.00321705      -0.00051159
C       -0.00406046       8.53068383       3.84246021      -0.00582032       0.00759042       0.00144615
C        7.40444684      -0.02386280       3.87682320       0.00668698       0.00139862      -0.00682836
C        6.18652571       2.11795262       3.84427987      -0.00533768       0.00390846      -0.00489488
C        5.00345760       4.22031456       3.56321171      -0.00556515      -0.00176542      -0.00604140
S        3.64978493       6.32534901       2.54848596       0.00294195      -0.00671935      -0.00368075
C        2.43887659       8.50139703       3.67588540       0.00309117      -0.00245382       0.00310080
C        9.86535491      -0.01771789       3.81806077      -0.00598686       0.00498615      -0.00088084
C        8.64495369       2.12490492       3.90970805      -0.00888945       0.00164185      -0.00501703
C        7.42540295       4.26611276       3.81645537      -0.00007753       0.00290004       0.00217801
C        6.18612532       6.40041616       3.54591669       0.01071825      -0.00397933       0.00213077
C        4.92108576       8.54291059       3.54416189       0.00438970       0.00482517       0.00336193
C        0.00395614       1.45289037       3.83460727       0.00742179      -0.00500725      -0.00696581
C       -1.23826879       3.56273251       3.91632241       0.00382904      -0.00494759       0.01228578
C       -2.47194638       5.69966864       3.88925069      -0.00239915       0.00391006      -0.00480511
C       -3.71151057       7.84687956       3.78186084      -0.00131562       0.00126211      -0.00203910
C       -4.93682113      10.00020524       3.74489701       0.00160697      -0.00764743       0.00384679
C        2.46808930       1.49173071       3.78625890      -0.00294948       0.00841790      -0.00048782
N        1.17869261       3.58081803       3.85130642       0.00787317      -0.00018340      -0.00499345
C       -0.05592971       5.70031075       3.90192247       0.00081460      -0.00691617       0.00225446
C       -1.25245355       7.84557516       3.86490832      -0.00539092       0.00019891       0.00243977
C       -2.47767210      10.00077153       3.81442849      -0.00768416       0.00450221      -0.00103820
C        4.94088256       1.44070360       3.81388375      -0.00123209      -0.00308029      -0.00280589
N        3.79334477       3.55735953       3.62722213      -0.00517125      -0.00377792       0.00359503
C        1.19255466       7.83700418       3.76851746      -0.00519502       0.00561700       0.00556783
C       -0.00171143       9.96759315       3.85460001       0.00602642       0.00581831       0.00144499
C        7.41357933       1.40641857       3.89488270      -0.00617455       0.00155066      -0.00317262
C        6.21149934       3.52929229       3.76699541      -0.00501641       0.00547259      -0.00346825
C        5.03370898       5.61807911       3.32560059       0.00811061      -0.00206500       0.00445927
C        3.68115151       7.87128956       3.36583673       0.00618043       0.00118468      -0.00157336
C        2.46100000       9.93887530       3.81823663       0.00162772      -0.00251103      -0.00552657
C        9.87446665       1.41424172       3.88713746      -0.00700056       0.00070977       0.00355061
C        8.64875633       3.55299415       3.89967786      -0.00256251       0.00207041      -0.00315103
C        7.41563100       5.69220426       3.74573527       0.01086179       0.00046022      -0.00281970
C        6.16459687       7.83594687       3.56124728       0.00609418      -0.00384040       0.00364083
C        4.93260121       9.97335723       3.72426410      -0.00136877       0.00438188       0.00804699
Co       2.49028829       4.80240509       3.70849405      -0.00298462      -0.00355732      -0.00568466
