49
Lattice="12.336457 0.0 0.0 -6.168228499999997 10.683685154694365 0.0 0.0 0.0 15.0" Properties=species:S:1:pos:R:3:forces:R:3 energy=-433.6252131477321 free_energy=-433.6252131477321 stress="-0.001726989390795626 -8.39069771871821e-05 9.684958032430772e-06 -8.39069771871821e-05 0.006238101113824239 1.030903344713906e-06 9.684958032430772e-06 1.030903344713906e-06 -1.9074067655459128e-06" pbc="T T T"
C        0.00186223      -0.00170805       3.71994292      -0.00083813      -0.00232651       0.00162648
C       -1.23938582       2.12731171       3.56408133       0.00149037       0.00785617       0.00858797
C       -2.48708215       4.27298552       3.76318987      -0.00068120       0.00594489       0.00940298
C       -3.71224243       6.41463056       3.91843993       0.00561119      -0.00441358      -0.00265632
C       -4.93799483       8.55580617       3.89587182      -0.00313852      -0.01004171      -0.00269347
C        2.47373430       0.03131563       3.78986009      -0.01012588      -0.00030368       0.00368167
C        1.24707479       2.09019786       3.33723718       0.00065814      -0.00882592       0.00122162
C       -0.10784382       4.33848410       3.32703334      -0.00099561      -0.00884980      -0.00136393
C       -1.27102062       6.43267629       3.78240332       0.01175723      -0.00644497      -0.01051893
C       -2.47121514       8.56480758       3.88463993      -0.00093357       0.00827681       0.00052538
C        4.93849087       0.01187236       3.83135978      -0.00105848       0.00825579       0.00035162
C        3.71683181       2.21676219       3.74143030       0.00378350      -0.00125344       0.00777373
N        1.16348181       6.36534696       3.61957741      -0.00209533      -0.00465857       0.00191005
C        0.00953598       8.51365431       3.80186959      -0.00528564       0.00168442       0.00615435
C        7.41400087      -0.03831610       3.80826287      -0.00022913       0.00189615       0.00492583
C        6.17861839       2.12756922       3.86417571      -0.00944117       0.00562969      -0.00482277
C        4.95018991       4.27209578       3.91343020      -0.00130862       0.00335357      -0.00085872
O        3.78808183       6.41229833       3.93408841       0.00598895      -0.00186927       0.01280740
C        2.48550540       8.45633923       3.79093151       0.00320223      -0.00804217       0.00219106
C        9.86675416      -0.03688711       3.75074495       0.00236162      -0.00584774      -0.00222298
C        8.63846581       2.11874890       3.79211426       0.00400760      -0.00688124      -0.00319899
C        7.39971149       4.26741818       3.91455632      -0.00679853      -0.00466760       0.00322086
C        6.17334949       6.41222877       3.95793371      -0.00146739       0.00855604       0.00757067
C        4.93374115       8.52218009       3.85661444      -0.00384823       0.01084154       0.00437907
C        0.00194261       1.42329255       3.53416717      -0.00083107      -0.00019504      -0.00324276
C       -1.25937825       3.56268188       3.55727046      -0.00301563       0.00722873       0.00523240
C       -2.48726159       5.69939368       3.83555757       0.00906981       0.00252643      -0.00383760
C       -3.70302487       7.84525232       3.91476081       0.00299597      -0.00327254      -0.00015008
C       -4.92789351       9.98940277       3.80734763      -0.00728135      -0.01089866       0.00214537
C        2.47656873       1.46661509       3.63771454      -0.00030132      -0.00028886       0.00547256
S        1.25487066       3.63493414       2.49192564       0.01143621       0.01103237      -0.00333497
C       -0.06060364       5.73305728       3.57369728       0.00503171      -0.01350446      -0.01215049
C       -1.24371811       7.84506910       3.84125672      -0.00271799      -0.00186994      -0.00873221
C       -2.46597572       9.99359099       3.85154416      -0.00413035       0.01257354      -0.00029395
C        4.93356307       1.45093601       3.82308887      -0.00223640       0.00340580      -0.00545322
N        3.73848443       3.59794694       3.80155058       0.00752756      -0.00133384      -0.00246206
C        1.22367494       7.74267157       3.74854166      -0.00391062      -0.00196058      -0.00249757
C        0.00652671       9.94951706       3.82129988      -0.00207613       0.00501502       0.00805254
C        7.41039471       1.39831199       3.83209718      -0.00674677       0.00507298      -0.00977209
C        6.17817184       3.54870838       3.91192202      -0.01023454       0.00097383      -0.00621500
C        4.98929707       5.69006514       3.94995772       0.00524640       0.00243412      -0.00282425
C        3.73012913       7.82365069       3.84689101       0.00546802      -0.00279671      -0.00985052
C        2.47470169       9.90633771       3.78630864       0.00190642      -0.00552481      -0.00212280
C        9.87579273       1.40752131       3.70482875       0.00799893      -0.00700417      -0.00044718
C        8.63205292       3.54859484       3.83421436      -0.00108275      -0.00386318       0.00417741
C        7.40193245       5.69034140       3.94397319      -0.00128692      -0.00051054       0.00080108
C        6.17653777       7.83680451       3.91632074      -0.00933566       0.00740306       0.00202609
C        4.93387926       9.95538746       3.77607820       0.00226662       0.00372552      -0.00357621
Co       2.43408282       4.99064586       3.65261560       0.00562446       0.00376308       0.00106085
