49
Lattice="12.336457 0.0 0.0 -6.168228499999997 10.683685154694365 0.0 0.0 0.0 15.0" Properties=species:S:1:pos:R:3:forces:R:3 energy=-438.0874268304068 free_energy=-438.0874268304068 stress="-0.0025148250384417863 -0.00030398527615928375 -5.670171573500839e-06 -0.00030398527615928375 0.005733945945572995 -2.8871379536558836e-06 -5.670171573500839e-06 -2.8871379536558836e-06 -1.6995816517937669e-06" pbc="T T T"
C        0.00142362       0.01465050       3.85907320      -0.00668912       0.00141612      -0.00516117
C       -1.24321170       2.12257798       3.86357021       0.00331540      -0.00047678       0.00408783
C       -2.47356965       4.26395920       3.89475029      -0.00312846      -0.00044494      -0.01097609
C       -3.69554183       6.41399179       3.90227469       0.01017241      -0.00291538       0.00777529
C       -4.92739070       8.56504095       3.89695687      -0.00063932      -0.00242873       0.00363809
C        2.46453734       0.03054842       3.79803164      -0.00460627       0.00346243      -0.00108240
C        1.21832941       2.21270231       3.75606929       0.00408211       0.00098809       0.00428632
C       -0.02504618       4.26079738       3.85995632       0.00248891      -0.00620131       0.00516194
C       -1.24500552       6.41246133       3.89244209       0.00255145       0.00020716       0.00370999
C       -2.46569313       8.55688977       3.86431387      -0.00327297       0.00330902       0.00197794
C        4.93972224      -0.00989566       3.69733081       0.00130396       0.00131594       0.00070294
C        3.68942824       2.09950756       3.38216944      -0.00481620      -0.00990711       0.00052479
N        1.17219211       6.36991049       3.79946131      -0.00355755      -0.00529104      -0.00118542
C        0.00756278       8.50896182       3.80179440      -0.00332880      -0.00586558      -0.00129610
C        7.40777231      -0.03947438       3.73596733       0.00249670       0.00261343       0.00387405
C        6.17780294       2.12224798       3.57321724      -0.00260328      -0.00069917       0.00725060
C        5.01364939       4.33291447       3.41556969       0.01078507       0.00827267       0.00149388
N        3.77026334       6.38077633       3.68372186       0.00071843       0.00608992      -0.00944759
C        2.46698535       8.46605245       3.78858860      -0.00258198       0.00359086       0.00234134
C        9.86286559      -0.03720176       3.82455505       0.00259667      -0.00270364      -0.00021329
C        8.63199512       2.11390273       3.79104187       0.00699926       0.00271388       0.00636730
C        7.41556102       4.26885593       3.77339817      -0.00841898       0.00397467      -0.00339571
C        6.19866086       6.43206878       3.81450724       0.00074143      -0.00273412      -0.00050002
C        4.93452825       8.52158846       3.84251677       0.00041442      -0.00178942      -0.00436874
C        0.00259002       1.45093522       3.83736687       0.00278957       0.00126285       0.00488925
C       -1.24688936       3.54409040       3.88578070      -0.00225926      -0.00141876      -0.00193523
C       -2.47285248       5.69106672       3.91033172       0.00861210      -0.00125164      -0.00984624
C       -3.69717210       7.84478870       3.90068456       0.00227127      -0.00377581       0.00673192
C       -4.93010367       9.99446019       3.87009654      -0.00721954       0.00075195      -0.00536372
C        2.45789899       1.46117116       3.65586853      -0.00203213       0.00005762       0.00156557
N        1.18238122       3.60704584       3.78423851       0.00401754      -0.00159815      -0.00664792
C       -0.03342723       5.70179469       3.86118309      -0.00086281      -0.00503827       0.01232045
C       -1.23597636       7.83386101       3.85826415      -0.00678369      -0.00106800      -0.00489840
C       -2.46910645       9.98510004       3.79225977      -0.00181296       0.00557432      -0.00532962
C        4.93764311       1.41390779       3.53415069      -0.00377806       0.00198567       0.00268340
P        3.61888998       3.67841521       2.56328976      -0.00914291      -0.00787953      -0.00418510
C        1.22572963       7.75577504       3.79211823      -0.00179490      -0.00474057       0.00441985
C        0.00622286       9.94164749       3.74296980       0.00254304      -0.00232797       0.00075812
C        7.40066761       1.39841679       3.70030277       0.00375417       0.00386204       0.00562584
C        6.19095466       3.55982095       3.58460179      -0.00298337      -0.00108653      -0.00823829
C        4.98793379       5.73978958       3.64017238       0.00009560       0.00221031      -0.00191135
C        3.71465165       7.75910891       3.78545560      -0.00097164       0.00502953      -0.00533950
C        2.46672632       9.90737032       3.78706338       0.00180244       0.00418279      -0.00053260
C        9.86202225       1.39645418       3.83646758       0.00772087      -0.00287079      -0.00361500
C        8.63402680       3.54590317       3.83240876      -0.00619631       0.00454995      -0.00759992
C        7.41742467       5.69809509       3.84389533       0.00341282       0.00244431       0.00723621
C        6.18162920       7.84511197       3.87188299      -0.00036377      -0.00333955      -0.00273226
C        4.93447335       9.95410928       3.85308923      -0.00241912      -0.00308144      -0.00211088
Co       2.44323365       5.08647458       3.71949858       0.00657776       0.01106872       0.00848965
