49
Lattice="12.336457 0.0 0.0 -6.168228499999997 10.683685154694365 0.0 0.0 0.0 15.0" Properties=species:S:1:pos:R:3:forces:R:3 energy=-436.9939734362056 free_energy=-436.9939734362056 stress="-0.0021941913335648744 -0.00021766794992799092 -1.8866301008014378e-06 -0.00021766794992799092 0.006420022771033066 -2.3455309422032007e-06 -1.8866301008014378e-06 -2.3455309422032007e-06 -1.2279120864960415e-06" pbc="T T T"
C        0.00072111       0.01530325       3.84154222      -0.00752775      -0.00128977      -0.00448761
C       -1.24397639       2.12458878       3.85678983       0.00031323      -0.00319365       0.00809182
C       -2.47242973       4.26532036       3.91490844      -0.00329821       0.00140971      -0.01105251
C       -3.69588570       6.41591410       3.92140884       0.01423732      -0.00498005       0.00886015
C       -4.92930927       8.56640287       3.89592610      -0.00531098      -0.00572441      -0.00146752
C        2.46373990       0.03267270       3.79743915       0.00140412       0.00691370       0.00332573
C        1.22018677       2.22049053       3.74168518       0.00271444       0.00281729       0.00136180
C       -0.02403036       4.26091724       3.87783468       0.00077209      -0.00948054       0.00435428
C       -1.24662313       6.41430625       3.92939452       0.00003621      -0.00092585       0.00047328
C       -2.46804411       8.55771698       3.88503333      -0.00145143      -0.00162910       0.00377223
C        4.93695689      -0.00977116       3.71459981       0.00031829       0.00411384      -0.00063609
C        3.68963881       2.08854654       3.35588911      -0.00697931      -0.00210096       0.00436584
N        1.16962887       6.37144234       3.81882061      -0.00968960      -0.00254532      -0.00008423
C        0.00461527       8.50909342       3.82547503       0.00049463      -0.00443868      -0.00350771
C        7.40552471      -0.04060713       3.74182866      -0.00124308       0.00146949       0.00491463
C        6.17370588       2.12415089       3.58028563      -0.00496413      -0.00648691      -0.00518201
C        5.04199297       4.34068497       3.36744421       0.00709220       0.01191599       0.00222012
N        3.76218511       6.36982850       3.63774975       0.00115757       0.00948983       0.00087488
C        2.46509460       8.46274243       3.77515578       0.00320329       0.01135407       0.00329974
C        9.86174171      -0.03794587       3.81019042       0.00231790      -0.00670248      -0.00415235
C        8.63134112       2.11517648       3.79560267       0.01068578       0.00223228       0.00826879
C        7.41889105       4.27146568       3.78673651      -0.00962831       0.00576444      -0.00181196
C        6.19891033       6.43206571       3.80611374       0.00472298       0.00168421      -0.00188612
C        4.93227899       8.51867179       3.81701449      -0.00297210      -0.00278746      -0.00959551
C        0.00538220       1.45522020       3.82165284       0.00078428       0.00033327       0.00700507
C       -1.24728821       3.54439736       3.89774367      -0.00510903      -0.00324936      -0.00483400
C       -2.47296020       5.69263796       3.93842779       0.01037496      -0.00201045      -0.00439824
C       -3.69904223       7.84640824       3.91516624       0.00117323      -0.00835980       0.00456536
C       -4.93284867       9.99563281       3.86393628      -0.00318980      -0.00044567      -0.01133628
C        2.45798531       1.46755106       3.64998346      -0.00614013       0.00382683       0.00088351
N        1.18335517       3.61090785       3.78648374       0.00852439       0.00057540      -0.00395699
C       -0.03293694       5.70304600       3.89359263      -0.00607982      -0.00654706       0.00573565
C       -1.23810824       7.83465255       3.88982612      -0.00278758      -0.00291037      -0.00692046
C       -2.47159628       9.98711418       3.80317961       0.00332500       0.00579289       0.00821363
C        4.93528686       1.41700343       3.54280886      -0.00712585       0.00233880      -0.00473215
S        3.65997938       3.65682392       2.57913258      -0.00077435      -0.01486548      -0.00273946
C        1.22308136       7.75539597       3.80243986       0.00555276       0.00000271       0.01131448
C        0.00533755       9.94071077       3.76143498      -0.00116752      -0.00225771      -0.00570007
C        7.39539864       1.40057933       3.70825360       0.00515255       0.00033099       0.00814637
C        6.19300368       3.56039101       3.58711921      -0.00448535      -0.00465206      -0.01057441
C        4.98723671       5.73233480       3.60908861       0.00180748       0.01221250      -0.00231271
C        3.71093029       7.75038256       3.75442218       0.00086079       0.00909159      -0.00869686
C        2.46587286       9.90503127       3.77864092       0.00054643       0.00754309       0.00389040
C        9.86159761       1.39661734       3.82997583       0.00866113      -0.00717840      -0.00261330
C        8.63693406       3.54580449       3.84700511      -0.00593602       0.00810643      -0.00522683
C        7.41680360       5.69908122       3.85267768       0.00522329       0.00531113       0.01190277
C        6.17953435       7.84690115       3.85893900      -0.00674105      -0.00416183      -0.00201370
C        4.93280956       9.95284998       3.83229949      -0.00512702      -0.00704523      -0.00567923
Co       2.42478948       5.09189602       3.65562056       0.00627208       0.00133815       0.00975776
