49
Lattice="12.336457 0.0 0.0 -6.168228499999997 10.683685154694365 0.0 0.0 0.0 15.0" Properties=species:S:1:pos:R:3:forces:R:3 energy=-425.4730956244413 free_energy=-425.4730956244413 stress="-0.0036238032786604325 0.0023809289748873076 -2.977548243432515e-06 0.0023809289748873076 -0.00017388734020540395 -8.464167277867844e-07 -2.977548243432515e-06 -8.464167277867844e-07 1.0880704656461988e-06" pbc="T T T"
C        0.00162005       0.00007265       3.75524868       0.00397546      -0.00486674      -0.00557991
C       -1.22665699       2.14743416       3.70646324       0.00321099      -0.00668809      -0.00271825
C       -2.46527920       4.28069493       3.93794887      -0.01105637       0.00409364      -0.00256081
C       -3.71537972       6.41370486       3.98590081       0.00349743      -0.00256725       0.00013239
C       -4.95267648       8.54316731       3.83801589       0.00339197      -0.00720999       0.00536981
C        2.46923464       0.02250239       3.82330875      -0.00216065       0.00159181      -0.00156785
C        1.24033942       2.09940844       3.40288130       0.00457973       0.01746419       0.00066390
C       -0.08302053       4.35405914       3.49637145       0.00936471      -0.01151228      -0.00542195
C       -1.26965158       6.43674261       3.93596736       0.00325086       0.01386289       0.00380950
C       -2.47989640       8.55650195       3.95703205      -0.00305660       0.00484460       0.00790555
C        4.93233204       0.00057834       3.91437228       0.00412212      -0.00260666       0.00102434
C        3.74119327       2.11832122       3.76460148      -0.00074781       0.00071176      -0.00800938
O        1.12893949       6.43775320       3.79472738      -0.00559678       0.00867334      -0.00109591
C       -0.00708328       8.53455949       3.89097466       0.00258957      -0.00090821       0.00177409
C        7.40909651      -0.02341329       3.91262173      -0.00078474      -0.00359862       0.00575502
C        6.19111584       2.11492810       3.95468980       0.00629510      -0.00241462       0.00102441
C        5.02468739       4.23149550       3.72166992      -0.00122936      -0.00272584       0.00335977
S        3.74876296       6.36567004       2.51666443       0.01185931      -0.00151012       0.00078076
C        2.44394968       8.50412113       3.67882486      -0.00238183       0.00632607      -0.00173831
C        9.86865557      -0.01369011       3.80856592      -0.00148063       0.00835388       0.00882625
C        8.65105682       2.12758293       3.94340943      -0.00350607      -0.00192181      -0.00255395
C        7.42021631       4.26532133       3.98309203      -0.00160758      -0.00222410      -0.00352345
C        6.17616360       6.39089770       3.73076216       0.00697027      -0.00123332      -0.00544146
C        4.92376616       8.53311771       3.63001675      -0.00777508      -0.00286826       0.00685558
C        0.00991644       1.43391649       3.63018181       0.01001517      -0.00206530       0.00339596
C       -1.24239499       3.57582507       3.73250376      -0.00927849      -0.00582814       0.00023248
C       -2.48686730       5.70094931       3.98397197       0.00533628       0.00786029      -0.00480534
C       -3.71745088       7.83914239       3.94086977       0.00372792      -0.00620524      -0.00122555
C       -4.93511655       9.98024709       3.80600470       0.00446471      -0.00766583       0.00848397
C        2.49017758       1.46148204       3.67511464      -0.00110436       0.00109567      -0.00085490
S        1.18475054       3.60238940       2.51928522      -0.01347795       0.00242032       0.00018428
C       -0.09059347       5.73473039       3.72604336       0.00041457       0.00183803       0.00951586
C       -1.25756206       7.85081283       3.95586711      -0.00014903       0.01310516      -0.00450968
C       -2.47520683       9.98941892       3.90993249      -0.00207794       0.00343187       0.00161208
C        4.94063974       1.43151747       3.88929299       0.00213852      -0.00101646      -0.00052164
O        3.80553013       3.52795570       3.78902611      -0.00694750       0.00645013       0.00024657
C        1.19275368       7.84758634       3.76787968       0.00002534       0.00241068      -0.00606142
C        0.00117270       9.96583892       3.91562254       0.00213439      -0.00971254      -0.00142978
C        7.41368284       1.40963550       3.95958651       0.00220372      -0.00604525       0.00029690
C        6.20319922       3.52906010       3.93347991       0.00290406      -0.00259033       0.00441662
C        5.01792695       5.61222753       3.49011387      -0.00961824       0.00620103       0.00904985
C        3.69356834       7.86678122       3.40442683      -0.00952844      -0.01667337      -0.00288644
C        2.46474295       9.94321265       3.82754879      -0.00095174       0.00700716      -0.00731813
C        9.88626527       1.42356164       3.84041057      -0.00224697       0.00572451       0.00199283
C        8.64893566       3.55300788       3.98686791      -0.00672510      -0.00237675      -0.00134641
C        7.39893314       5.68584501       3.93710763       0.00440524      -0.00493568      -0.00572077
C        6.16018317       7.81950171       3.70591545      -0.00136989      -0.00160113      -0.00961818
C        4.93203201       9.96689282       3.75546253      -0.00393016       0.00423365      -0.00063070
Co       2.46668943       4.98547896       3.78807218       0.00791186      -0.00612875       0.00043139
