49
Lattice="12.336457 0.0 0.0 -6.168228499999997 10.683685154694365 0.0 0.0 0.0 15.0" Properties=species:S:1:pos:R:3:forces:R:3 energy=-425.6725860376509 free_energy=-425.6725860376509 stress="-0.001428109769123161 8.689966936405676e-06 -2.4822450382934378e-05 8.689966936405676e-06 0.0016535188453445306 7.669137667843112e-06 -2.4822450382934378e-05 7.669137667843112e-06 4.0406017923248216e-07" pbc="T T T"
C       -0.00438630       0.00274791       3.89691609       0.00431214      -0.00092901      -0.00362785
C       -1.24271134       2.13783301       3.98255168       0.00855802      -0.01055706      -0.00570543
C       -2.45777603       4.27542561       3.94354162       0.00790923      -0.00267418      -0.00452980
C       -3.68701176       6.41015104       3.83287228       0.00038572       0.00793133      -0.00495989
C       -4.94370047       8.54636276       3.78768073      -0.00653159       0.00193040       0.01148635
C        2.45339099       0.01677800       3.89036313       0.00326574       0.00121774       0.00543600
C        1.20481598       2.13229841       3.91352799      -0.00497363      -0.00341207       0.00536905
C       -0.03687596       4.28313598       4.05156647       0.00136398       0.00381319      -0.00008855
C       -1.23092784       6.40638797       4.00980954       0.00121869       0.00585693      -0.00267614
C       -2.46770328       8.54467747       3.93224774       0.00868207      -0.00248110       0.00554560
C        4.92783498      -0.00091784       3.83688731      -0.00273322      -0.00902745      -0.00260731
C        3.68064730       2.08597598       3.46127894      -0.00056906      -0.00678329      -0.00318883
O        1.16674593       6.42862332       4.05871858      -0.00317099       0.00237325       0.00046392
C        0.00097912       8.52534874       3.95973185       0.00162383       0.00404487      -0.00722640
C        7.39327696      -0.01334887       3.87876489       0.00340613      -0.00824424      -0.00210668
C        6.17370221       2.12522847       3.59395663       0.00196447      -0.00415305       0.00048315
C        5.09354127       4.28512339       3.04516305      -0.00135879       0.01346638       0.00051919
S        3.58078282       6.40813864       2.54752009      -0.01086281      -0.00281238      -0.00618083
C        2.44190186       8.50906129       3.79897938      -0.00343100      -0.00276599       0.00093660
C        9.85884879      -0.01417676       3.89562709       0.00027705       0.00544448       0.00552177
C        8.63270815       2.13064600       3.85666813       0.00388564       0.00567961       0.00807695
C        7.43784234       4.27031899       3.64703208      -0.00924095      -0.00092359      -0.01032507
C        6.22465826       6.42733286       3.42759055      -0.00229505      -0.00950010      -0.00195034
C        4.92352407       8.54028688       3.62680378      -0.00258985       0.00766253      -0.00187334
C        0.00083984       1.44165080       3.95930637       0.00209758      -0.01098034      -0.00180305
C       -1.23136588       3.56020156       4.01037330       0.01013320      -0.00961620      -0.00413266
C       -2.45749957       5.69088676       3.94408646       0.00259090       0.00296212      -0.00946514
C       -3.70342667       7.83516227       3.85738294       0.00084894       0.00900136       0.00389295
C       -4.94301283       9.98020921       3.87907743       0.00292873       0.00436426      -0.00506761
C        2.44193862       1.45779384       3.80012033      -0.00332329       0.00294676      -0.00225857
O        1.16683498       3.53803313       4.05795708      -0.00453015      -0.00064517       0.00261348
C       -0.03669502       5.68298929       4.05147227      -0.00156372       0.00630720      -0.00079732
C       -1.24246700       7.82897387       3.98152349       0.00811033       0.00204229       0.00027388
C       -2.47765260       9.98075175       3.89545052       0.00107308      -0.00712823       0.00838174
C        4.92319234       1.42638370       3.62678078      -0.00073325      -0.00692935       0.00110009
S        3.58150520       3.55635646       2.54322155      -0.00956358       0.01202969       0.01256625
C        1.20478971       7.83439353       3.91278531      -0.00287192       0.00273989       0.00886692
C       -0.00431094       9.96415615       3.89761160      -0.00068251      -0.00180680      -0.00740314
C        7.39195411       1.42029669       3.78778616       0.00616157      -0.00337560       0.00900494
C        6.22477433       3.53947916       3.42833100      -0.01092610      -0.00049352      -0.00806031
C        5.09361727       5.68035813       3.04609797      -0.00441804      -0.00497635      -0.00216929
C        3.68090716       7.88074392       3.46117975      -0.00239914       0.00788523       0.00198552
C        2.45331706       9.95006532       3.88959078       0.00294256      -0.00432825       0.00679684
C        9.86872529       1.42172432       3.93273054       0.00421217       0.00254585       0.00321032
C        8.64947768       3.55563616       3.83192403      -0.00280782       0.00587366      -0.00012877
C        7.43762971       5.69620755       3.64649143       0.00055209      -0.00158024      -0.00332219
C        6.17426266       7.84175394       3.59369954      -0.00475674      -0.00580282      -0.00132568
C        4.92785299       9.96758421       3.83664146       0.00118886       0.01035970      -0.00238820
Co       2.62809686       4.98331815       4.20729784       0.00664048      -0.00655231       0.00283685
