49
Lattice="12.336457 0.0 0.0 -6.168228499999997 10.683685154694365 0.0 0.0 0.0 15.0" Properties=species:S:1:pos:R:3:forces:R:3 energy=-425.3900856655408 free_energy=-425.3900856655408 stress="-0.0030596502963722415 -2.479088505610838e-05 -4.419522783194509e-06 -2.479088505610838e-05 0.0027479061759157113 -1.8514244433197702e-06 -4.419522783194509e-06 -1.8514244433197702e-06 -3.849803987447305e-06" pbc="T T T"
C        0.00462032       0.01350896       3.83955645      -0.00607272      -0.00088515      -0.00787141
C       -1.24442914       2.12381148       4.01885291       0.00338189       0.00111906      -0.01077899
C       -2.47841123       4.27530101       4.12529430       0.00837533      -0.00942539       0.01342466
C       -3.70158852       6.42075809       4.03240177       0.00146295       0.00475442       0.00355610
C       -4.93728286       8.55855134       3.83440899      -0.00593034       0.00499094       0.00441626
C        2.46677168       0.05722316       3.81231216      -0.00015024      -0.00380402      -0.00293929
C        1.19995902       2.14609906       3.78798292      -0.00144268      -0.00311384       0.01548940
C       -0.09480760       4.24618373       3.78369465      -0.00074869      -0.00370789      -0.00819953
C       -1.25712223       6.40683858       3.79783260       0.00729189      -0.00142559      -0.00273352
C       -2.46578556       8.55830711       3.82234254       0.00771886       0.00802978       0.00871288
C        4.92940196       0.01299358       3.83405792       0.00541545       0.00136801      -0.00493637
C        3.73282106       2.14507101       3.79971619       0.00332336       0.00499846       0.00421235
S        1.06800601       6.33288235       2.43267119       0.00578049      -0.00263607      -0.00834764
C       -0.00689822       8.54879521       3.57423258       0.00143513      -0.00449864      -0.00208021
C        7.40434892      -0.01043893       3.83780075      -0.00646752       0.00961493       0.00036784
C        6.17748938       2.12300842       4.03152184      -0.00421270      -0.00078483       0.00145825
C        5.02435087       4.24614972       3.82535074       0.00349541       0.00353421      -0.01406404
S        3.88022197       6.32761414       2.44692293      -0.01172637      -0.00305629       0.00075311
C        2.46848072       8.55950611       3.36736385      -0.00367080       0.00073832       0.00315765
C        9.86653920      -0.00970435       3.83786058       0.00043107       0.00357267       0.00873643
C        8.63464394       2.12501177       4.09208552       0.00440355      -0.00545680       0.00089252
C        7.41100898       4.27495586       4.14785705      -0.01007590      -0.00964290      -0.00523734
C        6.18861869       6.40699001       3.83008949      -0.00770528       0.00444875      -0.00217383
C        4.94118884       8.54811847       3.58648567       0.00172383       0.00341209       0.00140097
C        0.00393629       1.44592718       3.89235101      -0.00205804      -0.00228954      -0.00006253
C       -1.26036093       3.53988068       4.05680590       0.00806933      -0.00414419      -0.00306480
C       -2.47397581       5.69818374       4.03915798       0.00795269      -0.00360631       0.00074154
C       -3.70142946       7.84497533       3.90540446       0.00202625       0.01111052       0.00617558
C       -4.92586210      10.00375617       3.81844045      -0.00594688       0.00057864      -0.00778375
C        2.46643004       1.51614170       3.78155647       0.00184731      -0.00069065       0.00675619
O        1.10855689       3.54236675       3.65443419      -0.00886086      -0.00219717       0.00550740
C       -0.10115315       5.62407442       3.55188740      -0.00348322      -0.00690803      -0.00109375
C       -1.24290200       7.83541194       3.70800218       0.00699005       0.00164536       0.00688311
C       -2.47685063      10.00352025       3.81043986       0.00580456       0.00402150       0.00576406
C        4.92961843       1.44500429       3.89828968       0.00044025       0.00165701       0.00425299
O        3.82192206       3.54300980       3.68716802       0.01229290       0.00378985      -0.00642873
C        1.20905242       7.89553347       3.23692048       0.00045937      -0.00830790      -0.00793637
C       -0.00354233       9.97648523       3.76300085       0.00048492      -0.00198505       0.00157719
C        7.40043498       1.41140643       4.01665054      -0.00217804       0.00603073       0.00043979
C        6.19221396       3.53896469       4.08826303      -0.01201511      -0.00389936      -0.01043486
C        5.03001424       5.62444171       3.59316947       0.00655475      -0.00082456      -0.01438434
C        3.72790414       7.89422643       3.24219839       0.00092116       0.00603532       0.00952318
C        2.46760762       9.96874501       3.70918080      -0.00558963       0.00780772       0.00644355
C        9.86920858       1.41232396       4.01256514       0.00723228       0.00144562      -0.00319272
C        8.63473811       3.55451753       4.16641256       0.00050236      -0.00886120       0.00386202
C        7.40696359       5.69817251       4.06126636      -0.00817320      -0.00049324      -0.00519324
C        6.17602606       7.83491161       3.72891577      -0.00450027       0.00429846       0.00193740
C        4.93789171       9.97669568       3.76906821      -0.00252355      -0.00022676       0.00159738
Co       2.46880439       4.91233673       3.26447475      -0.00228535      -0.00613103       0.00089748
