49
Lattice="12.336457 0.0 0.0 -6.168228499999997 10.683685154694365 0.0 0.0 0.0 15.0" Properties=species:S:1:pos:R:3:forces:R:3 energy=-426.52856490010174 free_energy=-426.52856490010174 stress="-0.0052408740922812785 0.0021492357373848444 2.8043157241857597e-06 0.0021492357373848444 -0.004604729724064299 8.878407274045633e-06 2.8043157241857597e-06 8.878407274045633e-06 -1.6126785903215973e-06" pbc="T T T"
C       -0.00559467      -0.01389411       3.67226755      -0.00412686      -0.00018798      -0.00717520
C       -1.22006584       2.14542356       3.59939194      -0.00173319      -0.00438181       0.00232954
C       -2.44599880       4.27752849       3.77144541       0.00045223       0.00015064      -0.00378784
C       -3.69978560       6.40763689       3.85504392      -0.00451719       0.00650438       0.00082370
C       -4.94772883       8.53484921       3.75037013      -0.00553982      -0.01042762      -0.01194005
C        2.45944211      -0.02674673       3.88033590      -0.00762414      -0.00374370       0.00639172
C        1.26641768       2.08154111       3.54526190       0.00058408       0.00742965      -0.01030622
C       -0.02592088       4.36031427       3.39033910       0.00187173       0.00061706      -0.00230364
C       -1.26793296       6.44559546       3.73886778      -0.01135726      -0.00057673      -0.00045545
C       -2.47822918       8.54745251       3.88398950       0.00080201       0.00459255      -0.00494492
C        4.93701355      -0.00570200       3.99874595      -0.00388514       0.00104313       0.00449064
C        3.68529294       2.06976897       4.20979624       0.00837516      -0.00593705      -0.00124747
O        1.10290842       6.48267247       3.51194339       0.01284822      -0.00699725       0.00632536
C       -0.01933321       8.55593249       3.77638934      -0.00375962       0.00376957      -0.00530762
C        7.40986832      -0.01321016       3.86705314       0.00180683       0.00682728      -0.00215007
C        6.19422470       2.12061022       4.13763904      -0.00436314      -0.00079528       0.00045293
C        5.02096507       4.30139986       4.16966560      -0.00371756       0.00372232       0.01917996
P        3.72664529       6.21190653       2.61226286       0.00741628      -0.00880461       0.01261722
C        2.43821028       8.52285193       3.52740356       0.00418536      -0.00070544       0.00236752
C        9.86607958      -0.00844331       3.67729907       0.00153506      -0.00359980       0.00783927
C        8.65478387       2.12823717       3.86841363       0.00679573       0.00012729      -0.00261040
C        7.44042677       4.26325576       3.97641759      -0.00213934      -0.00160107       0.00239818
C        6.20182591       6.40365758       3.71856946       0.00144654       0.00163309       0.00144863
C        4.91919012       8.52667601       3.51672872       0.00354280       0.00462377       0.00235159
C        0.00862700       1.41854813       3.58973207      -0.00092255       0.00040897      -0.00560362
C       -1.21729188       3.57860661       3.58531593      -0.00222930      -0.00377647      -0.00461673
C       -2.47309880       5.69798143       3.81118085      -0.01053190       0.00159309      -0.00595980
C       -3.71272900       7.83102488       3.83922243       0.00202029       0.00318805      -0.00851061
C       -4.94281840       9.95656771       3.76016339      -0.00795585      -0.01061766      -0.00337860
C        2.46969365       1.39497067       3.89186329       0.00010969      -0.00119195      -0.00144656
P        1.40857604       3.59034184       2.60072107       0.00183372       0.01004074      -0.00747895
C       -0.08810864       5.75573452       3.51775291      -0.00576838       0.00166260      -0.00106054
C       -1.25599409       7.85521425       3.82207327      -0.00558496       0.00108231      -0.01247914
C       -2.47170991       9.96666783       3.93762993      -0.00309978       0.00231292      -0.00161899
C        4.94283752       1.41585157       4.14386156       0.00231138      -0.00368535       0.00195067
P        3.55293189       3.67877160       4.95782206       0.01384721      -0.01384319      -0.00118229
C        1.18110316       7.87371011       3.59576721       0.00170982      -0.00017212      -0.00052246
C       -0.00057452       9.97513806       3.89147730      -0.00392083       0.00587044       0.00194061
C        7.41856434       1.41398280       3.97397766       0.00351828       0.00546739       0.00419533
C        6.21911221       3.54359307       4.13695380      -0.00769997      -0.00298887       0.00867780
C        5.00699874       5.64277266       3.70696757       0.00537236       0.00530942      -0.00391934
C        3.68064351       7.85284232       3.32939826       0.01112219       0.00063115       0.01127071
C        2.45869370       9.95678351       3.70198571       0.00156012       0.00092274      -0.00349361
C        9.88375571       1.42448581       3.71893536       0.00250985      -0.00574723       0.00604860
C        8.66452813       3.55417010       3.88826905       0.00365191       0.00125534       0.00510961
C        7.42349019       5.68720198       3.87041576      -0.00084470       0.00114320       0.00168964
C        6.16519738       7.82085782       3.62108723      -0.00593614      -0.00420570      -0.00348354
C        4.92903788       9.96096061       3.62243343      -0.00042418       0.00317054       0.00078559
Co       2.41322285       5.01245504       3.78407173       0.00645292       0.00888724       0.00629887
