49
Lattice="12.336457 0.0 0.0 -6.168228499999997 10.683685154694365 0.0 0.0 0.0 15.0" Properties=species:S:1:pos:R:3:forces:R:3 energy=-438.84044625600865 free_energy=-438.84044625600865 stress="-0.0009113727155358485 0.0009702530633592001 4.033453955621656e-06 0.0009702530633592001 -0.0028362800176331675 2.5669664205827387e-06 4.033453955621656e-06 2.5669664205827387e-06 -1.3519333639938565e-06" pbc="T T T"
C        0.00778300       0.01045404       3.72063581       0.00288709      -0.00221075      -0.00130326
C       -1.22475530       2.14152988       3.72447600      -0.00280001       0.00492113      -0.00095935
C       -2.45905894       4.28019328       3.65465660       0.00527468       0.00151253       0.00734447
C       -3.69509294       6.41279300       3.63236077      -0.00409240      -0.00235593      -0.00208433
C       -4.93906938       8.54940945       3.63910211      -0.00077008      -0.00299972       0.00342714
C        2.46812160       0.02773160       3.84093945      -0.00024838       0.00437345      -0.00679136
C        1.21871619       2.16381631       3.94234930      -0.00099977      -0.00450610      -0.00360251
C       -0.01084404       4.23350274       3.80385777       0.00514754       0.00315073      -0.00483981
C       -1.20235353       6.40347303       3.69368353      -0.01009026       0.00060212      -0.00516589
C       -2.46440356       8.55184689       3.74571178       0.00287569       0.00929419       0.00162829
C        4.93121565       0.01482459       3.86670673      -0.00012908       0.00068402      -0.00845939
C        3.72040250       2.17134787       3.99860230       0.00509438      -0.01005021      -0.00195150
B        1.38727954       6.37812544       3.73317721       0.00248251       0.00182183       0.00047815
C       -0.00009233       8.56162506       3.79827773       0.00133552       0.00101804       0.00284388
C        7.39966571       0.02610804       3.82134637      -0.00098395       0.00008360       0.00195167
C        6.17613719       2.13876995       3.83934288      -0.00667616      -0.00356723      -0.00059157
C        4.96713638       4.22329976       3.79384209       0.00234808       0.00089986      -0.00022753
P        3.33872700       6.24903111       2.96697827       0.00308979       0.01151622      -0.01237348
C        2.46226210       8.61423299       3.69380547      -0.00129820      -0.00308663      -0.00918310
C        9.88128150       0.02354954       3.71719186       0.00285790      -0.00436381       0.00118289
C        8.64400617       2.15064280       3.73305810      -0.00128125       0.00062316       0.00605459
C        7.41321563       4.27831490       3.67561161       0.00296182      -0.00693878       0.01064411
C        6.14675189       6.39387817       3.53943744       0.00837761       0.00817421       0.00302031
C        4.93038513       8.55582743       3.53824972      -0.00688783      -0.00247827       0.00398698
C        0.00849312       1.43734392       3.78579306      -0.00260472       0.00043570      -0.00563697
C       -1.23228120       3.55300316       3.69814202       0.00496200       0.00588181       0.00434888
C       -2.45289304       5.70358900       3.65241454      -0.00787326      -0.00238697       0.00063222
C       -3.69977637       7.83951899       3.66588159       0.00333598      -0.00005974       0.00397733
C       -4.92900595       9.98162855       3.73182233       0.00396092      -0.00396659      -0.00262170
C        2.46939464       1.46205371       3.95877604       0.00104243      -0.00124788       0.00053335
N        1.15125084       3.53097742       4.06294166      -0.00275467      -0.00680330      -0.00364649
C        0.03526266       5.66286436       3.73183081      -0.00315833       0.00543207      -0.00630560
C       -1.22860142       7.83623737       3.74691190      -0.00041891       0.00309522       0.00917821
C       -2.46975611       9.98321405       3.82561507      -0.00002548       0.01008707      -0.00510919
C        4.93602163       1.44096175       3.90397026      -0.00047780      -0.00787808      -0.00027131
N        3.78746355       3.54580269       4.06039042       0.00759072      -0.00995636      -0.00459415
C        1.24514689       7.88827759       3.75577088       0.00055916       0.00234498       0.00095155
C       -0.00267073       9.99218460       3.83827995      -0.00122512      -0.00006902       0.00017490
C        7.40708868       1.44087675       3.80270518      -0.00459360       0.00106746       0.00296255
C        6.19062510       3.54771807       3.76981164      -0.00025537      -0.00450405       0.00390309
C        4.93623433       5.62649331       3.53692607       0.00320481       0.01348512      -0.00300438
C        3.67093087       7.90687190       3.47120144      -0.00226014      -0.01388554      -0.00859704
C        2.47175991      10.02177535       3.76538014       0.00140128      -0.00539091       0.00586519
C        9.87941726       1.44104595       3.72031804      -0.00224891       0.00022700       0.00706134
C        8.64542680       3.56989737       3.67986434       0.00767143      -0.00034273       0.00385932
C        7.40232781       5.70006537       3.61035427       0.00000175      -0.00548535       0.00439138
C        6.16205965       7.83126052       3.54016466      -0.00755915       0.00589886       0.00708056
C        4.94073313       9.98523318       3.65512791       0.00109712      -0.00302840      -0.00095494
Cr       2.45532408       4.69532634       4.87092447      -0.00784737       0.01093197       0.00079252
