49
Lattice="12.336457 0.0 0.0 -6.168228499999997 10.683685154694365 0.0 0.0 0.0 15.0" Properties=species:S:1:pos:R:3:forces:R:3 energy=-430.08195091532417 free_energy=-430.08195091532417 stress="-0.00406947404497635 7.808812177989925e-06 1.4080163806772234e-06 7.808812177989925e-06 -0.008953175804751187 3.031996304980223e-08 1.4080163806772234e-06 3.031996304980223e-08 8.331721284842158e-07" pbc="T T T"
C       -0.00651411      -0.00881437       3.88588157      -0.00395927      -0.00077579       0.00077868
C       -1.23550428       2.13951900       3.92684837       0.00410320      -0.00799901      -0.00091594
C       -2.48206405       4.27197186       3.85314771       0.00884628       0.00378595      -0.00240084
C       -3.70824180       6.40313983       3.78710117       0.00169639       0.00707970      -0.00278119
C       -4.95275644       8.52873214       3.78044478      -0.00590652       0.00467784      -0.00225707
C        2.46441613      -0.04484124       3.87568848       0.00282884      -0.00962066      -0.00408111
C        1.25060111       2.09854975       3.92523240      -0.00172132       0.00574979      -0.00495555
C       -0.03095126       4.27959130       3.95057936       0.00002749      -0.00189750       0.01071395
C       -1.24502011       6.41172113       3.91045121       0.00572025       0.00460307       0.00500923
C       -2.47265942       8.52725667       3.89171624       0.00083533      -0.00309453      -0.00225249
C        4.92859053      -0.01510562       3.81450199      -0.00328636       0.00828166      -0.00149112
C        3.67155994       2.03413361       3.46923408      -0.01018497       0.00686994       0.01051963
B        1.29969822       6.38941643       4.06361560       0.00222707      -0.00497788       0.00928524
C        0.00140365       8.54297147       3.94239012      -0.00091842      -0.00702014      -0.00663969
C        7.38907638       0.01862224       3.86926608      -0.00958587      -0.00517691       0.00190577
C        6.15493948       2.12847338       3.61332375       0.00187680       0.00246378       0.00313039
C        5.01147619       4.28172254       3.23032975       0.00010416       0.00634808      -0.00506715
S        3.50589477       6.40266915       2.67455291      -0.00134856      -0.00145907      -0.00159900
C        2.46543279       8.59077766       3.79868856      -0.00127689       0.00753141      -0.00444743
C        9.86772624       0.02051162       3.86867673      -0.00488641       0.00831292      -0.01195998
C        8.62696687       2.14428737       3.82486623       0.00369410      -0.00110664       0.00227864
C        7.40097464       4.27270730       3.65600656      -0.00180631      -0.00827091      -0.00480602
C        6.17545945       6.42287293       3.49736408       0.00953045      -0.00356973       0.00204702
C        4.92416837       8.55962768       3.61827588      -0.00566749      -0.00070695      -0.00046359
C        0.00132979       1.42406115       3.94097417       0.00130041      -0.00399029      -0.00250595
C       -1.24495587       3.55497055       3.91080241       0.00565710      -0.00797018       0.00540812
C       -2.48199127       5.69389446       3.85278349       0.00725613       0.01042055      -0.00052125
C       -3.70917567       7.82185152       3.82557039      -0.00451863       0.00677800      -0.00390822
C       -4.94781809       9.94797720       3.86930692      -0.00156354       0.00124066      -0.00073703
C        2.46587154       1.37571007       3.80004164      -0.00951586      -0.00613699      -0.00586324
B        1.29955023       3.57707208       4.06358957       0.00511221       0.00911167       0.01063430
C       -0.03098423       5.68726223       3.95006561       0.00039897      -0.00146594       0.01403791
C       -1.23536449       7.82734932       3.92716966       0.00054233      -0.00062021       0.00087979
C       -2.46929822       9.94572582       3.86953489       0.00514326      -0.00495302      -0.00732076
C        4.92407767       1.40637037       3.62035955      -0.00377725       0.01240696      -0.00526608
S        3.50607582       3.56354515       2.67412729       0.00505509      -0.00415308       0.01066234
C        1.25024700       7.86795133       3.92472167       0.00545233      -0.00200913      -0.00171295
C       -0.00622857       9.97569831       3.88805030      -0.01087425      -0.00622634      -0.00501503
C        7.38339406       1.43763535       3.78054974       0.00242385      -0.00414737      -0.00083830
C        6.17593208       3.54380626       3.49968172      -0.00535105      -0.00151470      -0.00383098
C        5.01114082       5.68426356       3.22921255       0.01039116      -0.00221243      -0.00239363
C        3.67123046       7.93222135       3.46843917      -0.00418864      -0.00689482       0.00983256
C        2.46482308      10.01135705       3.87419541      -0.00403775       0.00817838      -0.00015724
C        9.86376772       1.43914084       3.89138735       0.00284515       0.00250029      -0.00550590
C        8.62801790       3.56304958       3.78755454       0.00509298      -0.00061268      -0.00299007
C        7.40070168       5.69451381       3.65476292       0.00701957      -0.00725803       0.00031908
C        6.15517803       7.83792992       3.61159650      -0.00255499       0.00018522       0.00211455
C        4.92886048       9.98107288       3.81257850      -0.00765450       0.00413735      -0.00143107
Cr       2.86833804       4.98360518       4.49947999      -0.00059607      -0.00482227       0.00655868
