49
Lattice="12.336457 0.0 0.0 -6.168228499999997 10.683685154694365 0.0 0.0 0.0 15.0" Properties=species:S:1:pos:R:3:forces:R:3 energy=-438.6045009748782 free_energy=-438.6045009748782 stress="-0.007456023501848082 0.002701298430367534 4.946405205549301e-06 0.002701298430367534 -0.005633192351376506 -4.969255812097207e-06 4.946405205549301e-06 -4.969255812097207e-06 -3.575419016342655e-07" pbc="T T T"
C        0.00202847      -0.00176222       3.66314397      -0.00272753       0.00681640       0.00501070
C       -1.22371652       2.13748208       3.52489426       0.00107385       0.00928649      -0.00225864
C       -2.47277141       4.27764336       3.65067830      -0.00043328      -0.00350865      -0.00048711
C       -3.71500593       6.40906914       3.77404459      -0.00064008      -0.00086329       0.00141066
C       -4.94522467       8.54334447       3.79547359      -0.00133496      -0.00163427      -0.00376438
C        2.46517237      -0.00591783       3.76999369       0.00410745       0.00062380      -0.00503627
C        1.26161946       2.08220129       3.39503729       0.00300736       0.00553122      -0.00124524
C       -0.05136052       4.32727440       3.47448408      -0.00692475       0.00137676       0.00618471
C       -1.27796367       6.43931661       3.76154946       0.00839667       0.00384106      -0.00987349
C       -2.48479974       8.55651667       3.84805514      -0.00404066      -0.00287904      -0.00131869
C        4.93809716      -0.00209894       3.85323933       0.00773375      -0.00185190      -0.00283744
C        3.71683330       2.14244077       3.78629891       0.00224353      -0.00202317       0.01045880
C        1.18005395       6.41853317       3.84706737      -0.00020922      -0.00904924      -0.00304173
C       -0.01303719       8.54816598       3.87797875      -0.00300756       0.01357577       0.00075652
C        7.40860519      -0.00538871       3.82662717      -0.00001099       0.00033594      -0.00456130
C        6.19214727       2.11470970       3.80611065      -0.00746752       0.00311311      -0.00463980
C        4.97010515       4.23123986       3.85668990       0.00319494       0.00270606       0.01156717
B        3.65175991       6.36679615       3.97161343       0.01283241      -0.00046261       0.00080189
C        2.46061114       8.55726710       3.88531038      -0.00638774      -0.00993924      -0.00238755
C        9.87525827       0.00220894       3.73321625      -0.00140155      -0.00415434      -0.01044785
C        8.65016509       2.13034041       3.70296497      -0.01134150      -0.01223340       0.00163132
C        7.41635887       4.26143941       3.75163094       0.00419943       0.00959225       0.00967291
C        6.16859332       6.39975271       3.82307922      -0.00519728       0.00434652      -0.00340564
C        4.93286923       8.54652420       3.81332831       0.00911474      -0.00646004       0.01057854
C        0.00939539       1.42041592       3.50709292      -0.00047832       0.01164891       0.00298568
C       -1.23920524       3.56662488       3.52809389      -0.00076061       0.00437430      -0.00970360
C       -2.48775049       5.70286693       3.72479590       0.00581219       0.00127083       0.00185933
C       -3.71377148       7.83587237       3.81272967      -0.00514669      -0.00477129       0.00051200
C       -4.93839421       9.96746552       3.74521107      -0.00174348       0.00154343       0.00066655
C        2.47818797       1.40887828       3.66582341      -0.00021104       0.00347157       0.00576372
P        1.39803971       3.69980475       2.67133644       0.00763980      -0.01505263      -0.00245602
C       -0.04918585       5.75296115       3.68721279       0.00000516      -0.00727015      -0.00502359
C       -1.25613087       7.85185761       3.84869477       0.00164410       0.00911801      -0.01250572
C       -2.47309630       9.97345376       3.84636977       0.00678921      -0.00238815      -0.00722983
C        4.95154031       1.41464558       3.82843120      -0.00000012      -0.00293961       0.00198312
C        3.74721802       3.53804133       3.87884696       0.00425773      -0.00176066      -0.00756247
C        1.22685636       7.81866857       3.88845949      -0.01148507      -0.00845250      -0.00178213
C        0.00073599       9.96499163       3.86568433       0.00658836       0.01104637       0.00172403
C        7.42286380       1.41168169       3.78161957      -0.01587774      -0.00582596      -0.00921668
C        6.20329477       3.53093108       3.79156708       0.00575749       0.00564407       0.01012670
C        4.97160258       5.65955577       3.88309059       0.00194901       0.00033384       0.00170080
C        3.68998206       7.86049301       3.88610077       0.00461375      -0.00255790       0.00040939
C        2.47107890       9.97554688       3.82099418      -0.00325844      -0.00459694      -0.00680895
C        9.88489909       1.42538133       3.64793966       0.00049656       0.00098530       0.00105293
C        8.64759206       3.55678909       3.69422190      -0.00093875      -0.00788910       0.01562063
C        7.40448954       5.68833085       3.77543830      -0.00715233       0.01227479       0.00385199
C        6.16109491       7.82868238       3.81035881       0.00391603      -0.00276305       0.00711208
C        4.93898726       9.97406097       3.73521106       0.00163156      -0.00453134       0.00284338
Cr       2.32067054       4.87344908       4.43688507      -0.00882785       0.00300163       0.00130858
