49
Lattice="12.336457 0.0 0.0 -6.168228499999997 10.683685154694365 0.0 0.0 0.0 15.0" Properties=species:S:1:pos:R:3:forces:R:3 energy=-438.6412188262108 free_energy=-438.6412188262108 stress="-0.005300379715305661 0.0012586569793897298 -2.0675089385410924e-06 0.0012586569793897298 -0.005912617913349625 -1.2043895798621202e-05 -2.0675089385410924e-06 -1.2043895798621202e-05 2.4565988676834037e-06" pbc="T T T"
C        0.00295183       0.00710729       3.72061517       0.00255605       0.00037865       0.00668753
C       -1.23290529       2.13416711       3.71207709       0.00477488      -0.00745308       0.00695038
C       -2.46494894       4.27594186       3.63575417       0.00030824       0.00470040      -0.00258145
C       -3.69653756       6.41218889       3.61186880      -0.00163305      -0.00143124       0.00560137
C       -4.93866861       8.54957505       3.62812943      -0.00018420      -0.00542969       0.00097771
C        2.46766589       0.00952645       3.85013940      -0.00935387       0.00791749      -0.00061378
C        1.22975555       2.15691865       3.93189252       0.00188775      -0.00679666      -0.00084690
C       -0.01711690       4.24820489       3.79379389      -0.00294177       0.00670228      -0.00303295
C       -1.22182592       6.41193781       3.69535166      -0.00644932       0.00138863       0.00392063
C       -2.46766715       8.55204889       3.75500006       0.00128713      -0.00198843      -0.00531754
C        4.93636363       0.00903825       3.89184247       0.00209262       0.00156340      -0.00476043
C        3.71361997       2.15527977       3.99336055      -0.00369391       0.00188377      -0.00714310
B        1.35576615       6.38113175       3.80146746       0.00451321      -0.01189241      -0.00092474
C       -0.00285956       8.56088647       3.83184610       0.00660180       0.00077183      -0.00181477
C        7.40312752       0.01888264       3.84321703       0.01084437       0.00161382       0.00060675
C        6.18611178       2.12999955       3.84548907      -0.00622770      -0.00311004      -0.00368900
C        4.97335028       4.22966848       3.76745087       0.00846346       0.00373394       0.00758890
P        3.36105944       6.24204814       2.96757976       0.00125116      -0.01198894      -0.01374396
C        2.46348260       8.60655845       3.72060128      -0.00735776      -0.00465553      -0.00079312
C        9.87914641       0.01695356       3.72226010      -0.00237640      -0.00640703      -0.00352585
C        8.64453335       2.14213974       3.72336805      -0.00518569       0.00414482       0.01365646
C        7.41924610       4.27363998       3.65323088       0.00252907       0.00206054       0.00157871
C        6.16273076       6.40243071       3.50689033       0.00285002      -0.00507563       0.00807967
C        4.92992599       8.55290979       3.53472838       0.00185350       0.00748853       0.00131760
C       -0.00170758       1.42716163       3.78547035       0.00795342      -0.00421660       0.00256638
C       -1.24738159       3.54979428       3.68166984       0.00047777      -0.00065980      -0.00170544
C       -2.46279965       5.70198437       3.63734366      -0.00610080       0.00079637       0.00066412
C       -3.70100688       7.83968424       3.65637435      -0.00078790      -0.00359390       0.00497290
C       -4.93161896       9.97482769       3.73192139      -0.00514261      -0.00122426      -0.00382542
C        2.46977194       1.42797236       3.96511694       0.00091532       0.00661665      -0.00438427
C        1.18088039       3.55088167       4.03666632      -0.01030703      -0.00755513      -0.00138313
C       -0.00082034       5.67843477       3.74654623      -0.00244901       0.01018695      -0.00010332
C       -1.23549552       7.84076728       3.76505766       0.00410325       0.00024577       0.00007426
C       -2.46795635       9.97626565       3.84168554      -0.00631864       0.00272272      -0.00330185
C        4.94943926       1.42677006       3.92346169      -0.00748046       0.00049152      -0.00805097
C        3.76767068       3.55255644       4.03009342       0.00754840       0.00117440      -0.00216454
C        1.24236701       7.88908500       3.79797528      -0.00440832      -0.01149547       0.00082120
C       -0.00113847       9.98739395       3.86808996       0.01244898       0.00381459      -0.00139806
C        7.41465515       1.43059574       3.80924417      -0.00339007       0.00175227       0.00476834
C        6.20799865       3.54209653       3.75502390       0.00535986      -0.00085468       0.00679556
C        4.96537453       5.64110121       3.50919231      -0.00909610       0.00860991      -0.01020261
C        3.67162195       7.90225227       3.48242136      -0.00191873       0.01144630      -0.00311095
C        2.47284943      10.01412355       3.78535458       0.00009034      -0.00694441      -0.00167601
C        9.87355780       1.43164613       3.71269456      -0.00476472      -0.00648880       0.00839460
C        8.64568078       3.56406015       3.66131109      -0.00123426       0.00622579      -0.00387729
C        7.40939602       5.69787276       3.58191823       0.00510355      -0.00382189       0.00602684
C        6.16514552       7.83533806       3.52096588       0.00461216      -0.00674910       0.00522367
C        4.93911995       9.98043150       3.65530008       0.00376334       0.00511970       0.00177289
Cr       2.46548230       4.83626764       4.87586621       0.00461263       0.01628165      -0.00507501
