49
Lattice="12.336457 0.0 0.0 -6.168228499999997 10.683685154694365 0.0 0.0 0.0 15.0" Properties=species:S:1:pos:R:3:forces:R:3 energy=-427.3795321924815 free_energy=-427.3795321924815 stress="-0.0025934267183592473 0.001887624261093939 4.5440148334632025e-06 0.001887624261093939 -0.012739816464267974 3.898360083861385e-06 4.5440148334632025e-06 3.898360083861385e-06 -1.8271271371252416e-05" pbc="T T T"
C       -0.02811607      -0.01224655       3.69210990       0.00016752       0.00280757       0.00431303
C       -1.22567693       2.16984277       3.65032347       0.00851452       0.00660037       0.00023840
C       -2.46380713       4.30659646       3.79234185      -0.00318563       0.00092879       0.00428312
C       -3.71578252       6.42438463       3.82926685      -0.00861643      -0.00054751       0.00573116
C       -4.98013038       8.53019996       3.78115322       0.00385294       0.00518032       0.00337442
C        2.44114234      -0.04803909       3.79349021      -0.01248900      -0.00224222       0.00327311
C        1.23884915       2.01728578       3.39586687       0.00099168       0.00637702      -0.01824362
C       -0.04596917       4.34625829       3.54861291       0.01631279       0.00411350      -0.00939930
C       -1.23168340       6.44478056       3.85942673       0.00587285      -0.00867029      -0.00560542
C       -2.49000572       8.54823141       3.94340375       0.00280605       0.00431638       0.00232904
C        4.90815272       0.02762327       4.01028192      -0.00060071       0.00556905       0.01080964
C        3.66235064       2.12544665       3.69790537      -0.00588211      -0.01764974       0.00276056
B        1.31151244       6.52270484       3.70812991      -0.01221276       0.00361121       0.00305739
C       -0.02649295       8.60680679       4.01254821       0.00149956      -0.01266828       0.00317800
C        7.38418374       0.06559044       4.03905375      -0.00237612       0.00019741       0.00255083
C        6.15485833       2.16113954       3.91351354       0.00176630       0.00322556       0.00317068
C        4.97020462       4.26916411       3.53354935       0.01330825       0.00478929      -0.00835085
S        3.23563797       6.25226087       3.29089572       0.00944753      -0.00627271       0.00304216
C        2.44302955       8.66376632       3.90682272      -0.00423466       0.00336278      -0.00376581
C        9.86849508       0.05664932       3.85806886       0.00352987       0.00129631       0.00855182
C        8.64169932       2.18148402       3.89207207      -0.00061522      -0.00343640      -0.00147064
C        7.40383425       4.29974037       3.81872115      -0.00228190      -0.01427901      -0.00624092
C        6.12443676       6.42032882       3.62130757       0.00328259       0.00033176      -0.01062105
C        4.88058213       8.54725682       3.70897662       0.00124897       0.00002198      -0.00006839
C       -0.01729402       1.41766585       3.56735868       0.00443011       0.00271792      -0.00213988
C       -1.22745212       3.58909854       3.65992665       0.00947339       0.00977472       0.00496396
C       -2.46937225       5.72506268       3.84019830      -0.00400113      -0.00003925       0.00585813
C       -3.72796609       7.83837256       3.85500758       0.00122243       0.00538311       0.00200002
C       -4.97270659       9.94782543       3.75545551      -0.00660478       0.00152904       0.00999694
C        2.44211533       1.34963525       3.61283012      -0.00740226      -0.00268877       0.00284130
S        1.42463057       3.66916460       2.99324969      -0.00872495      -0.01490938      -0.00647704
C        0.01602394       5.74004773       3.71876245       0.01145098       0.00234694      -0.00545940
C       -1.24835473       7.86041849       3.96002997       0.00166144      -0.01115867       0.01067820
C       -2.48757188       9.96326189       3.94410930      -0.00550785       0.00764316      -0.00070669
C        4.91980166       1.44663479       3.92770920      -0.00201172       0.00622146       0.00667719
S        3.86209549       3.39424401       2.44941764      -0.00448884       0.01322786      -0.00736472
C        1.22470442       7.96817849       3.92276235       0.00142120      -0.00846397      -0.01710329
C       -0.02047787      10.03048077       4.05977632      -0.00210017      -0.00746521       0.00798430
C        7.39868664       1.47450095       3.97818529      -0.00147576       0.00107171      -0.00128796
C        6.18822020       3.56441447       3.79320463       0.00351473      -0.00441554      -0.01665629
C        4.95191821       5.68267884       3.40171659      -0.00387551       0.01254821      -0.00831269
C        3.61638110       7.92886360       3.69605638      -0.00428627       0.00530183       0.00680367
C        2.46090672      10.07104256       3.98284692       0.00014735       0.00332431       0.01100976
C        9.88188359       1.47843521       3.81287984       0.00378178       0.00100262       0.00149953
C        8.64424484       3.59488420       3.84912398      -0.00433764      -0.00693017      -0.00175524
C        7.38512926       5.71873788       3.75507231      -0.00536445      -0.01337672       0.00065551
C        6.11957588       7.83687198       3.69250217       0.00743459       0.00061332      -0.00594773
C        4.90234707       9.98669712       3.76120998       0.00358015      -0.00146348       0.00644671
Cr       3.14861917       3.97407485       4.66748515      -0.00804372       0.01124185      -0.00110163
