49
Lattice="12.336457 0.0 0.0 -6.168228499999997 10.683685154694365 0.0 0.0 0.0 15.0" Properties=species:S:1:pos:R:3:forces:R:3 energy=-429.89285137488184 free_energy=-429.89285137488184 stress="-0.0051010723318502755 0.0039883791922184515 -4.633856240640312e-06 0.0039883791922184515 -0.011720264387521091 -1.5081111458798257e-06 -4.633856240640312e-06 -1.5081111458798257e-06 8.561806110212633e-08" pbc="T T T"
C        0.00152109      -0.00919949       3.60701786       0.00306972      -0.00174236       0.00440421
C       -1.20374452       2.15422465       3.52583880       0.00051011      -0.00806453       0.00156608
C       -2.46173189       4.28069987       3.61610472      -0.00003303       0.00673601      -0.01337416
C       -3.71590288       6.40275571       3.67975985       0.00175440       0.00349765      -0.01335420
C       -4.96338251       8.51556181       3.63884263      -0.00150879       0.00472435       0.00581916
C        2.45399868      -0.06059500       3.82085058      -0.00651964      -0.00162320       0.00672686
C        1.28339340       2.06561291       3.58524838       0.00653311       0.00144119       0.00441523
C       -0.03726286       4.34100780       3.48245048      -0.00919348       0.01412574       0.00384847
C       -1.26250621       6.42610145       3.79511023       0.00198594      -0.00225460       0.00147381
C       -2.48295608       8.52888851       3.83933097       0.00110605      -0.00160451       0.00172347
C        4.93519655      -0.02033813       3.94953231      -0.00072495       0.00352932       0.00588396
C        3.69342522       2.05173893       4.00035428       0.00474375       0.00550198      -0.00645663
B        1.20975740       6.45523311       4.11961729      -0.00773526       0.00403720       0.00186129
C       -0.01219300       8.56331822       3.96168004      -0.00211002      -0.00705277      -0.00044728
C        7.40592172       0.02718899       3.88576667       0.00493658       0.00306305       0.00328827
C        6.18178897       2.13013098       3.91620699       0.00174870       0.00395312       0.01003054
C        4.97465461       4.25600755       3.81729716      -0.00321573      -0.00725447      -0.00169502
S        3.38747120       6.22998130       3.18459284      -0.00150115      -0.00415837      -0.00544902
C        2.46451450       8.60979781       3.83247533      -0.00314572      -0.00154498       0.00011072
C        9.88505431       0.02820474       3.67798967       0.00226496      -0.00456478       0.00819487
C        8.65505359       2.14739109       3.71945882       0.00189143       0.00073462      -0.00118076
C        7.41934469       4.26871952       3.71273101      -0.00461710      -0.01200104      -0.00626832
C        6.14935688       6.39460138       3.52516298       0.00259348      -0.00145709      -0.00635989
C        4.90915907       8.53413961       3.55630547      -0.00981686       0.00964009       0.00296988
C        0.02495431       1.43158883       3.55114848       0.00517827      -0.00469515       0.00459197
C       -1.21592245       3.57199841       3.50202704       0.00014078       0.00105789      -0.00408507
C       -2.48373793       5.69876882       3.69459215       0.00175541       0.00636082      -0.00389230
C       -3.72051202       7.81975390       3.71741849      -0.00020811       0.00512776       0.00000220
C       -4.95066732       9.93913225       3.68246525      -0.00533763       0.00040455       0.00799725
C        2.46869452       1.35812690       3.84639493       0.00546193       0.00217774      -0.00100883
S        1.54558193       3.72960993       3.16506721      -0.00129594       0.00237008      -0.00197127
C       -0.03739392       5.71208726       3.77384019       0.00221081       0.00651619      -0.00043938
C       -1.24696452       7.83742114       3.89527140      -0.00166236      -0.00817282       0.00731278
C       -2.47183530       9.94034740       3.88910237      -0.00518575      -0.00019878      -0.00109500
C        4.94615677       1.40472898       3.98134721       0.00519951       0.00533232      -0.00675986
B        3.72943609       3.51085246       4.15584988       0.00600270      -0.00123538       0.00080192
C        1.23997988       7.91635487       3.97579734      -0.00073273      -0.00316701      -0.00886817
C       -0.00122980       9.98839959       3.94414150       0.00120391      -0.00198066      -0.00020893
C        7.41751394       1.43860712       3.84689682       0.00144732       0.00656593      -0.00093568
C        6.19925716       3.54179542       3.82696512      -0.00712945      -0.00396906      -0.00029954
C        4.97032297       5.62540105       3.51987795       0.00770167      -0.01323534       0.00217525
C        3.65095268       7.89983597       3.58604673      -0.00817028       0.00050852       0.00343115
C        2.47992579      10.02853406       3.81261625       0.00362888      -0.00186746       0.00557424
C        9.89786765       1.45176201       3.63361605      -0.00101380      -0.00957574       0.00808790
C        8.65091801       3.56437883       3.68226003       0.00062733      -0.00085316      -0.01202626
C        7.39607426       5.68651799       3.63009617       0.00601739      -0.00955076      -0.01104702
C        6.13823996       7.81228287       3.53697331      -0.00468252       0.00921217       0.00328537
C        4.93232033       9.97543795       3.60636043       0.00164767       0.00342657       0.00432746
Cr       2.44752837       4.97365181       5.04882188       0.00417844       0.00177916      -0.00268170
