49
Lattice="12.336457 0.0 0.0 -6.168228499999997 10.683685154694365 0.0 0.0 0.0 15.0" Properties=species:S:1:pos:R:3:forces:R:3 energy=-438.19903177612963 free_energy=-438.19903177612963 stress="-0.006834424925961914 -0.0008263650001967206 -4.8413688434763185e-06 -0.0008263650001967206 0.0007913723739018968 1.789864493509753e-07 -4.8413688434763185e-06 1.789864493509753e-07 -5.601216010663914e-07" pbc="T T T"
C        0.00169168       0.01359553       3.91587224      -0.01503436       0.00526271       0.00250521
C       -1.25035186       2.12333131       3.93291872      -0.00414334      -0.00703166      -0.00443122
C       -2.47317387       4.26745473       3.82902363       0.00471405      -0.00222545       0.00442104
C       -3.68381146       6.41644929       3.74402936       0.00993721      -0.00492198       0.00721558
C       -4.92579985       8.56196359       3.81763243       0.00070650       0.00020461      -0.01225357
C        2.46168522       0.03118275       3.85305500       0.00279781      -0.00493892      -0.00122428
C        1.20250767       2.18296192       3.94908906       0.01209493       0.00844083      -0.00986138
C       -0.04841068       4.25153001       4.03351994      -0.00152472       0.00576822       0.00810389
C       -1.24504460       6.41441883       3.91079050      -0.00061798       0.00405818      -0.00714577
C       -2.46693821       8.55963827       3.83745744      -0.00365108       0.00046687       0.00255768
C        4.93488736      -0.00139240       3.70298502       0.00033973       0.00810271       0.01616150
C        3.67622537       2.10856524       3.43531689      -0.00186555       0.00493704      -0.00803979
N        1.16037703       6.37796339       4.02380718      -0.00192928       0.00595565       0.00973519
C       -0.00224384       8.51761278       3.86165778      -0.00514871      -0.00373360       0.00693787
C        7.39665629      -0.02296040       3.75324271       0.00256206       0.00141141       0.00352563
C        6.18250972       2.11474847       3.45536338      -0.00757473      -0.00868644      -0.00200187
C        5.07072070       4.29218460       3.09469217      -0.00617379      -0.00457975       0.00402104
B        3.79427137       6.40282003       3.68811268       0.00852368      -0.00809105      -0.00515285
C        2.44275373       8.50793251       3.87306282       0.01263218       0.00148547      -0.00107059
C        9.85833271      -0.02085253       3.86568945      -0.00158264      -0.00971640      -0.00611713
C        8.63153500       2.11782676       3.72757141       0.00660346      -0.00018972       0.00418365
C        7.44250694       4.26637882       3.52958256      -0.00875502       0.00359051      -0.00877285
C        6.22663969       6.42882032       3.54652100      -0.00702037       0.00346687       0.01046162
C        4.94930428       8.55262608       3.80520761       0.00208205       0.00045766      -0.00836998
C       -0.00809348       1.44171712       3.95646833       0.00324116       0.00754397      -0.00929086
C       -1.25808830       3.54396628       3.94119745       0.00359076      -0.00444846       0.00301519
C       -2.46622089       5.69379332       3.82928517       0.01171570      -0.00465571       0.00081193
C       -3.69441293       7.84562874       3.80362483       0.00345699      -0.00586962       0.00551768
C       -4.93002131       9.98994685       3.88942853      -0.00812623       0.00226766      -0.00724519
C        2.44984934       1.46429104       3.78315531       0.00368758      -0.00498429      -0.00873796
N        1.13958182       3.56263635       4.07387661       0.00920274       0.00951732      -0.01280241
C       -0.03792285       5.70204406       4.00670244      -0.00312617       0.00821255      -0.00008754
C       -1.23947244       7.83616768       3.87021578      -0.00981988       0.00134468       0.00943508
C       -2.47155770       9.98921306       3.80389817       0.00554101       0.00149832       0.00371317
C        4.93133552       1.42036262       3.51207984      -0.00834188       0.00549499       0.00139985
P        3.54486686       3.63501051       2.54614170       0.00535944       0.00377185      -0.00444726
C        1.20983686       7.76506914       3.92086272       0.00719973       0.00346812      -0.00120199
C       -0.00256204       9.94977415       3.76663033      -0.00042739       0.00090198       0.01429492
C        7.40017911       1.40360401       3.64237880       0.00356710       0.00073006      -0.00112077
C        6.23064301       3.53692593       3.32121259      -0.00718190      -0.01005963       0.00061950
C        5.04739296       5.69745723       3.34508152      -0.00345310       0.00113820      -0.01019619
C        3.70228479       7.85577882       3.79946704       0.00933229      -0.00130711      -0.00570629
C        2.45030704       9.94103341       3.84098447       0.00411705       0.00044305       0.00321926
C        9.85784358       1.40569814       3.85349690       0.00189646      -0.01234083       0.00260511
C        8.64486179       3.54723382       3.69766848      -0.00242758       0.00375013      -0.00306754
C        7.44583795       5.70010568       3.59029334      -0.00859925       0.00625478       0.01617046
C        6.18657301       7.84373477       3.73349843      -0.00126875       0.00432352       0.00136516
C        4.93918656       9.97412777       3.88053856      -0.01037225      -0.00468295      -0.00272845
Cr       2.46833466       4.96842872       4.36033127      -0.00673573      -0.01180633      -0.00092347
