50
Lattice="12.336457 0.0 0.0 -6.168228499999997 10.683685154694365 0.0 0.0 0.0 15.0" Properties=species:S:1:pos:R:3:forces:R:3 energy=-449.08160253414474 free_energy=-449.08160253414474 stress="8.37158553588713e-05 0.0009882584792375833 -4.4000496353520785e-06 0.0009882584792375833 0.0006176587818383253 1.1115310716422966e-06 -4.4000496353520785e-06 1.1115310716422966e-06 4.771985200552807e-06" pbc="T T T"
C       -0.01904773      -0.01472059       3.78522041       0.00164764      -0.00180817       0.00343782
C       -1.24463747       2.13268134       3.78434731       0.00448541       0.00136646      -0.00751729
C       -2.46940581       4.26814226       3.72858445      -0.00133622       0.00255681       0.00540031
C       -3.71015620       6.39989143       3.69886274      -0.00530488       0.00070016      -0.00491734
C       -4.95995845       8.53288334       3.74186956      -0.00847807      -0.00115425       0.01189684
C        2.45119799      -0.00751841       3.69471716       0.00102110       0.00225595      -0.00107135
C        1.22054943       2.12507120       3.87108828      -0.00693838       0.00097107      -0.00798926
C       -0.00520068       4.29277057       3.95888138      -0.00313897       0.00536580       0.00546950
C       -1.23177856       6.41237712       3.76047343      -0.00075293      -0.00565125       0.00160568
C       -2.48612496       8.53883229       3.63919585       0.00409698      -0.00819085       0.00048514
C        4.92293157      -0.01329614       3.55266151      -0.00386166       0.00347884      -0.00113206
C        3.69594544       2.12187151       3.68620416       0.00669187      -0.00147549       0.00787581
B        2.49597277       4.21536103       4.22885378       0.00005509       0.01126903       0.00912537
N        1.17772050       6.47245212       4.06351808       0.01152996       0.00036596       0.01121775
C       -0.01983998       8.52889217       3.61446267      -0.00374789       0.00539906      -0.00525684
C        7.39464192      -0.02017428       3.55019663      -0.00546863      -0.00290606       0.00209643
C        6.16513978       2.12528254       3.53543033       0.00339924      -0.00164787      -0.00154856
C        4.93706080       4.27323544       3.66248557       0.00297716      -0.00054665       0.00461972
O        3.77167150       6.43425110       3.36420557       0.00243219      -0.00307705      -0.01603188
C        2.44876685       8.51010263       3.72265135      -0.00305642       0.00434480       0.00432503
C        9.85514864      -0.01842498       3.70320749       0.00189236      -0.00604061      -0.00370369
C        8.63115238       2.12646011       3.61280145       0.00372633      -0.00169892       0.00529109
C        7.39963349       4.26497514       3.61832538      -0.00563080      -0.00085184       0.00365112
C        6.14852758       6.39656141       3.76672820       0.00475423       0.00192862      -0.00951260
C        4.90624324       8.52003392       3.85891894       0.00175125       0.00630628       0.00423928
C       -0.01605008       1.41038498       3.81459761      -0.00216589      -0.00350466      -0.00621805
C       -1.23771952       3.56707906       3.82000412       0.00157746       0.00394942      -0.00147102
C       -2.46622924       5.69343373       3.72409924      -0.00515515       0.00127469       0.00822815
C       -3.71910877       7.82482032       3.69404340      -0.00654193       0.00045664      -0.01156970
C       -4.95187932       9.96115528       3.74510582      -0.00045917      -0.00010726       0.00388690
C        2.45502932       1.41908128       3.75813643      -0.00014284       0.00478254       0.00290065
C        1.20122830       3.54849846       4.01907250      -0.00750313      -0.00180538      -0.00488579
C        0.01339168       5.73504500       3.94021201       0.00374229       0.00352686      -0.00432835
C       -1.25214002       7.82588255       3.65560321       0.00512846      -0.00808902       0.00623204
C       -2.48395455       9.96400375       3.61558863       0.00141907      -0.00407173       0.00227605
C        4.92960234       1.40726637       3.56279064       0.00554198       0.00118918      -0.00893312
C        3.72875911       3.53512162       3.79548247       0.00450266      -0.00375426      -0.00375337
C        1.18794513       7.81262122       3.76582152      -0.00362540       0.00299484      -0.01341453
C       -0.01036930       9.95537421       3.54118978      -0.00797497       0.00495222       0.00083669
C        7.39754504       1.40878948       3.54374095       0.00118976      -0.00260019       0.00898873
C        6.17058888       3.55630887       3.56873839      -0.00288034      -0.00108549      -0.00092165
C        4.93365639       5.69054994       3.76683412       0.00579813       0.00197309       0.00626254
C        3.67875347       7.80105754       3.88099542       0.00239364       0.00944524      -0.00558146
C        2.45702909       9.94017179       3.63212190      -0.00389647      -0.00230170       0.00336984
C        9.86151451       1.41399588       3.69189779       0.00611105      -0.00415192      -0.00313086
C        8.63571694       3.55209235       3.64078674      -0.00234612       0.00055311      -0.00358285
C        7.39049820       5.68580096       3.69494351      -0.00118891      -0.00263096       0.00451135
C        6.14726442       7.82225809       3.80435279      -0.00461058      -0.00210100       0.01281229
C        4.91232574       9.95096825       3.79444655       0.00391959       0.00098189       0.00023091
Cr       2.87872739       6.07495073       5.03616205       0.00442084      -0.01113597      -0.01480140
