49
Lattice="12.336457 0.0 0.0 -6.168228499999997 10.683685154694365 0.0 0.0 0.0 15.0" Properties=species:S:1:pos:R:3:forces:R:3 energy=-438.27158944596704 free_energy=-438.27158944596704 stress="-0.006295032810284457 0.0029993461980436977 -1.4136911883562134e-05 0.0029993461980436977 -0.0019193065186274365 2.014282897284534e-06 -1.4136911883562134e-05 2.014282897284534e-06 1.453620336776625e-07" pbc="T T T"
C        0.00707919       0.00968340       3.69386900      -0.00405987       0.00416324       0.00486380
C       -1.22438829       2.14105854       3.54500885      -0.00289546       0.00760602       0.00709296
C       -2.46856566       4.27973381       3.71274235       0.00285082      -0.01028379       0.00920169
C       -3.71029747       6.41440727       3.85513772      -0.00366642       0.00478497       0.00474602
C       -4.94244548       8.55423800       3.84986444      -0.00358576      -0.00547226      -0.00001402
C        2.47043844       0.02317369       3.76867142       0.00490291       0.00191393       0.00331829
C        1.25936607       2.10935592       3.34757565      -0.00214046      -0.00092163       0.00024280
C       -0.05059247       4.33905566       3.37683058       0.00351131      -0.01089541      -0.01499021
C       -1.27507189       6.44828896       3.72536241       0.00182939      -0.00931826      -0.00429181
C       -2.48354139       8.56549989       3.84705142      -0.00309236       0.00065516       0.00908530
C        4.93746768       0.00318276       3.83876970       0.00586293      -0.00697062      -0.00074286
C        3.73782537       2.16090651       3.79335793       0.01039074      -0.00180829       0.00550875
N        1.13293258       6.41552099       3.73190146       0.00617112      -0.00315166       0.00521970
C       -0.01361959       8.53663832       3.81778453      -0.00205139       0.00825124      -0.00799123
C        7.40751781      -0.01623670       3.81131855      -0.00609764       0.00847490       0.01425451
C        6.19354015       2.11146751       3.87842892       0.00546736      -0.00605422       0.00308139
C        4.98541898       4.19987198       3.96329816      -0.00186123       0.01086131       0.00149381
B        3.73413721       6.39823509       3.93297856      -0.00174482      -0.00365117      -0.00282064
C        2.44115678       8.52663480       3.82324244       0.00263031       0.00557329       0.00532413
C        9.87254612      -0.00773557       3.74148594      -0.00921457       0.00734855       0.00314289
C        8.65210887       2.12720466       3.77423647      -0.00152298      -0.00561561      -0.00334901
C        7.42330593       4.26018266       3.89311342       0.00402821       0.00048069      -0.00725205
C        6.17837064       6.39750254       3.92890249       0.00502359       0.00137348       0.01336111
C        4.93816438       8.55194275       3.84418983       0.00712103      -0.01067848      -0.00481672
C        0.01235922       1.42955084       3.51636928      -0.00451571       0.00822503      -0.00071223
C       -1.24028815       3.57402960       3.53585603      -0.00001530      -0.00320942       0.00149718
C       -2.48602654       5.70633263       3.76710674      -0.00426672      -0.00662401       0.00365903
C       -3.71272238       7.84329160       3.85990801      -0.00396232       0.00156271      -0.00111454
C       -4.93235134       9.98365695       3.77342687       0.00127044      -0.00366297      -0.00413442
C        2.48702758       1.44965062       3.63959281       0.00380217       0.00291802       0.00593084
P        1.21775245       3.60004484       2.37079985      -0.01845984       0.00728259       0.00192347
C       -0.06540777       5.77052361       3.58428831       0.00687703      -0.00939662       0.00366121
C       -1.25718124       7.85619111       3.81277641      -0.00123268       0.00026421      -0.01505973
C       -2.47386492       9.98947208       3.83667489       0.00469865      -0.00029378      -0.00211494
C        4.95018926       1.42669860       3.84564042       0.00919524      -0.01046321      -0.00331436
N        3.78763631       3.52802223       3.91824486      -0.00283299       0.00058689       0.00142589
C        1.20058989       7.79063776       3.80590099       0.00092643       0.00226112      -0.00382463
C        0.00153315       9.96047992       3.83174509       0.00150252       0.00715919       0.00528244
C        7.42224004       1.40663219       3.82868725       0.00091970      -0.00344026      -0.00719383
C        6.20703933       3.51976472       3.92784539      -0.00097154       0.00099689      -0.00075341
C        4.98324469       5.63415774       3.96651946       0.00409356       0.01175322       0.00733657
C        3.68883707       7.85947725       3.86736026       0.00483319      -0.00338808      -0.00740429
C        2.46325203       9.95427578       3.79011585      -0.01074359       0.00980884       0.00405562
C        9.88527412       1.42096665       3.68580576      -0.00274555       0.00839102      -0.00492143
C        8.65259876       3.55474089       3.80149906       0.00354536      -0.00864215      -0.00677436
C        7.41130552       5.68911373       3.90419616      -0.00344939       0.00557653      -0.01028516
C        6.16285439       7.83015377       3.87940178       0.00368721      -0.00840041       0.00019652
C        4.94309455       9.97734417       3.76176240      -0.00717464      -0.00056280      -0.00943857
Cr       2.36555332       4.87352644       3.94807338      -0.00283798       0.00463206      -0.00159144
