49
Lattice="12.336457 0.0 0.0 -6.168228499999997 10.683685154694365 0.0 0.0 0.0 15.0" Properties=species:S:1:pos:R:3:forces:R:3 energy=-442.1489356396856 free_energy=-442.1489356396856 stress="-0.005715402460604922 0.00020064652333328544 -7.210881852466081e-08 0.00020064652333328544 0.0024178867235226985 2.165887236818485e-08 -7.210881852466081e-08 2.165887236818485e-08 9.913954746003431e-07" pbc="T T T"
C       -0.00253610       0.01040260       3.75015540       0.00277692       0.00295838       0.00697395
C       -1.24780847       2.12423220       3.74281140      -0.00835691      -0.00088748       0.00249750
C       -2.48070609       4.26787317       3.73334808      -0.00537743      -0.00085589       0.00278178
C       -3.70813224       6.41293071       3.73850273      -0.00291137       0.00439923       0.00148892
C       -4.93826625       8.56018075       3.75115601      -0.00088563       0.00091602      -0.00985523
C        2.46614426       0.03246926       3.75278023       0.00282101      -0.00441313      -0.00421419
C        1.22473665       2.17733678       3.76241273       0.00038260       0.00296906      -0.00365403
C       -0.03769828       4.27764965       3.75446159       0.00497206       0.00686483      -0.00912461
C       -1.26209902       6.42542855       3.73608257      -0.00119257      -0.00233344       0.00756265
C       -2.47496955       8.56271389       3.73708618      -0.00374974      -0.00040349       0.01152401
C        4.93957596       0.00099162       3.74597451       0.00362773       0.00227891       0.01075073
C        3.71562128       2.17435904       3.76854193       0.00015945       0.00324071      -0.00435050
N        1.13829378       6.39537372       3.76718156       0.00982301      -0.00176857      -0.00792175
C        0.00010309       8.52120113       3.74661700       0.00005501      -0.00672513       0.00440965
C        7.41190840      -0.03662738       3.74870016       0.00121955       0.00280409       0.00165789
C        6.18536175       2.12194710       3.75377560       0.00860414      -0.00176313       0.00071705
C        4.96119688       4.28095167       3.77559803      -0.00324995       0.00387923      -0.00227710
O        3.79044307       6.41618328       3.79994215      -0.00520458      -0.00539759      -0.00519283
C        2.47805312       8.46667932       3.76319943      -0.00006659      -0.00318140       0.00155044
C        9.86227598      -0.03454335       3.74972741      -0.00345368      -0.00122278      -0.00188440
C        8.63615761       2.11620543       3.74169149       0.00117032      -0.00127357      -0.00111218
C        7.40849293       4.26730537       3.74725351       0.00071619      -0.00173920       0.00405602
C        6.17835937       6.42033320       3.76324298       0.00065488       0.00122166      -0.00334658
C        4.93487118       8.53120611       3.76121423      -0.00000791       0.00054102       0.00311138
C       -0.00979637       1.43486062       3.75079398      -0.00281335       0.00252785       0.00373404
C       -1.26012745       3.55001854       3.74004210      -0.00002676       0.00327994       0.00564986
C       -2.48304469       5.69686623       3.73173174      -0.00510675       0.00012261       0.00928297
C       -3.70496515       7.84454711       3.74215382      -0.00292017       0.00160273      -0.00614234
C       -4.93296770       9.99155127       3.75082019       0.00353114      -0.00272505       0.00476117
C        2.46596765       1.46113328       3.76386923       0.00014731      -0.00242699      -0.00713767
C        1.18317781       3.59437527       3.76793089       0.00379000       0.00286313      -0.00135668
C       -0.04575071       5.72423007       3.75223540       0.00627467       0.00583091      -0.00382515
C       -1.24747510       7.84245983       3.73774087      -0.00388644      -0.00234076      -0.00017887
C       -2.47152269       9.98908628       3.74378064       0.00336712      -0.00104261       0.00670897
C        4.95109451       1.42278201       3.75608292       0.00498753       0.00464759       0.00278005
C        3.75992937       3.57147932       3.78068771      -0.00739752       0.00480214      -0.00243145
C        1.21178062       7.76693059       3.76039910       0.00349564      -0.00627920      -0.00490123
C        0.00428346       9.94920112       3.74645295       0.00190750      -0.00247858      -0.00125385
C        7.41290628       1.39482843       3.74720402       0.00755878      -0.00088965      -0.00150248
C        6.19580779       3.54710844       3.75950071      -0.00069402      -0.00025698      -0.00349855
C        4.99122803       5.70614466       3.77901770      -0.00238273       0.00204015      -0.00085399
C        3.72892555       7.82690845       3.77242965      -0.00088080      -0.00394076      -0.00637919
C        2.47066249       9.91211057       3.75339626      -0.00227329      -0.00141511      -0.00129150
C        9.86214758       1.39946745       3.74274066      -0.00620763      -0.00116993       0.00078540
C        8.63537782       3.54874422       3.73780595      -0.00160760      -0.00383305       0.00467698
C        7.40731410       5.69353339       3.74909225      -0.00104296      -0.00005270      -0.00348501
C        6.17766474       7.84406985       3.75882171       0.00003180       0.00116186       0.00387715
C        4.93295976       9.96142442       3.75228819      -0.00088237       0.00382617       0.00323705
Cr       2.46243633       5.01190388       3.78624399       0.00050438      -0.00396206      -0.00740429
