49
Lattice="12.336457 0.0 0.0 -6.168228499999997 10.683685154694365 0.0 0.0 0.0 15.0" Properties=species:S:1:pos:R:3:forces:R:3 energy=-436.78751928597876 free_energy=-436.78751928597876 stress="-0.005014496232194866 0.0012127884698136654 2.7671535590489847e-07 0.0012127884698136654 -0.00019443404286715313 -6.127559193513329e-07 2.7671535590489847e-07 -6.127559193513329e-07 -1.687829593901293e-06" pbc="T T T"
C       -0.00654587       0.00157170       3.83785414      -0.00589530       0.00419545      -0.00028384
C       -1.24339250       2.12912753       3.94520034      -0.00512105       0.00094352       0.00356544
C       -2.46637536       4.27091650       3.92852569       0.00036037      -0.00059237       0.00013063
C       -3.69836676       6.40797230       3.80768348       0.00697762       0.00073978       0.00248702
C       -4.94817403       8.54739825       3.72926670      -0.00181226      -0.00215059      -0.00675348
C        2.46045693       0.02005238       3.83165183       0.00184968      -0.00407638      -0.00009277
C        1.22357091       2.16607108       3.88150081       0.00426767       0.00799820      -0.00273452
C       -0.01249777       4.28602174       3.95289839       0.00091889      -0.00171429       0.00667441
C       -1.24353031       6.42230144       3.91966803       0.00065115       0.00238260       0.00303257
C       -2.47486313       8.55377483       3.85584170      -0.00392039      -0.00093888      -0.00332124
C        4.93125141       0.00588242       3.85685625       0.00319640      -0.00625651      -0.00647912
C        3.70995932       2.16158386       3.73667843      -0.00365644       0.00107421      -0.00044511
O        1.15337458       6.44054042       3.92084514      -0.00612453      -0.00269924      -0.00544361
C       -0.00822779       8.53405688       3.85501783       0.00062763      -0.00115977      -0.00091539
C        7.40076598      -0.02278287       3.88141715       0.00569605       0.00196760       0.00315196
C        6.18518507       2.11805343       3.80667954      -0.00004608      -0.01217915      -0.00095142
C        4.99612675       4.23415315       3.45816221      -0.00134912      -0.00542728      -0.00002683
S        3.72630873       6.43191514       2.36322842       0.00730554       0.00193027       0.00187467
C        2.44006863       8.50810293       3.66834722       0.00498892       0.00103960       0.00549108
C        9.85999746      -0.02113182       3.85632519      -0.00250385       0.00153282       0.00086810
C        8.63866475       2.12160039       3.90790662       0.00201540       0.00471310       0.00184908
C        7.42529254       4.26133555       3.75590415       0.00056118       0.00818390       0.00391800
C        6.19720465       6.40395705       3.48634886      -0.00218743       0.00562764      -0.00488812
C        4.92365425       8.54055116       3.57164452       0.00157442      -0.00121744      -0.00683236
C       -0.01314523       1.42331984       3.90652336      -0.00040341       0.00887000      -0.00140716
C       -1.25049888       3.55510951       3.96853224       0.00073800      -0.00026341       0.00213908
C       -2.47109464       5.69469489       3.89680173       0.00558885      -0.00251281       0.00337963
C       -3.70930145       7.83651424       3.79819415      -0.00059923      -0.00256160      -0.00107697
C       -4.94039654       9.97891495       3.80112976      -0.00206066      -0.00190263       0.00734083
C        2.46610994       1.44780521       3.81952335      -0.00078661      -0.00064293      -0.00284943
C        1.18220635       3.56211519       3.89628483       0.00781691       0.00562830       0.00340145
C       -0.04673685       5.71368416       3.93434143       0.00170510      -0.00308996       0.00290401
C       -1.25259448       7.84253318       3.88519819      -0.00344510       0.00311466       0.00627712
C       -2.47657460       9.98389295       3.84775960       0.00224149      -0.00399564      -0.00666542
C        4.94522783       1.42624776       3.80451090      -0.00513704      -0.00689315      -0.00403545
C        3.76323718       3.55719238       3.55788234      -0.00950366       0.00625016      -0.00345743
C        1.19304780       7.84468361       3.76801306       0.00128043      -0.00102734      -0.00792760
C       -0.00417461       9.96518794       3.86826239       0.00650151      -0.00196376      -0.00820606
C        7.40990782       1.40474452       3.88117492       0.00674231      -0.00127827       0.00315123
C        6.21238560       3.53294907       3.68752375       0.00367435      -0.00684191       0.00042414
C        5.05075439       5.64555843       3.20440396      -0.00913711       0.00261286       0.00127255
C        3.68577028       7.88487823       3.35151255       0.00325067      -0.00639317      -0.00158259
C        2.45715629       9.94167469       3.83048511       0.00239607       0.00166439       0.00122131
C        9.86319845       1.40673495       3.92331342      -0.00341878       0.00316098       0.00479284
C        8.64438908       3.55011897       3.88080856      -0.00038389       0.00555843       0.00061397
C        7.42104900       5.68735385       3.69699878      -0.00067943       0.01048644       0.00621383
C        6.16712427       7.83302709       3.56268727      -0.00251772       0.00115970      -0.01073334
C        4.92782266       9.96250961       3.78140375      -0.00603031      -0.00063833       0.00018769
Cr       2.48261520       4.97407848       3.58599750      -0.00620723      -0.01241778       0.01074659
