50
Lattice="12.336457 0.0 0.0 -6.168228499999997 10.683685154694365 0.0 0.0 0.0 15.0" Properties=species:S:1:pos:R:3:forces:R:3 energy=-450.51015348835614 free_energy=-450.51015348835614 stress="-0.003978006849909836 0.003847947900040964 -4.714861552699389e-06 0.003847947900040964 -0.008437441773010939 -1.3451492006568522e-06 -4.714861552699389e-06 -1.3451492006568522e-06 4.56783614351403e-06" pbc="T T T"
C       -0.00493218      -0.00242995       3.67511830      -0.00648644       0.00408176       0.00516617
C       -1.21457651       2.15123585       3.71788617       0.00787424      -0.00760823      -0.00000001
C       -2.44428354       4.28035592       3.71793002       0.00277055       0.01009139      -0.00427474
C       -3.70437183       6.40473860       3.67453803      -0.00073499      -0.00947336       0.01120407
C       -4.95914317       8.53123031       3.63565879      -0.00098010      -0.00183701      -0.00405817
C        2.45532046      -0.01933767       3.73409820      -0.00775761       0.00029897      -0.00477578
C        1.24571118       2.12987620       3.76122241       0.00230435       0.00377351       0.00401660
C        0.02900911       4.28846421       3.79806319       0.00137987       0.00260471       0.01209348
C       -1.23229981       6.42135227       3.76609409       0.00373177       0.00224770      -0.00265073
C       -2.48851415       8.54338679       3.73744682      -0.00413753      -0.00492877      -0.01388411
C        4.92764952      -0.00589045       3.78953212       0.01373919       0.00821720      -0.00434682
C        3.70974703       2.09731216       3.80354171      -0.00638217      -0.00241445      -0.00896689
C        2.52082458       4.22321320       3.96216908      -0.00183124      -0.00375259      -0.00864737
C        1.21825358       6.47882581       3.96433152      -0.00101264      -0.00017786       0.00129281
C       -0.02811583       8.57178254       3.80993524      -0.00538905      -0.00663282      -0.00596109
C        7.39899300       0.01950417       3.79402743       0.00203285       0.00226127      -0.00272631
C        6.18504170       2.12142430       3.78983622       0.00477955       0.00493417       0.00025799
C        4.97174209       4.21977297       3.72836699       0.00010487      -0.00744287      -0.00637360
P        3.37057673       6.21881688       2.99863774      -0.00636070      -0.00358176       0.00287707
C        2.44134625       8.60336213       3.73626048      -0.00946437       0.00583266      -0.01243668
C        9.87706508       0.02224510       3.71252688       0.00045929      -0.01354119      -0.00298520
C        8.65361859       2.14546398       3.74643303       0.00534850       0.00517012       0.00564596
C        7.42604897       4.26654985       3.70775631      -0.00831081       0.00778781       0.00074065
C        6.15271624       6.38889569       3.57789844       0.00390292       0.00163263       0.00215893
C        4.90975101       8.54226563       3.57782948       0.00358749      -0.00169917       0.01828669
C        0.01034973       1.42717384       3.71348961       0.00854688       0.00242364       0.00668864
C       -1.20406453       3.57691207       3.73406166       0.00426477      -0.00076040       0.01251460
C       -2.45871049       5.70313182       3.71549229       0.00603783       0.00634594       0.00263018
C       -3.71877966       7.82824438       3.67653922      -0.00463136      -0.01250463       0.00775211
C       -4.94762357       9.95684814       3.67551312      -0.01183914       0.00173415       0.00719310
C        2.46586634       1.40020205       3.77415381      -0.00654852       0.00187966      -0.00563764
C        1.27332652       3.56672657       3.82662033       0.00065495      -0.00230699       0.01282334
C        0.02585146       5.72674495       3.83003307      -0.00142863       0.00518156       0.00830234
C       -1.25379854       7.84287198       3.77861112      -0.00368635      -0.00555194       0.00219254
C       -2.48027124       9.96201906       3.75504522       0.00328450       0.00329886       0.00296147
C        4.94501356       1.40553412       3.79647247       0.00431953       0.01075383       0.00091232
C        3.72673569       3.50655427       3.81841574      -0.00007052      -0.00785791      -0.00129455
C        1.20086199       7.88201739       3.82632089      -0.00630341       0.00321415      -0.00742274
C       -0.00938444       9.98739414       3.80131990       0.00830248      -0.00440849      -0.00482591
C        7.41554428       1.43050187       3.78322459       0.00356460       0.00420752      -0.00962710
C        6.20386656       3.53665125       3.75239559       0.00002058      -0.00030256      -0.01174285
C        4.95175652       5.62857858       3.55828050       0.00053561       0.00281104      -0.00532963
C        3.65101755       7.88178127       3.56242682      -0.00097075      -0.00035893      -0.00752134
C        2.46588367      10.01205583       3.75748883      -0.00448990       0.00059300      -0.00054474
C        9.88711296       1.44248562       3.72472737       0.00492732      -0.01154978       0.00248857
C        8.66105405       3.56515040       3.72115638      -0.00369863       0.01306390       0.01367645
C        7.40413562       5.68821025       3.65193115      -0.00336303       0.00102744      -0.00014047
C        6.14252605       7.81852087       3.57289772       0.00511208      -0.00054940      -0.00042474
C        4.92882091       9.97617808       3.65467308       0.00096992      -0.00554877      -0.00564452
Cr       2.61401014       5.77980068       5.33223008       0.00332138      -0.00067870      -0.00163237
