49
Lattice="12.336457 0.0 0.0 -6.168228499999997 10.683685154694365 0.0 0.0 0.0 15.0" Properties=species:S:1:pos:R:3:forces:R:3 energy=-434.0947405882128 free_energy=-434.0947405882128 stress="-0.0014466297998438518 0.004262033706684443 1.6039590134335755e-06 0.004262033706684443 0.0015084662637098933 -1.4982315693992295e-06 1.6039590134335755e-06 -1.4982315693992295e-06 9.839495817620569e-07" pbc="T T T"
C        0.01186142      -0.01392285       3.66924282      -0.00291713       0.00350537      -0.00325086
C       -1.20326094       2.13984300       3.54524451      -0.00387189       0.01059694      -0.00395041
C       -2.44627593       4.27307712       3.74655887      -0.00700177      -0.00158480      -0.00583498
C       -3.70839175       6.40395730       3.89805583       0.01099852       0.00017320      -0.00626852
C       -4.93793275       8.54100619       3.85566490       0.00226265      -0.01213630      -0.00014511
C        2.48233802       0.01658267       3.79555047       0.01263712       0.00397769      -0.00156350
C        1.28427153       2.10308072       3.37716240      -0.00333883       0.01350691      -0.00660905
C       -0.01447376       4.36299302       3.42889819      -0.00706385      -0.01124877      -0.01455990
C       -1.26061798       6.44035966       3.85833484       0.00250118       0.00228140      -0.00748223
C       -2.47458227       8.55478365       3.88347045      -0.00273038      -0.00482319       0.00459310
C        4.94405757      -0.00344421       3.82562133       0.00528414      -0.00843429      -0.00660030
C        3.76878722       2.11837935       3.81963020      -0.00441660      -0.00373447       0.01410999
O        1.07168438       6.51514395       3.25853911       0.00450487       0.00565969      -0.00232895
C       -0.01291072       8.55530587       3.76449800      -0.00000056       0.00277178       0.00544004
C        7.42569337      -0.02393621       3.74036499      -0.00305854      -0.00872314      -0.00354535
C        6.21030330       2.11410964       3.83971669       0.00222895      -0.00415962      -0.00441245
C        4.98843382       4.21373114       4.00095312      -0.00676349       0.00659152       0.00680450
C        3.69998857       6.35132868       4.00769395      -0.00282207       0.00335231      -0.01359906
C        2.44971242       8.49277290       3.69919484       0.00399601       0.00385297       0.00472607
C        9.88399076      -0.02708721       3.67154289      -0.00693482       0.00854856       0.00734146
C        8.67008123       2.12355076       3.72617945       0.00184074      -0.00526569       0.00604806
C        7.42465306       4.25928518       3.86915473       0.00552266       0.01517533       0.00345779
C        6.16141855       6.37908054       3.92541487      -0.00161970      -0.00256933      -0.00864788
C        4.92639852       8.50592378       3.79541838       0.00030502      -0.01026504       0.00134547
C        0.03545342       1.41912790       3.51263510      -0.00468675       0.01340173       0.00328360
C       -1.21713298       3.57247739       3.56877254      -0.00959551       0.00091658       0.00414936
C       -2.47722748       5.69540508       3.85360964       0.00606404      -0.00159569      -0.01037526
C       -3.71083930       7.83241365       3.89632794       0.00316082      -0.00915359      -0.00212086
C       -4.92550189       9.96971397       3.77663744       0.00658731      -0.00294223       0.00685224
C        2.51246159       1.44758799       3.68092153      -0.00526288       0.01078624       0.01250003
P        1.37535456       3.68869366       2.56171715       0.00740150      -0.01318328       0.00642471
C       -0.06074364       5.76897153       3.65998805       0.00177696      -0.00977430      -0.00219742
C       -1.25462776       7.85557137       3.85464517      -0.00141612       0.00369097       0.00676358
C       -2.46589543       9.98420346       3.85278156       0.00945196      -0.00619593      -0.00295586
C        4.96662419       1.41970465       3.82786908      -0.00086195      -0.00629323      -0.01424206
O        3.83511650       3.46612204       4.10679319      -0.00721303      -0.00013366       0.00731749
C        1.18829025       7.86992745       3.62819957       0.00295831       0.00742492      -0.00527716
C        0.01223127       9.97269709       3.78842279       0.00065577      -0.00379153      -0.00558007
C        7.43247485       1.40929612       3.76892893       0.00203568      -0.01277176       0.00540671
C        6.19945738       3.53220757       3.89992459       0.00143110       0.00792453       0.00568319
C        4.90705201       5.64658823       3.99008446      -0.00665879       0.00654921       0.00416667
C        3.68826867       7.73512369       3.82514682      -0.00000239      -0.00151161       0.00749938
C        2.47864274       9.92904940       3.69804546      -0.00283304       0.00342529      -0.00087247
C        9.90187075       1.40958556       3.64302098       0.00302183       0.00897325       0.00459341
C        8.66146554       3.55200425       3.78192956      -0.00102102      -0.00267009       0.00877442
C        7.39535101       5.68193464       3.90469911       0.00591433       0.01479646      -0.00236866
C        6.16244861       7.80808255       3.86446056      -0.00018004      -0.01090214      -0.00780503
C        4.94359496       9.93835368       3.70335404      -0.01085856      -0.00089332       0.00306821
Cr       1.94797584       5.17780155       4.30369849       0.00058825      -0.00312586       0.00224393
