49
Lattice="12.336457 0.0 0.0 -6.168228499999997 10.683685154694365 0.0 0.0 0.0 15.0" Properties=species:S:1:pos:R:3:forces:R:3 energy=-441.8605094789929 free_energy=-441.8605094789929 stress="-0.00860248187673265 -0.0002761904514635205 -8.307593281555776e-08 -0.0002761904514635205 0.002011287815479798 4.1206173336397756e-08 -8.307593281555776e-08 4.1206173336397756e-08 1.0283046253588693e-06" pbc="T T T"
C       -0.00179790       0.01312535       3.74779826       0.00405134      -0.00386194       0.00854156
C       -1.26045795       2.11457216       3.73976239       0.00643995       0.00242239       0.00233707
C       -2.49756488       4.26540651       3.73140531      -0.00282660      -0.00035045       0.00294151
C       -3.70684376       6.41985628       3.73748590      -0.01071645      -0.00067902       0.00267592
C       -4.92918525       8.57223893       3.74859064       0.00297636       0.00398018      -0.00142403
C        2.47401556       0.05054476       3.75235878      -0.00359772       0.00132730      -0.00965055
C        1.22510086       2.19897020       3.75985506       0.00054659       0.00481947      -0.00955092
C       -0.06606268       4.25452982       3.75067897       0.00455023       0.00089041      -0.00978977
C       -1.27995627       6.42569945       3.73499001       0.00221945      -0.00338766       0.00662941
C       -2.47856769       8.56932272       3.73836047      -0.00871213      -0.00409717       0.00673626
C        4.93303608       0.00497707       3.74758069       0.00209443      -0.00607438       0.00741558
C        3.73444086       2.14254797       3.76356976       0.00414286      -0.00282007       0.01102654
C        1.15986496       6.37857335       3.76695466       0.01620630      -0.00680287      -0.00088531
C       -0.01008421       8.52870973       3.74846024       0.00111532       0.00303805       0.00597210
C        7.40517386      -0.03708180       3.74931673      -0.00011215      -0.00147307       0.01073490
C        6.18056303       2.11895873       3.75852826       0.00200912       0.01176202      -0.00806063
C        5.00175563       4.27608378       3.77983064      -0.00520770      -0.00299000       0.00174523
N        3.80457525       6.41427852       3.78780267      -0.00643003      -0.00896841      -0.00252162
C        2.47898293       8.48363690       3.76789215      -0.00372440      -0.00061279      -0.00679174
C        9.86115400      -0.03514909       3.74881868      -0.00142734       0.00260554       0.00319814
C        8.62812078       2.11378694       3.74277645      -0.00901885      -0.00668783      -0.00333441
C        7.40463804       4.27256660       3.74999082       0.00401850      -0.00045062       0.00455165
C        6.19538242       6.42263795       3.76597723      -0.00006850      -0.00254436      -0.00424769
C        4.94758103       8.53253966       3.76370179       0.00649550       0.00411484       0.00006067
C       -0.01142970       1.43444528       3.74780627       0.00526776      -0.00410930       0.00497705
C       -1.28806076       3.53512346       3.73632800       0.00390290       0.00384313       0.00618118
C       -2.49413031       5.69966601       3.73013954      -0.00801797       0.00402481       0.00826820
C       -3.70330767       7.85232801       3.74102291      -0.00884798      -0.00408454      -0.00638202
C       -4.92719972      10.00300723       3.74915483      -0.00003717       0.00053365       0.00342070
C        2.49153241       1.48654705       3.76120255       0.00036212       0.00470140      -0.00779767
C        1.14566022       3.57927544       3.76476991       0.01119653       0.00559762       0.00000464
C       -0.06804310       5.70093390       3.75016481       0.00517788      -0.00351615      -0.00290233
C       -1.25479112       7.84691132       3.73883896      -0.00300794      -0.00007422      -0.00314184
C       -2.47296987      10.00106112       3.74499513      -0.00546196      -0.00128053       0.00480222
C        4.93960182       1.43529354       3.75620453       0.00826224       0.00177827       0.00277336
O        3.79680294       3.55694207       3.78463700      -0.00881201       0.00677204       0.00584127
C        1.22743837       7.78005589       3.76265101      -0.00112648      -0.00208729      -0.00350681
C       -0.00257542       9.95104173       3.74831084       0.00404776       0.00307301      -0.00269648
C        7.39798360       1.39666745       3.74952226      -0.01006072      -0.00216968      -0.00042623
C        6.18174397       3.54712894       3.76514418       0.00212404       0.00655120      -0.00771149
C        4.98516264       5.70157924       3.78363397      -0.00109601      -0.01003571      -0.01360725
C        3.73476154       7.77665134       3.77751385       0.00305954      -0.00386815      -0.01731892
C        2.46918240       9.91491850       3.75480805      -0.00077616       0.00204122       0.00222279
C        9.85116903       1.39134371       3.74155961       0.00136421       0.00212056      -0.00083688
C        8.62185302       3.54765466       3.73851062      -0.00116118      -0.00621468       0.00297488
C        7.40726869       5.69673614       3.75028134      -0.00249571      -0.00195944      -0.00123428
C        6.18222351       7.84533366       3.75841199       0.00774442       0.00460123       0.01109318
C        4.93436130       9.95735528       3.75153333       0.00258010       0.00603053       0.00685259
Cr       2.52929084       5.03921567       3.78508750      -0.00921230       0.00457144      -0.01015970
