49
Lattice="12.336457 0.0 0.0 -6.168228499999997 10.683685154694365 0.0 0.0 0.0 15.0" Properties=species:S:1:pos:R:3:forces:R:3 energy=-441.1191647028958 free_energy=-441.1191647028958 stress="-0.008919398609047486 -0.0018277568658580925 8.63507879792905e-06 -0.0018277568658580925 -0.0033271652211634833 -1.0952545449140066e-06 8.63507879792905e-06 -1.0952545449140066e-06 -1.5635558649670162e-06" pbc="T T T"
C       -0.00444516       0.00405940       3.85835929      -0.00415003      -0.00047072      -0.00181478
C       -1.25937899       2.11627632       3.87446684      -0.00098130      -0.00961652       0.00586035
C       -2.48338961       4.26234721       3.85258254       0.00609493      -0.00054570      -0.00197885
C       -3.68882578       6.41320383       3.81928237       0.00037890       0.00253787      -0.00368489
C       -4.91824868       8.56509419       3.83770920      -0.00348378      -0.00146137       0.00169983
C        2.46649502       0.00803061       3.79497989       0.00214439      -0.00417011       0.00674326
C        1.21623382       2.15565306       3.81922394      -0.00297330       0.00264296       0.00236057
C       -0.04130231       4.24792759       3.94630621       0.00134865       0.00442183      -0.00431036
C       -1.25757980       6.41588958       3.90960789       0.00193531       0.00476662      -0.00329930
C       -2.46858233       8.55584302       3.84218365       0.00332916      -0.00640419      -0.00120855
C        4.93424286      -0.00582573       3.69128351       0.00394895       0.00185875       0.00276343
C        3.67894652       2.08491906       3.40428620       0.00325912       0.00247240      -0.00034986
C        1.18527890       6.38468582       3.97315385      -0.00043528      -0.00119066       0.00304141
C       -0.00528570       8.53160837       3.84262079      -0.00518720      -0.00247720       0.00370909
C        7.39748318      -0.02011631       3.73668240      -0.00079402       0.00073717       0.00454840
C        6.16875176       2.12574138       3.52784356      -0.00214369       0.00481547      -0.00473398
C        5.01495989       4.32209762       3.36159898      -0.00426164      -0.00577766      -0.00189927
C        3.78838932       6.42745230       3.65133641       0.01249528       0.00160078      -0.00525650
C        2.46741743       8.51973550       3.82475035      -0.00598921       0.00526602       0.00215470
C        9.85806828      -0.02085360       3.81879192       0.00359164       0.00328616      -0.00199824
C        8.62298605       2.12001516       3.74817373      -0.00322984      -0.00241466       0.00054283
C        7.41740221       4.27150281       3.66178729      -0.00746301       0.00158691       0.00208616
C        6.22822205       6.44275499       3.68206309      -0.00396316      -0.00293314      -0.00555303
C        4.95321946       8.55040690       3.79580359       0.00036179       0.00626199      -0.00134150
C       -0.01786541       1.42169078       3.86860130      -0.00297329      -0.00451501      -0.00180627
C       -1.27018945       3.53752080       3.90208814       0.00684798      -0.00659548      -0.00768458
C       -2.47353407       5.69290942       3.86609909       0.00437842       0.00459797      -0.00054008
C       -3.69246054       7.84276014       3.84272139       0.00032755      -0.00029166      -0.00196385
C       -4.93050419       9.98352162       3.85064526      -0.00362055      -0.00153765       0.00467412
C        2.45723700       1.42394377       3.69083820      -0.00193895      -0.00090452      -0.00597609
C        1.17032560       3.55241445       3.90148379       0.00479222       0.00348774       0.01343804
C       -0.03438393       5.70044534       3.95782180      -0.00185928       0.00406269      -0.00765507
C       -1.24170602       7.83774161       3.86905465       0.00004469      -0.00146186      -0.00002671
C       -2.46799766       9.97699298       3.77933981       0.00658952      -0.00557917       0.00455185
C        4.93142558       1.41426032       3.52103098       0.00324285       0.00515683      -0.00012711
P        3.55439743       3.66805993       2.60374993       0.01555153      -0.00160783       0.00464907
C        1.23133151       7.78590175       3.88127124      -0.00626791      -0.00086303       0.00435054
C       -0.00313519       9.95339568       3.75416615      -0.00052195      -0.00235827       0.00326481
C        7.39156935       1.40815535       3.66686481      -0.00440893       0.00004566       0.00159656
C        6.19091856       3.55710708       3.49593374      -0.00378773      -0.00078744      -0.00832383
C        5.01158584       5.75169877       3.54438871       0.00214683      -0.00835849      -0.00290499
C        3.71772804       7.81437720       3.76009890       0.00035732       0.00275333      -0.00368927
C        2.45950277       9.94074815       3.79641805       0.00257728       0.00684703       0.00342540
C        9.84846339       1.40138006       3.82215208      -0.00114929      -0.00283485      -0.00280199
C        8.62830416       3.55050389       3.75778955      -0.00303803       0.00155086       0.00253194
C        7.43157636       5.70113154       3.71971766      -0.00501380       0.00261138      -0.00382009
C        6.19540184       7.85655731       3.78359834      -0.00448960      -0.00121969       0.00252612
C        4.93389589       9.96400501       3.83813561      -0.00100995       0.00514087      -0.00217142
Cr       2.58444811       4.96287710       4.20583290      -0.00060959      -0.00213240       0.00640198
