49
Lattice="12.336457 0.0 0.0 -6.168228499999997 10.683685154694365 0.0 0.0 0.0 15.0" Properties=species:S:1:pos:R:3:forces:R:3 energy=-438.48205865929174 free_energy=-438.48205865929174 stress="-0.005936239974861659 0.000979477555302371 7.110193851313609e-07 0.000979477555302371 0.0023342786376934284 3.059028291310094e-08 7.110193851313609e-07 3.059028291310094e-08 6.973078500979694e-07" pbc="T T T"
C        0.00116068       0.01653476       3.74650229       0.00402131       0.00655271       0.00780445
C       -1.24067805       2.13263931       3.74325722      -0.01839105      -0.00491631      -0.00456632
C       -2.47170688       4.27180365       3.73608642      -0.00334427      -0.01125073      -0.00098549
C       -3.69864075       6.41590948       3.73876625       0.00338347       0.00655517       0.00187359
C       -4.92812294       8.56987981       3.74566777       0.00976451       0.00457153       0.00088929
C        2.46770915       0.05109281       3.75203617       0.00484026       0.00383048      -0.01096170
C        1.21270343       2.20545692       3.76081936       0.00266334       0.01104075      -0.00683220
C       -0.03281975       4.27406686       3.75304738       0.00469993       0.00183371      -0.00957860
C       -1.25731414       6.41809290       3.74172425      -0.00335596      -0.00283156       0.00313018
C       -2.47200278       8.56163458       3.74008468       0.00182103       0.00361525       0.00962557
C        4.93058663       0.00434887       3.74790104      -0.00007225       0.00540203       0.00945565
C        3.73400370       2.12207513       3.76600806      -0.00274319       0.00610488       0.00657271
O        1.10325868       6.43807506       3.72429886       0.00235376      -0.00180012      -0.01061965
C       -0.01603066       8.53869764       3.74713793       0.00341020      -0.00949043       0.00458026
C        7.40416599      -0.02889272       3.74945112       0.00212647       0.01643075       0.00353586
C        6.18329092       2.11975609       3.75684580       0.00342447      -0.00149891      -0.00344376
C        5.00703314       4.25922269       3.78588296      -0.00353817      -0.00192652      -0.00336912
C        3.78185194       6.39227601       3.80476185      -0.00729392       0.00242423      -0.01209384
C        2.43665849       8.48629811       3.76493959      -0.00973893      -0.00296966      -0.00421737
C        9.86077430      -0.02700729       3.74741141       0.00470086      -0.00062041       0.00746028
C        8.63669809       2.12132132       3.74109527      -0.00077942      -0.00064783       0.00041483
C        7.41603030       4.27043165       3.74720588       0.00293463       0.00028593       0.00961299
C        6.20675411       6.41797855       3.76309050      -0.00786294      -0.00552187       0.00096386
C        4.93976387       8.53766705       3.76233726       0.00897603      -0.01207835       0.00352026
C        0.00087172       1.44693102       3.74910100      -0.00665922       0.00691433       0.00310530
C       -1.25293553       3.55393151       3.74195761       0.00110206      -0.00236499       0.00378814
C       -2.47956837       5.69340225       3.73631529      -0.00294766      -0.00847975       0.00628642
C       -3.70482556       7.84764210       3.74048886       0.00761139       0.00364496      -0.00211747
C       -4.92921595      10.00129526       3.74625138       0.01033417       0.00025249       0.01048512
C        2.47939637       1.49488490       3.76215787       0.00014023       0.00125999      -0.00974588
N        1.14985449       3.57043184       3.76516631       0.00499769       0.00205128      -0.00545096
C       -0.07538037       5.69776552       3.74787620       0.00326118       0.00150074      -0.00208830
C       -1.25495710       7.84564594       3.74237998      -0.00096749       0.00118806      -0.00757913
C       -2.47703081      10.00121188       3.74636142       0.00221989       0.00179546      -0.00103306
C        4.93925292       1.43147789       3.75619956      -0.00302842       0.00537326       0.00114253
O        3.80507137       3.53294828       3.79927338      -0.00939342      -0.00340651       0.01090926
C        1.18727755       7.84054391       3.75228671      -0.00046974      -0.01449679       0.00345350
C       -0.00158300       9.96550059       3.74854208       0.00290869      -0.00216546      -0.00215828
C        7.40184942       1.40776862       3.74849185       0.00691871       0.00900785      -0.00481341
C        6.18729458       3.54221654       3.76400297       0.00295376      -0.00052469      -0.00514197
C        4.97448051       5.67860183       3.78669324      -0.01149898      -0.00193089      -0.00081449
C        3.70535791       7.77237848       3.78038555      -0.00561188      -0.00954115      -0.01404417
C        2.45678345       9.92440554       3.75398709       0.00174808       0.00564346      -0.00542807
C        9.86607861       1.40383808       3.74060843      -0.01374091       0.00132215       0.00825964
C        8.63431229       3.55175284       3.73764990      -0.00130676      -0.00864314       0.00783829
C        7.41426717       5.69572985       3.74810104      -0.00537431       0.00357127      -0.00114307
C        6.18136560       7.84216301       3.75617553       0.00972385      -0.00386660       0.00342080
C        4.93484667       9.96198567       3.74996821       0.00363807      -0.00488264       0.00514576
Cr       2.52940192       4.90473660       3.78793876       0.00144085       0.00368257      -0.00504820
