50
Lattice="12.336457 0.0 0.0 -6.168228499999997 10.683685154694365 0.0 0.0 0.0 15.0" Properties=species:S:1:pos:R:3:forces:R:3 energy=-446.2357621147361 free_energy=-446.2357621147361 stress="-0.0032242192381888098 -0.00023280153154674535 5.895093118306775e-06 -0.00023280153154674535 -0.006618076017809174 -6.071848402224705e-06 5.895093118306775e-06 -6.071848402224705e-06 3.5557978944507343e-06" pbc="T T T"
C       -0.00713231      -0.01094616       3.93320780      -0.00619789       0.00636426      -0.00024664
C       -1.24492504       2.12617211       4.00756494       0.00206249      -0.00048208      -0.00248518
C       -2.48611936       4.26110083       3.93649436       0.00142459       0.00263274      -0.00046968
C       -3.72190399       6.39387692       3.85728437       0.00225336       0.00130413      -0.01052309
C       -4.94604915       8.52815863       3.83775419      -0.00767356       0.00621257      -0.00213485
C        2.45745603      -0.03250227       3.95938289       0.00283235      -0.00142756       0.00241613
C        1.22660680       2.11222849       4.01621290      -0.00104087      -0.00371543      -0.00307587
C       -0.02218101       4.24403574       3.84178000       0.00031638      -0.00451162      -0.00000466
C       -1.25841020       6.38785167       3.66296948       0.00203845      -0.00173523      -0.00112872
C       -2.47254507       8.52207153       3.80651682      -0.00257397       0.00385219      -0.00004231
C        4.92432671      -0.02392629       3.87794652       0.00306158       0.01143540      -0.00051999
C        3.68776517       2.09284097       3.96546126      -0.00623430      -0.00705000       0.00265144
C        2.46508342       4.21653993       3.93809881       0.00789076      -0.00448748       0.00657714
P        1.24949872       6.30337325       2.52222427       0.01101765      -0.01372574       0.00430601
C       -0.01979427       8.55055463       3.55733750      -0.01017878      -0.00039719      -0.00843332
C        7.38286755       0.00821002       3.78615167      -0.00096546      -0.00381837       0.00127069
C        6.15145208       2.11796320       3.93228770       0.00263283       0.00172712      -0.00302480
C        4.92605624       4.22291802       3.77526625      -0.00253858      -0.00293449       0.00797343
P        3.88605640       6.41572646       2.17247471       0.00122784       0.01050483       0.00380359
C        2.45273898       8.64933643       3.32781850       0.00032737      -0.00435485       0.01016131
C        9.86318325       0.01519551       3.81448718       0.00115433       0.00154462      -0.00343206
C        8.61951320       2.13074026       3.95824416       0.00547729       0.00813351       0.00412349
C        7.38499925       4.26030782       3.90438084      -0.00748637       0.00400105       0.00652379
C        6.14946580       6.39970741       3.70171782      -0.00047480      -0.00602417       0.00161547
C        4.94590504       8.57394520       3.57316117      -0.00354533      -0.00804701      -0.00059198
C       -0.00714868       1.41009155       4.00798400      -0.00157768       0.00397129      -0.00816819
C       -1.25161995       3.54560075       3.96724139      -0.00095611      -0.00291889       0.00470642
C       -2.48967514       5.68256386       3.84436030       0.00393611       0.00041460      -0.00267944
C       -3.71315746       7.81639667       3.84291666      -0.00520901       0.00449192      -0.00443072
C       -4.94494196       9.94886277       3.91972873      -0.00447784       0.00799106       0.00336362
C        2.45545206       1.38932762       4.00215904      -0.00484938      -0.00565395       0.00571332
C        1.23624781       3.54323757       3.94624169       0.00169573      -0.00661929      -0.00023107
C       -0.06900350       5.62657753       3.51392653       0.00598343       0.00039695      -0.00192271
C       -1.24325225       7.81759858       3.65214535      -0.00848970      -0.00369042      -0.00248623
C       -2.47673116       9.94412398       3.88657183       0.00729917       0.00576132       0.00108757
C        4.92120417       1.39688772       3.93768954      -0.00020706       0.00822122      -0.00415864
C        3.68338684       3.51604707       3.90242238       0.00346045      -0.01184481       0.00632982
C        1.22339741       7.91906864       3.27877370      -0.00503569       0.00858501       0.00254660
C       -0.01415944       9.96581339       3.75095215      -0.00614222       0.00186615      -0.00584721
C        7.38386402       1.41861749       3.91594458       0.00593831       0.00125885      -0.00509625
C        6.15335574       3.53957118       3.88781554      -0.00410909       0.00048445       0.00633560
C        4.90489875       5.65513350       3.54151684       0.00773760      -0.00465469      -0.01254435
C        3.71038629       7.92800190       3.21466582       0.00396335      -0.00829131      -0.00307359
C        2.45645988      10.01519783       3.64815540       0.00142206      -0.00138416      -0.00124955
C        9.85819898       1.42234938       3.95460064       0.00379823       0.00389180      -0.00025457
C        8.61628341       3.55235358       3.95864970      -0.00272337       0.01054496       0.00941425
C        7.37297385       5.68789343       3.84794814       0.00116041      -0.00098409       0.00152332
C        6.15318757       7.82538321       3.69744462      -0.00382300      -0.00635651       0.00045513
C        4.93163244       9.97713377       3.79202473      -0.00207998      -0.00145161      -0.00411682
Cr       2.87312526       6.16539263       4.13255387       0.00847792       0.00096894      -0.00052565
