49
Lattice="12.336457 0.0 0.0 -6.168228499999997 10.683685154694365 0.0 0.0 0.0 15.0" Properties=species:S:1:pos:R:3:forces:R:3 energy=-434.28828724348875 free_energy=-434.28828724348875 stress="-0.00219872035188203 -0.001377644197412215 -1.0282838672307466e-06 -0.001377644197412215 0.0028019291253193403 -2.561137507187462e-06 -1.0282838672307466e-06 -2.561137507187462e-06 7.418095252927505e-07" pbc="T T T"
C       -0.00460936      -0.00346084       3.85643225       0.00059669       0.00231181       0.00679412
C       -1.25202808       2.12712380       3.87667100       0.00693377       0.01040129       0.00523583
C       -2.46884356       4.27101234       3.87681342      -0.00688076      -0.00540274      -0.00461383
C       -3.68726068       6.41180391       3.86604335      -0.00289802       0.00124075      -0.00277777
C       -4.92686409       8.55637257       3.87413252       0.00152890       0.00386016      -0.00500758
C        2.45739860       0.02262897       3.81564191      -0.00295375       0.00834179       0.00177863
C        1.19263261       2.12539238       3.80194599       0.00101904       0.00355506       0.00329340
C       -0.04631131       4.27273481       3.94603237       0.00421946      -0.00328202      -0.00310293
C       -1.22923357       6.40273031       3.93796087      -0.00212463      -0.00544652       0.00664659
C       -2.45793188       8.54879659       3.89509249      -0.00388582       0.00696224       0.00326078
C        4.93142604      -0.00088467       3.74217606       0.00462025      -0.01033893       0.00516129
C        3.68144539       2.09208976       3.36016865       0.00301772      -0.00896994       0.00169947
O        1.15900683       6.43131926       4.11874370      -0.00429964       0.00679234      -0.00276220
C        0.00465093       8.52828674       3.88808401      -0.00446804       0.00345690      -0.00259398
C        7.40036484      -0.02427130       3.77010083       0.00549296      -0.00180476       0.00368928
C        6.16799970       2.13299098       3.55228253       0.00065011      -0.00226491      -0.00030226
C        5.01781237       4.33838968       3.27668154      -0.00253315      -0.01231444       0.00397439
N        3.80004937       6.42192026       3.57183027       0.00682189       0.00916010      -0.00331247
C        2.45564613       8.47675133       3.81779981      -0.00495625      -0.00312254       0.00607187
C        9.85493680      -0.02856574       3.82847947       0.00266717       0.00500334       0.00009752
C        8.62607072       2.12606318       3.77798745      -0.00464355      -0.00261461      -0.00149655
C        7.41472246       4.27674091       3.69630092       0.00423311       0.00312864       0.00786903
C        6.20576938       6.43740781       3.70555709      -0.00014262      -0.00283373      -0.00904133
C        4.93326686       8.52654990       3.80459340       0.00434643      -0.00212124       0.00319668
C       -0.00975828       1.42939155       3.85568255       0.00321409       0.00467426       0.00478773
C       -1.24367289       3.55263965       3.90569659      -0.00026881       0.00649320      -0.00304583
C       -2.45887103       5.68956777       3.90049837      -0.00622012      -0.00646962       0.00021615
C       -3.69349123       7.83892792       3.89179234      -0.00154491       0.00422971      -0.00525909
C       -4.93401067       9.98616152       3.86957339       0.00022690       0.00665716      -0.00245374
C        2.43799878       1.45524195       3.67512754       0.00076134       0.00435534       0.00102781
O        1.14483674       3.51952107       4.02518646       0.00316207       0.00029118       0.00284087
C       -0.02958505       5.68233695       3.96423767       0.00301753      -0.00401018      -0.00903952
C       -1.23484669       7.82968980       3.92020297      -0.00335237       0.00187282       0.00696642
C       -2.47275573       9.98308456       3.82637896      -0.00441633       0.00492840      -0.00176686
C        4.92325127       1.42176947       3.54692549       0.00242374      -0.01368573       0.00343662
P        3.70730428       3.56821131       2.35490485      -0.00416863       0.01081142      -0.00063345
C        1.21146984       7.82531514       3.90085531      -0.00700857      -0.00080142       0.00826210
C       -0.00091692       9.96118389       3.80158992       0.00757127      -0.00327688      -0.00949476
C        7.39154714       1.41474473       3.70204098      -0.00321323      -0.00302798      -0.00027967
C        6.18791911       3.56954524       3.50530773       0.00519024       0.00231129       0.00061424
C        5.00243735       5.75954330       3.49786400      -0.00194249      -0.00537539      -0.00401072
C        3.72485222       7.78266349       3.74293145      -0.00061422       0.00466483       0.00350875
C        2.45755513       9.92422140       3.80951911       0.00277980      -0.00369015      -0.00172251
C        9.86134827       1.40998331       3.83752180       0.00311796       0.00923963      -0.00537462
C        8.63269467       3.55608903       3.79146502      -0.00326653      -0.00542834      -0.00476931
C        7.42416259       5.70159173       3.76039059      -0.00018882       0.00155697       0.00301483
C        6.18306449       7.84568752       3.81086221       0.00493301      -0.00366720      -0.00565081
C        4.92706474       9.95455197       3.84406690       0.00157026      -0.00270202      -0.00183438
Cr       2.50767867       5.04696191       3.55654544      -0.00812443      -0.01364932      -0.00309822
