49
Lattice="12.336457 0.0 0.0 -6.168228499999997 10.683685154694365 0.0 0.0 0.0 15.0" Properties=species:S:1:pos:R:3:forces:R:3 energy=-433.9994838409916 free_energy=-433.9994838409916 stress="-0.001614478700509772 0.00371421055654084 8.921319547711662e-06 0.00371421055654084 0.00311822430527756 -2.5459707639585154e-06 8.921319547711662e-06 -2.5459707639585154e-06 7.410847601586883e-07" pbc="T T T"
C        0.00053774      -0.01307817       3.66163493       0.00579381      -0.00229325       0.00950975
C       -1.21918466       2.13564041       3.52421638      -0.00198253       0.00354453      -0.00207277
C       -2.46843744       4.27133391       3.65196896       0.00914481      -0.00185685      -0.00158358
C       -3.71902253       6.40460388       3.78154721      -0.00154804      -0.01159057       0.00516431
C       -4.94810321       8.53861422       3.78941543      -0.00211475       0.00564815       0.01190047
C        2.47554151       0.01613013       3.78054368       0.01829657       0.00200315       0.00574095
C        1.27184660       2.11731378       3.42779693      -0.00995603      -0.00520947       0.00808596
C       -0.04374335       4.35365428       3.40433129       0.00228114       0.00398343      -0.00648349
C       -1.26686460       6.43111773       3.76664194       0.00404509       0.00239980      -0.00947370
C       -2.47713688       8.54864644       3.82833760      -0.01027465      -0.00638377       0.00034690
C        4.93919283      -0.00990505       3.81585627       0.00887669       0.01460884       0.00198053
C        3.76230683       2.12066592       3.82515023      -0.00874099       0.00159285       0.00701065
O        1.14300368       6.46350070       3.56856851      -0.01062853      -0.00044549      -0.01017699
C       -0.00697705       8.53775230       3.82768724      -0.00251558       0.00550160      -0.00459262
C        7.42024161      -0.03549608       3.76600640      -0.00799766       0.00648847       0.01219910
C        6.19922449       2.11430908       3.79743695      -0.00127486       0.00184403       0.00246119
C        4.98816534       4.23874590       3.95080970      -0.00207373      -0.00416917      -0.00074780
N        3.72540415       6.36575143       4.04580081       0.00114550      -0.00144510      -0.00651288
C        2.45730249       8.47154488       3.82705689       0.00129789       0.00515711      -0.00503656
C        9.87353010      -0.03293062       3.69010656       0.00128660      -0.00678574       0.00773452
C        8.65555932       2.11815909       3.68584470       0.00016251      -0.00596242       0.00812684
C        7.41017860       4.26188381       3.77454487      -0.00254164      -0.00230030      -0.00380877
C        6.14781844       6.38170636       3.84192563      -0.00171045       0.00602971      -0.00689089
C        4.91565826       8.49698602       3.79502445       0.00442380      -0.00475158      -0.00455921
C        0.02190222       1.42305785       3.52349494      -0.00830371      -0.00189204       0.00002178
C       -1.23640118       3.56981321       3.51333596       0.00863846       0.00317404      -0.01330604
C       -2.49153792       5.69367268       3.73506399       0.00818478      -0.00220256      -0.00190223
C       -3.71629350       7.83128077       3.80731948      -0.01307886      -0.01126617       0.00126927
C       -4.93435418       9.97116355       3.74767612       0.01380397       0.00575633       0.00248211
C        2.50632625       1.45030471       3.70579224      -0.00633792       0.00147998       0.00941609
P        1.42578259       3.72002038       2.71146965       0.01042578      -0.00818225       0.00051702
C       -0.07892549       5.74626177       3.64632093       0.00059570      -0.00009896      -0.00270508
C       -1.25717508       7.84656380       3.82419054      -0.00561684       0.00190925      -0.00152162
C       -2.47136361       9.97982098       3.82747243       0.01712931       0.00030175      -0.00877586
C        4.95721916       1.41890707       3.81039792      -0.00264231       0.01319728       0.01237605
O        3.83489215       3.48715887       4.07998715      -0.00176705      -0.00441333       0.01794438
C        1.19955413       7.85410523       3.81454990      -0.00118658       0.00450658      -0.00487434
C        0.00827275       9.96112287       3.81296234      -0.00185283       0.00802298      -0.00173308
C        7.42015880       1.40316600       3.74703453      -0.00503987      -0.00015057       0.00333271
C        6.18706062       3.53958013       3.82791732      -0.00191405      -0.00341160      -0.00358498
C        4.91962405       5.66692367       3.95198552       0.00127716      -0.00065043      -0.00383299
C        3.70590485       7.73815814       3.88679553       0.00346741      -0.00201093      -0.01148797
C        2.47559676       9.91625149       3.75690298      -0.00733627       0.00688983       0.00212233
C        9.88785325       1.40533137       3.62785039       0.00198095      -0.00502056      -0.00091149
C        8.64405109       3.54814430       3.70112046       0.00297604      -0.00278299      -0.00687249
C        7.38368766       5.68170505       3.79411537      -0.00606182      -0.00146211       0.00493206
C        6.15469971       7.80701321       3.80650137       0.00288729       0.00522893      -0.00548727
C        4.93245841       9.93719203       3.70857557       0.00464572      -0.00779492      -0.00037406
Cr       2.16235755       5.28517962       4.75763337      -0.00826943      -0.00473549      -0.00536621
