49
Lattice="12.336457 0.0 0.0 -6.168228499999997 10.683685154694365 0.0 0.0 0.0 15.0" Properties=species:S:1:pos:R:3:forces:R:3 energy=-425.524208192921 free_energy=-425.524208192921 stress="-0.002881179827294984 -0.0007745255769911278 1.0431087907492403e-05 -0.0007745255769911278 -0.010660776076658966 -4.715695967911051e-06 1.0431087907492403e-05 -4.715695967911051e-06 2.478025023454605e-06" pbc="T T T"
C        0.00013457      -0.01721990       3.67406512       0.00865028       0.00417815      -0.00144883
C       -1.22796485       2.13644910       3.50071964      -0.00210469       0.00370824       0.00335981
C       -2.47135588       4.27100823       3.56245274      -0.00576384      -0.00542985       0.00388988
C       -3.69673522       6.40103834       3.65843292      -0.00324681      -0.00555323       0.00017877
C       -4.94464149       8.51595455       3.67407096       0.00177269      -0.00185153      -0.00055073
C        2.45987410      -0.06939432       3.87873998       0.00463979       0.00284823      -0.00452538
C        1.26017454       2.02901821       3.48242348      -0.00064947      -0.00371459       0.00188065
C       -0.05207594       4.29426875       3.26815749       0.00068599      -0.00680531      -0.00253722
C       -1.22705512       6.39930346       3.74854145       0.00236520       0.00193657       0.00584277
C       -2.45801028       8.51314212       3.89776040      -0.00079717       0.00815042      -0.00166490
C        4.93146931      -0.01574373       4.02934104       0.00075875      -0.00552125       0.00018811
C        3.66063042       2.06102745       4.02281833       0.00066834       0.00006775      -0.00089574
P        1.50172987       6.20748977       4.29238886       0.00001921      -0.00228510       0.00477291
C        0.01256243       8.54613116       4.02089007       0.00622961       0.00535825       0.00725986
C        7.39650531       0.03509738       3.96719961      -0.00519585       0.00032922      -0.00406070
C        6.15369696       2.15312606       3.94343802       0.00262359      -0.00804384      -0.00018804
C        4.95780770       4.31440704       3.63769313       0.00781088       0.00085134      -0.00498382
S        3.49240796       6.38430690       2.73230763       0.00527859      -0.00779320      -0.00286134
C        2.47981496       8.62179238       3.82745188      -0.01029996       0.00399613      -0.00229769
C        9.87799600       0.03327109       3.74893000       0.00166077       0.00192133      -0.00144674
C        8.63238967       2.15190152       3.74712309      -0.00111483       0.00318909      -0.00040714
C        7.39948002       4.27621710       3.66399363       0.00214326       0.00493092      -0.00049168
C        6.17342090       6.41594820       3.42033247       0.00041964      -0.00065625      -0.00283056
C        4.92947651       8.55577746       3.54813728       0.00096793       0.00000910      -0.00254596
C        0.00418242       1.41017947       3.54913727       0.00065304       0.00390112      -0.00414567
C       -1.23953633       3.54973382       3.40959191      -0.00370895      -0.00084982      -0.00061249
C       -2.46472750       5.69024050       3.65267492      -0.00379183      -0.00686634       0.00054299
C       -3.69827703       7.81459112       3.74403747       0.00034529      -0.00340393      -0.00008210
C       -4.94474617       9.93299358       3.74933954       0.00527013       0.00108833       0.00500423
C        2.45367820       1.34473562       3.83764298       0.00434610      -0.00062674      -0.00288144
S        1.44369919       3.57677546       2.72759295      -0.00450227       0.00380516       0.00380400
C       -0.02326973       5.65343434       3.61035657      -0.00018843      -0.00632863       0.00890796
C       -1.21966556       7.81328740       3.92893949       0.00309372       0.01172952       0.00015184
C       -2.46279955       9.93105703       3.96752947       0.00047535       0.00576944      -0.00499928
C        4.92095241       1.42052241       4.03411250      -0.00004489      -0.00955811       0.00235149
P        3.43330386       3.75772649       4.31578455      -0.01652907       0.00139646      -0.00134467
C        1.27260232       7.90563819       4.00659121      -0.00174596      -0.00280233      -0.00208454
C        0.00185401       9.98249337       4.02588289       0.00208429      -0.00051091       0.00029980
C        7.39212490       1.45322551       3.90411964       0.00065214      -0.00174270      -0.00125682
C        6.16176484       3.56775048       3.76896196       0.00813540      -0.00124244       0.00058114
C        4.98531898       5.67102889       3.28596509       0.00139606       0.00080215      -0.00284046
C        3.67404899       7.93760450       3.47653958      -0.00183323       0.00056719       0.00888960
C        2.47353267      10.03558297       3.87534945      -0.00769804       0.00493170      -0.00718486
C        9.87841448       1.45034933       3.67326245      -0.00037723       0.00271192       0.00220712
C        8.63157909       3.56549525       3.66092324      -0.00484877       0.00108974       0.00210683
C        7.40592172       5.69523011       3.57009957      -0.00278463       0.00159773       0.00282267
C        6.16186852       7.82941025       3.50461007       0.00209425      -0.00296772      -0.00173032
C        4.93263945       9.98311343       3.67323388       0.00757970       0.00344660      -0.00084036
Cr       2.46119669       4.99203132       6.05503173      -0.00559407       0.00024200      -0.00130296
