50
Lattice="12.336457 0.0 0.0 -6.168228499999997 10.683685154694365 0.0 0.0 0.0 15.0" Properties=species:S:1:pos:R:3:forces:R:3 energy=-440.15167988460576 free_energy=-440.15167988460576 stress="-0.00582949237512889 -0.0003636247832690186 -3.987710520426324e-06 -0.0003636247832690186 -0.00997085669228742 1.5573949621980085e-05 -3.987710520426324e-06 1.5573949621980085e-05 8.116002512718796e-06" pbc="T T T"
C       -0.00841353      -0.00702126       3.96702612      -0.00121557       0.00087487       0.00203605
C       -1.26017172       2.11383035       3.95368927      -0.00679628       0.00543079      -0.00169362
C       -2.49782810       4.25926937       3.97536326      -0.00645664      -0.00414253       0.00178454
C       -3.71642312       6.40041783       3.98172833       0.00419971      -0.00088677      -0.00680265
C       -4.94095877       8.53791840       3.97182729       0.00108497      -0.00368169       0.00386576
C        2.45179559      -0.01309329       3.79087489       0.00483693      -0.00137482       0.00819590
C        1.19438519       2.09749321       3.55616864       0.00589830       0.00768397       0.01575834
C       -0.07255784       4.20371171       3.56485407       0.01289650       0.00068064       0.00360067
C       -1.25537003       6.38959255       3.78103234      -0.00153589       0.00176816       0.00122484
C       -2.46920975       8.52842444       3.86810968      -0.00887980       0.00217730       0.00439301
C        4.90772493      -0.00184693       3.80755704       0.00249690      -0.00818341      -0.00068037
C        3.68659217       2.10269753       3.48174375      -0.00549866       0.00757289      -0.00118183
P        2.39765616       4.11185272       2.18798059       0.00383007      -0.00102534       0.00302768
S        1.38542387       6.31248247       3.18573873      -0.00482973       0.00807931      -0.00259787
C       -0.02671567       8.56278512       3.70790921       0.00108473      -0.00318679       0.00287413
C        7.36735382       0.01988683       3.91830240      -0.00190140       0.00662045       0.00510645
C        6.14296393       2.12584589       3.81870468       0.00168782      -0.00730595       0.01490776
C        4.94573646       4.22333144       3.45858458      -0.00188342      -0.00265575      -0.01221132
S        3.88236501       6.58176150       2.52555142      -0.00426444       0.00771623       0.00626034
C        2.44278999       8.63126530       3.73096312       0.00330481       0.00048948       0.00870554
C        9.85508019       0.01567276       4.03801114      -0.00923306      -0.00461034       0.01158361
C        8.60685164       2.13543147       4.02734686       0.00809650      -0.00261442      -0.00502290
C        7.37660823       4.26094639       3.93781904      -0.00012224       0.00295862       0.00067169
C        6.16149745       6.40460331       3.88564270      -0.00464154       0.00312597      -0.00390823
C        4.93421588       8.55518049       3.97487318       0.00230506      -0.00675088       0.00459973
C       -0.02520470       1.40318785       3.85668130      -0.00203343       0.00729723       0.00652551
C       -1.28279121       3.52624598       3.87155268      -0.00369273       0.00381190      -0.01069950
C       -2.49431414       5.68149165       3.93432766      -0.00019048      -0.00566542      -0.00525110
C       -3.70847973       7.82183197       3.95058875      -0.00246670      -0.00278653      -0.00907309
C       -4.94469558       9.96048433       3.92076453       0.00357951      -0.00343236       0.00009733
C        2.44588522       1.39550866       3.58214740       0.00045541       0.00095408      -0.00803518
C        1.12106570       3.47807499       3.24464794       0.00691591       0.00137067      -0.00297601
C       -0.10678529       5.61058739       3.57898729       0.00031897      -0.00240295       0.00909522
C       -1.23980915       7.81812967       3.77505060      -0.00793532       0.00293690      -0.00939898
C       -2.48374871       9.95662350       3.82228422       0.00080703      -0.00219703      -0.00482762
C        4.91388620       1.41323765       3.72259301      -0.00465507      -0.00540763       0.00036231
C        3.75095367       3.49424315       3.17571117      -0.00427976       0.01116340       0.00057989
C        1.23110842       7.96988445       3.53094385       0.00832764       0.01033534       0.00723106
C       -0.02687721       9.98761439       3.82904531       0.00417550      -0.00315340       0.00013134
C        7.37142231       1.43194503       3.95318638       0.00913399       0.00267966       0.00711537
C        6.15471303       3.54303004       3.76038386       0.00349815      -0.00647086      -0.00453725
C        4.94827007       5.66637953       3.59929139      -0.00278294      -0.00526844      -0.00614636
C        3.67568940       7.87380659       3.77049347       0.00038692      -0.00728540      -0.00897335
C        2.44430021      10.02004321       3.93403339      -0.00823126       0.00439816       0.00333265
C        9.84385794       1.42519101       4.04591709       0.00001900      -0.00567185       0.00624140
C        8.60489076       3.55384251       4.01490808      -0.00370055      -0.00398844      -0.01706826
C        7.38189972       5.68816922       3.96295659      -0.00008205       0.00777014      -0.01106209
C        6.15383199       7.82374696       3.95757257      -0.00245222      -0.00090956      -0.00696735
C        4.92377952       9.97428546       4.03644815      -0.00552798      -0.00518285       0.00210792
Cr       3.17403876       6.10468116       4.78274025       0.01594882      -0.00165477      -0.00230111
