49
Lattice="12.336457 0.0 0.0 -6.168228499999997 10.683685154694365 0.0 0.0 0.0 15.0" Properties=species:S:1:pos:R:3:forces:R:3 energy=-426.41862932877626 free_energy=-426.41862932877626 stress="-0.0034289898160653194 2.3205076877675293e-06 -3.9483726468280605e-06 2.3205076877675293e-06 -0.010954056824528026 -3.5346718428129894e-06 -3.9483726468280605e-06 -3.5346718428129894e-06 -8.940863275465681e-07" pbc="T T T"
C       -0.01220904      -0.00691531       3.84183131      -0.00485289       0.00319762      -0.00078274
C       -1.24578135       2.13771794       3.67949339      -0.00739935       0.00562198       0.01136259
C       -2.46656968       4.27235886       3.86234323       0.00586901      -0.00034690      -0.00170471
C       -3.68905920       6.40401887       4.04520776       0.00987226      -0.01336569      -0.00248784
C       -4.94953975       8.53451546       4.00633097       0.00357935      -0.00203545       0.00345296
C        2.45069780      -0.04724696       3.82410157       0.00038899       0.00676023       0.00175475
C        1.21833886       2.03488326       3.27491356       0.00278675      -0.01137217      -0.00187845
C       -0.11683434       4.27637798       3.11529860      -0.00659346      -0.00169067      -0.01222653
C       -1.26112106       6.41031476       3.57456512      -0.00837573       0.00090200      -0.00664108
C       -2.46999133       8.52451857       3.88877910      -0.00805656       0.00814875      -0.00091808
C        4.91986309      -0.02131206       3.89790053       0.00271785       0.00071997      -0.00208088
C        3.67945170       2.01862200       3.61968613       0.00085545       0.00377483       0.01225779
P        1.13432676       6.54493346       2.19134156       0.00355847      -0.01027486      -0.00545906
C       -0.01425120       8.56068541       3.60378124      -0.00366199      -0.00084526      -0.00899693
C        7.38132541       0.01710818       3.90604996       0.00163981      -0.00300686      -0.00871050
C        6.15253027       2.12641102       4.01440015      -0.00437380       0.00367832      -0.00234291
C        4.98905230       4.26720471       4.08005314      -0.00162992      -0.00818752      -0.00528132
S        3.56571899       6.28556319       3.28521189       0.01139814       0.00403821       0.00538610
C        2.44251436       8.61777029       3.56152246       0.00395098       0.00373644       0.00423566
C        9.85833113       0.02136500       3.89074534      -0.00193062      -0.01037988       0.00421903
C        8.63223262       2.14389759       3.99929475      -0.00309468       0.00671757       0.00404852
C        7.41792992       4.26815075       4.16990780       0.00571445       0.00986566      -0.01016712
C        6.19103236       6.43899153       4.14070165      -0.00000583      -0.00270490      -0.00101708
C        4.91465676       8.55866069       3.87716173      -0.00239736      -0.00555385       0.00511949
C       -0.01398064       1.40559400       3.59925075      -0.00482788       0.00607116       0.00011229
C       -1.26071232       3.55613757       3.57459388      -0.00312760       0.00292088      -0.00930890
C       -2.46692291       5.69459463       3.86256915       0.00544459      -0.01046619      -0.00231944
C       -3.70501751       7.82263159       3.99847296       0.00323799      -0.01092752       0.00463740
C       -4.95505617       9.94914696       3.90186105      -0.00172091       0.00456430      -0.00635042
C        2.44302189       1.34842449       3.55904309       0.00671646      -0.00114748       0.00614769
P        1.13649402       3.42411351       2.19267749      -0.00311083       0.00507202      -0.00404453
C       -0.11844064       5.69028994       3.11238077      -0.00127499       0.00899604       0.00566026
C       -1.24585682       7.82841538       3.68294329      -0.01078095       0.00144364       0.00608754
C       -2.47822445       9.94496898       3.89248500      -0.00146525       0.01070882      -0.00111710
C        4.91491136       1.40799794       3.87848992      -0.00257714      -0.00020131       0.00564952
S        3.56755727       3.68043564       3.28343515       0.00644234      -0.00151066       0.00082378
C        1.21757339       7.93227719       3.27600973       0.00218063       0.00749828       0.00612414
C       -0.01264230       9.97347916       3.84551267       0.00333939      -0.00524287       0.00838474
C        7.38761073       1.43184630       4.01028395      -0.00406060       0.00155367      -0.00575371
C        6.19150474       3.52758505       4.13907369       0.00292700       0.00322877       0.01045241
C        4.98838356       5.70003357       4.08051073       0.00071456      -0.00760626       0.00302318
C        3.67879705       7.94742206       3.62170393      -0.00233259      -0.00194715       0.00745905
C        2.45053381      10.01335942       3.82665377       0.00112810      -0.00354670      -0.00197412
C        9.86671228       1.44172533       3.88661544      -0.00702476      -0.00602245       0.00157615
C        8.64815380       3.56253088       4.04503805       0.00412743       0.01027909      -0.00259373
C        7.41760446       5.69787718       4.17077228       0.00486123       0.00259271      -0.01486385
C        6.15202549       7.83991489       4.01231190      -0.00040520      -0.00197278       0.00327731
C        4.92013169       9.98803816       3.89484076      -0.00185303      -0.00791523      -0.00036249
Cr       3.43058618       4.98111414       5.25656723       0.00348273       0.00617967      -0.00186883
