49
Lattice="12.336457 0.0 0.0 -6.168228499999997 10.683685154694365 0.0 0.0 0.0 15.0" Properties=species:S:1:pos:R:3:forces:R:3 energy=-424.3246673964282 free_energy=-424.3246673964282 stress="-0.00817965478301982 -7.832634193640963e-06 -1.2657381326177043e-05 -7.832634193640963e-06 -0.008463257719470261 -6.357074396115427e-06 -1.2657381326177043e-05 -6.357074396115427e-06 -8.223262824623132e-07" pbc="T T T"
C        0.00178267      -0.00309926       3.91078342      -0.00015572       0.00322006      -0.00619491
C       -1.24239884       2.12554660       3.85845518       0.00091314       0.00163920       0.00186889
C       -2.48690346       4.27168725       4.09521884       0.00623276      -0.00933468      -0.00802184
C       -3.70111476       6.41722582       4.18771910      -0.00053087      -0.00580033       0.00277329
C       -4.93975915       8.54700542       4.04229078      -0.00090073      -0.00663703       0.00129969
C        2.46788036      -0.01403766       3.88444933      -0.00018493      -0.00233158       0.00881489
C        1.22320270       2.04834982       3.41942817      -0.00368502       0.00662402      -0.00403282
C       -0.21797651       4.28756628       3.32970063       0.00228286       0.00259657       0.00373806
C       -1.29237051       6.42429737       3.80842187       0.01207540       0.00264901       0.00602754
C       -2.46132997       8.54353294       4.02417531      -0.00058455       0.00432078      -0.00602415
C        4.93404529      -0.00796237       3.91503050       0.00450691      -0.00315241      -0.00207509
C        3.71579186       2.04700931       3.43806952       0.00370256       0.00065828      -0.00110718
S        1.20419457       6.36870421       2.65439618       0.00393705      -0.00441227      -0.00645129
C       -0.00063687       8.54336998       3.74132608      -0.00188053       0.00552036       0.00487046
C        7.40126423      -0.00484433       3.96424160      -0.00825161       0.00987857       0.00109136
C        6.17507793       2.12317186       3.90611151      -0.00170044      -0.00457152       0.00057622
C        5.12713249       4.28779388       3.45881936       0.00360837       0.00607965      -0.00997905
S        3.75370277       6.36529917       2.68495202      -0.01202875      -0.00632865      -0.00239940
C        2.46875224       8.57768481       3.58203406      -0.00282092      -0.00080073       0.00680226
C        9.87004853      -0.00144681       3.95962402       0.00753926       0.00042974       0.00444394
C        8.63553641       2.12858169       4.11384313       0.00151571      -0.00137662      -0.00343812
C        7.41749869       4.27107637       4.15048479      -0.00189444       0.00001295      -0.00120750
C        6.21682955       6.42610675       3.89851766      -0.00976690       0.00487878      -0.00512719
C        4.93596547       8.54736802       3.76948906       0.00750876      -0.00464133       0.00379795
C       -0.00053198       1.42280139       3.74212350      -0.00541378       0.00428262       0.00054278
C       -1.29249806       3.54215475       3.80887825       0.01022503      -0.00285388       0.00138395
C       -2.48700470       5.69572130       4.09400273       0.00744429      -0.00621280       0.00164827
C       -3.70076835       7.83850982       4.11343980       0.00123276      -0.00354397      -0.00236895
C       -4.93540447       9.97114200       3.96441476      -0.00330073      -0.00523710       0.00429656
C        2.46867744       1.38798915       3.58178434      -0.00046411       0.01122925       0.00523950
S        1.20484400       3.59774036       2.65372620      -0.00502754      -0.00719921      -0.00325091
C       -0.21714882       5.67816743       3.33204101       0.00117100      -0.00001196      -0.00695203
C       -1.24222368       7.84063685       3.85831200       0.00187676       0.00651327       0.00201198
C       -2.46591705       9.96793779       3.96112070       0.00406912       0.00198389       0.00075011
C        4.93579598       1.41982194       3.77010134       0.00569550      -0.00741283       0.00302531
S        3.75370910       3.60148963       2.68337124      -0.00949583      -0.00659723       0.00940522
C        1.22323641       7.91748734       3.42005463      -0.00407124      -0.00267930      -0.00521276
C        0.00192668       9.96948678       3.90947216      -0.00160803       0.00376930       0.00144134
C        7.39674640       1.41963967       4.04343561      -0.00161538       0.00429909      -0.00423016
C        6.21615551       3.54052977       3.89983971      -0.00417184      -0.00228696      -0.00087352
C        5.12908866       5.67837846       3.45539953      -0.00406694       0.00272846      -0.00002835
C        3.71610786       7.91941227       3.43851080       0.00222782       0.00248021       0.00060687
C        2.46783791       9.97990499       3.88356310      -0.00381249       0.01324731       0.01131441
C        9.87462118       1.42297030       4.02291305       0.00226486       0.00035353       0.00090646
C        8.63524201       3.55014728       4.18848709       0.00181957      -0.00434842       0.00120456
C        7.41789362       5.69575202       4.15040823      -0.00893009       0.00310907      -0.00504543
C        6.17513834       7.84370661       3.90488353      -0.00108366      -0.00167308       0.00118647
C        4.93375094       9.97495330       3.91470325       0.00777844      -0.00416270      -0.00119642
Cr       2.46190269       4.98208079       4.36215089      -0.00218085       0.00110262      -0.00585128
