49
Lattice="12.336457 0.0 0.0 -6.168228499999997 10.683685154694365 0.0 0.0 0.0 15.0" Properties=species:S:1:pos:R:3:forces:R:3 energy=-435.28575775367267 free_energy=-435.28575775367267 stress="-0.006815111658046259 -1.67420657808975e-06 -2.4733085577658417e-07 -1.67420657808975e-06 -0.0036607142288468827 -1.4215966257512424e-06 -2.4733085577658417e-07 -1.4215966257512424e-06 9.616000960487308e-07" pbc="T T T"
C       -0.00466759      -0.01151616       3.74454093       0.00314075      -0.00093535       0.00896070
C       -1.23794573       2.12859537       3.74269601       0.00533638      -0.00254369      -0.00031425
C       -2.47575025       4.26801955       3.72706783      -0.00345891      -0.01031598       0.00480254
C       -3.70130565       6.40903295       3.73061715       0.00229352      -0.00863323      -0.00832960
C       -4.93125030       8.54516684       3.74354853      -0.00368931       0.00453412      -0.00873732
C        2.46689273      -0.02549600       3.74785917      -0.00045997       0.00345715      -0.00457435
C        1.24215681       2.10200229       3.76422441       0.00355088      -0.00819566       0.00597750
C       -0.02708870       4.31260149       3.75119044      -0.00573151       0.01142410       0.00424454
C       -1.26911518       6.43028571       3.72334403      -0.00456402      -0.00142460       0.00621175
C       -2.47125367       8.54522607       3.73165101       0.00419707       0.00587255      -0.00139739
C        4.93840955      -0.01095169       3.74327882      -0.00570615      -0.00699060       0.00745579
C        3.69122530       2.10189856       3.77413360      -0.00127023      -0.00148633      -0.00364875
N        1.12453966       6.43084427       3.78248676      -0.00089100       0.00977069      -0.00712537
C       -0.00605444       8.53421749       3.74304668      -0.00178450      -0.00358159       0.00130312
C        7.40611920      -0.02347698       3.74958061      -0.00201808       0.00247429      -0.00120340
C        6.17166091       2.12894155       3.75393927      -0.00690218      -0.00691979       0.00156970
C        4.96094950       4.31287590       3.77876853       0.00668595       0.00531229      -0.00658541
N        3.80918394       6.43061585       3.80124688       0.00200100       0.01468981      -0.00591404
C        2.46702018       8.49223446       3.77243432      -0.00262853      -0.00309695      -0.00683138
C        9.86378124      -0.02344488       3.75018707       0.00683607      -0.00024599       0.00168836
C        8.63504221       2.12231423       3.74068775       0.00099727       0.00857438      -0.00154076
C        7.40964180       4.26774858       3.74121152       0.00376930      -0.00293800       0.00249706
C        6.20344820       6.43035408       3.75315450      -0.00192822      -0.00324344       0.00349360
C        4.93985934       8.53409018       3.75978062       0.00266459      -0.00403292       0.00213577
C       -0.00508784       1.41522755       3.74881658       0.00433685      -0.00302681       0.00484876
C       -1.23907205       3.55886892       3.73780493      -0.00359320      -0.00135005      -0.00110632
C       -2.48110870       5.69329264       3.72243873       0.00138863      -0.01705459       0.00360570
C       -3.70129229       7.83212337       3.73540811       0.00210762       0.00474666      -0.01195953
C       -4.93840918       9.96273328       3.74392649       0.00116579       0.00737080       0.00304070
C        2.46665413       1.38965857       3.76332684       0.00364399      -0.00467997      -0.00320208
B        1.28321532       3.59523481       3.78367686       0.00854413       0.00195017       0.00077413
C       -0.04613174       5.74225668       3.74633874      -0.00118817       0.01270587       0.00359406
C       -1.24357809       7.84076166       3.72857390       0.00073038      -0.00202496       0.00584448
C       -2.46409889       9.96299856       3.74012616      -0.00475665       0.00292195       0.00026633
C        4.93875632       1.41577652       3.75709960      -0.00714475      -0.01236212       0.00466217
B        3.65043547       3.59506201       3.79954281      -0.00900314       0.00831254      -0.00069229
C        1.21440046       7.78829201       3.76761537      -0.00445997       0.00599192      -0.00494489
C        0.00327432       9.95704615       3.74287965      -0.00332653      -0.00681691       0.00890799
C        7.40327030       1.40757836       3.74700400       0.00002713       0.00749244      -0.00121619
C        6.17282602       3.55904521       3.75753807       0.00504962      -0.00115713       0.00111356
C        4.98037303       5.74246007       3.77660135      -0.00248326       0.00767422       0.00086782
C        3.71956578       7.78797347       3.77986717      -0.00123959       0.01109260      -0.00187670
C        2.46679112       9.92547806       3.75744989       0.00060457      -0.00577215      -0.00216574
C        9.86676220       1.40757108       3.74248825       0.00127825       0.00452525      -0.00038613
C        8.63521951       3.55128096       3.73372128      -0.00222518      -0.00030227       0.00172388
C        7.41514168       5.69294922       3.73980128      -0.00178268      -0.00782265      -0.00001239
C        6.17759142       7.84086455       3.75223674      -0.00035643      -0.00789603      -0.00481764
C        4.93018974       9.95688876       3.74955869       0.00770546      -0.00815267       0.00506806
Cu       2.46620618       5.12494696       3.85020164       0.00453694       0.00210864      -0.00607619
