49
Lattice="12.336457 0.0 0.0 -6.168228499999997 10.683685154694365 0.0 0.0 0.0 15.0" Properties=species:S:1:pos:R:3:forces:R:3 energy=-431.6067402949284 free_energy=-431.6067402949284 stress="-0.007444620839568766 0.00359667542723857 -1.3474640848931517e-06 0.00359667542723857 -0.0001122470727158108 3.4006699538518543e-07 -1.3474640848931517e-06 3.4006699538518543e-07 -1.2233012003955942e-06" pbc="T T T"
C       -0.00282046       0.01561269       3.75339127       0.00028000      -0.00294045       0.00123402
C       -1.23536170       2.13838145       3.73891717      -0.01094568       0.00019365      -0.00268508
C       -2.46693249       4.27778454       3.72662676      -0.00782175      -0.00225494      -0.01000391
C       -3.70649174       6.41677345       3.73014131       0.00036053       0.00396823       0.00826352
C       -4.94840227       8.56117590       3.74938036       0.00262770       0.00422239      -0.00593697
C        2.46678193       0.04835917       3.75607302      -0.00300005       0.00078563      -0.00279258
C        1.23905079       2.21641455       3.76725400      -0.00230292      -0.00343120      -0.00337805
C       -0.01020833       4.30744650       3.74640032       0.00374155       0.00676196      -0.01406518
C       -1.26306542       6.43660829       3.72871574      -0.00524520      -0.00121968       0.00100112
C       -2.48713585       8.56522003       3.73648303      -0.00300759       0.00188241       0.00638132
C        4.92906512       0.00132069       3.74525560      -0.00680262       0.00109700      -0.00208119
C        3.74952746       2.12096578       3.77992807       0.00099896       0.00623037      -0.00120864
O        1.11652881       6.45952246       3.75589058       0.00079167       0.00013059       0.00295613
C       -0.02793792       8.54675192       3.74309384       0.00144171      -0.01165153       0.00689216
C        7.40314473      -0.02629030       3.74256632      -0.00127319       0.01052246      -0.00231648
C        6.19918288       2.10411937       3.73775660      -0.00053925       0.00141467       0.00382704
C        5.03266396       4.20966486       3.77583972       0.00738839       0.00278468       0.01032358
B        3.74818741       6.36422332       3.81067458      -0.00376953      -0.00174478      -0.00381205
C        2.42461359       8.50956702       3.76755575      -0.00138617      -0.00379196      -0.00268387
C        9.86172104      -0.01848682       3.74751863       0.00255148       0.00530202       0.00355070
C        8.64659621       2.12181117       3.72927946       0.00050449       0.00294024      -0.00006659
C        7.43134459       4.26608082       3.72881459       0.00310817      -0.00784562       0.00267316
C        6.18262165       6.39590022       3.75746503       0.00777535      -0.00231959      -0.00194155
C        4.92092733       8.53585084       3.76747009       0.00691187       0.00070469       0.00338024
C       -0.00010054       1.44447011       3.75196562      -0.00891106      -0.00555908       0.00386441
C       -1.25099105       3.56304708       3.73221167      -0.00295671       0.00467100       0.00837860
C       -2.48249071       5.70241877       3.72627064      -0.00509552      -0.00219744      -0.00284643
C       -3.71968454       7.84741612       3.73761591       0.00052050       0.00425711      -0.00034408
C       -4.93720271       9.99423031       3.75264569       0.00370114      -0.00191410       0.00822663
C        2.49499593       1.48611301       3.77183461       0.00249093      -0.00215321       0.00048217
C        1.16709690       3.59371552       3.77393232      -0.00060998      -0.00439994      -0.00725301
C       -0.07116055       5.73021937       3.73950954       0.00059845       0.00684815       0.00134030
C       -1.26733514       7.85715598       3.73399186      -0.00384727      -0.00124916      -0.00220542
C       -2.48218851      10.00025575       3.74660309      -0.00617097       0.00035554      -0.00001895
C        4.95584516       1.41871969       3.75075343      -0.00375700       0.00207028      -0.00608985
O        3.83684798       3.50968890       3.86610096       0.00566117       0.00303691       0.01386005
C        1.17717788       7.84679956       3.75899476       0.00105452      -0.01146518      -0.00567906
C       -0.00466973       9.96656207       3.74373071      -0.00279746      -0.00659419      -0.00595482
C        7.41507609       1.40224235       3.73320301       0.00322385       0.01129593       0.00240532
C        6.22121567       3.51772922       3.73697234       0.00444386      -0.00131214      -0.00210540
C        4.99012217       5.61451178       3.78099025       0.00300398       0.00322016      -0.00693111
C        3.67237914       7.82024460       3.78330864       0.00406328       0.00054737      -0.00533758
C        2.45322511       9.94066853       3.75158490       0.00060380       0.00329427      -0.00252198
C        9.86840252       1.40767747       3.73606177      -0.00676833       0.00574511       0.00316257
C        8.64854878       3.55127796       3.72536641      -0.00137674      -0.00679303      -0.00240785
C        7.41282848       5.68948176       3.73699373       0.00312094      -0.00692174      -0.00677442
C        6.15423488       7.82588397       3.75915623       0.00667033      -0.00003158       0.00315217
C        4.93197552       9.96842106       3.75561082       0.00091675       0.00211804      -0.00079840
Cu       2.48964328       4.90482026       3.84681883       0.00982960      -0.00861034       0.01488531
