49
Lattice="12.336457 0.0 0.0 -6.168228499999997 10.683685154694365 0.0 0.0 0.0 15.0" Properties=species:S:1:pos:R:3:forces:R:3 energy=-424.21429688880323 free_energy=-424.21429688880323 stress="-0.0010544912421841012 -0.004348058733720313 -9.914978765771417e-06 -0.004348058733720313 -0.00543085494530958 8.165119808349236e-07 -9.914978765771417e-06 8.165119808349236e-07 -1.4158631510450284e-06" pbc="T T T"
C        0.00525968      -0.01147744       3.89385982      -0.00655765       0.00430555      -0.00268397
C       -1.25950680       2.11203083       3.85921398       0.00141435       0.00541859      -0.00526767
C       -2.48401035       4.26107385       3.78724873      -0.00704090       0.00517845       0.00099625
C       -3.69114851       6.39577223       3.77677711       0.00918530      -0.00328854       0.00530922
C       -4.92418073       8.52795148       3.87538027       0.00539023       0.01190564      -0.00880600
C        2.46063600      -0.01007106       3.77309266       0.00559830       0.00631614       0.00224613
C        1.18355652       2.10407326       3.75563615       0.00480591      -0.01217663       0.00683599
C       -0.05383012       4.18015122       3.81760073      -0.00554904      -0.00576926       0.00287734
C       -1.19078916       6.35797064       3.73016689      -0.00201936       0.00146933       0.00957785
C       -2.44045615       8.51382430       3.76120180       0.00050205      -0.00648221       0.00857390
C        4.92520058      -0.01529608       3.65444085       0.00081515       0.00291831      -0.00655635
C        3.66002986       2.06904377       3.33582218      -0.00460147       0.01363189      -0.00694761
S        1.61633250       6.20744662       3.39630832      -0.00778389       0.00884440       0.01463745
C        0.02455334       8.52013334       3.70300211      -0.00161271      -0.00430567      -0.00007475
C        7.37830779       0.01950277       3.74385484       0.00505966      -0.00162746      -0.00374002
C        6.13694092       2.14506540       3.49024642      -0.00827007       0.00640350       0.00705001
C        4.98414342       4.32597354       3.29423475      -0.00552919      -0.01615294      -0.00576620
B        3.62905279       6.41496673       4.00920911      -0.00325156      -0.00155512       0.00908992
C        2.47968023       8.60960289       3.88544497      -0.00364802      -0.00548602      -0.00640936
C        9.86474948       0.01737363       3.89220556       0.00230855       0.00063385       0.00345339
C        8.60670994       2.14080749       3.74280696      -0.00387784      -0.00057527       0.00253877
C        7.39419869       4.27564634       3.63895861       0.00789368       0.00565852      -0.00524106
C        6.16527328       6.40810598       3.76875580       0.00576305      -0.00082843       0.00824364
C        4.94344448       8.55595682       3.95493556      -0.00113718       0.00432486       0.00796395
C       -0.01138292       1.41455706       3.85088431      -0.00001363      -0.00144518      -0.00817927
C       -1.26850303       3.51852634       3.83888682      -0.01071786       0.00399470      -0.00790451
C       -2.45313101       5.67417706       3.76669959       0.00276546       0.00125505      -0.00234732
C       -3.68503203       7.81586045       3.81071943       0.00223393      -0.00501567      -0.00261621
C       -4.93021867       9.95754336       3.87303121       0.00037978       0.01390294      -0.00954642
C        2.43111370       1.42065607       3.64634680       0.00569622      -0.00073382      -0.00379228
O        1.14188635       3.47481033       3.89373781      -0.00630654      -0.01383525       0.00611223
C       -0.00442491       5.56609084       3.71666475      -0.00442084      -0.00225712       0.00988351
C       -1.20123559       7.79219481       3.71484561       0.00129974      -0.00042532       0.00607220
C       -2.46571448       9.95117767       3.73360937       0.00251906      -0.00314050      -0.00916671
C        4.90526219       1.41868247       3.48974814      -0.00852573       0.00952611      -0.00214735
S        3.59073871       3.62458693       2.58418201       0.00045885      -0.00712871       0.00147576
C        1.28928975       7.88853146       3.71400295      -0.00517949      -0.00832131      -0.01061616
C       -0.00341350       9.96508496       3.70422762       0.00424285      -0.00180726      -0.00324589
C        7.36494801       1.44231310       3.66274680      -0.00563584       0.00116711      -0.01046754
C        6.16500203       3.56231577       3.45040848       0.00717620       0.00149106       0.01050559
C        4.93185809       5.69084979       3.63201805       0.00358777      -0.01372620       0.00450751
C        3.69413879       7.90818418       3.96605348      -0.00177789       0.00250512      -0.00213507
C        2.45320243      10.02688753       3.86411118       0.00524667      -0.00655607      -0.00412367
C        9.84952572       1.43004867       3.84096914       0.00265719       0.00335199      -0.00268965
C        8.61560751       3.55728185       3.72676423      -0.00223550       0.00146884      -0.00413017
C        7.40580156       5.69429811       3.72752138       0.00916587       0.00186566       0.00066485
C        6.17710814       7.82615002       3.89856995       0.00437495       0.00829683       0.00106618
C        4.93668565       9.98522333       3.93350733      -0.00405503       0.00227242       0.00043026
Cu       2.53413316       5.44688841       5.37405897       0.00920645      -0.00546690       0.00448930
