50
Lattice="12.336457 0.0 0.0 -6.168228499999997 10.683685154694365 0.0 0.0 0.0 15.0" Properties=species:S:1:pos:R:3:forces:R:3 energy=-447.6333520484375 free_energy=-447.6333520484375 stress="-0.005229681164039804 -5.426524827668463e-07 1.205492043017523e-06 -5.426524827668463e-07 -0.0019419963169032748 6.087162719723169e-06 1.205492043017523e-06 6.087162719723169e-06 -5.4701869380853026e-06" pbc="T T T"
C       -0.00319611      -0.00437287       3.62971203      -0.00531851       0.00430292       0.00559268
C       -1.24310748       2.12529390       3.63840929       0.00221540       0.00143502       0.00289312
C       -2.47604966       4.26771180       3.64029209      -0.00075065       0.00938854      -0.00138190
C       -3.70159989       6.40900808       3.63776676      -0.00393961      -0.00636016      -0.01453227
C       -4.93028974       8.55134461       3.63377285      -0.00599912      -0.00234353       0.00995388
C        2.46643764       0.00776499       3.62619764      -0.00291476      -0.00085787       0.01078009
C        1.22602960       2.13623877       3.71741948      -0.00338219       0.00380349      -0.00437984
C       -0.02733966       4.26489769       3.81026008      -0.00845905      -0.00818172       0.00233349
C       -1.24609965       6.41401093       3.72638750       0.00806450       0.00399800      -0.00770274
C       -2.47311366       8.55155968       3.63469728       0.00120963      -0.00479445      -0.00330316
C        4.93565695      -0.00440049       3.63207430       0.00972783       0.01203822      -0.00055299
C        3.70691773       2.13660472       3.71877187      -0.00081132      -0.00024933       0.00709725
B        2.46584011       4.31087178       4.08729280       0.00471410      -0.00873140       0.00403067
C        1.18034303       6.42238010       4.09986496      -0.01707135       0.00289487      -0.00001617
C       -0.00991046       8.53983986       3.73075847       0.00739288      -0.00434255       0.00285579
C        7.40225144      -0.01461025       3.66109747      -0.00309070      -0.00571051      -0.01220488
C        6.17579289       2.12551354       3.64112713       0.00194019       0.00182783       0.00420440
C        4.96012898       4.26496465       3.81497115       0.00781021      -0.00851529       0.00189082
C        3.75239277       6.42289330       4.10268397       0.01722549      -0.00092806      -0.00783329
C        2.46628382       8.53361808       3.84226222      -0.00134576       0.00547836      -0.00586431
C        9.86643361      -0.01504539       3.66062880       0.00956405      -0.00083084      -0.01142925
C        8.63478342       2.12550580       3.60988966      -0.00443234      -0.00524196       0.00928890
C        7.40910118       4.26782871       3.64212153      -0.00211275       0.00772452       0.00467345
C        6.17888147       6.41373385       3.73010012      -0.00262622       0.00978499      -0.00741962
C        4.94275181       8.53966783       3.73225783      -0.00611724      -0.00190118      -0.00449262
C       -0.00801790       1.41652350       3.64647106      -0.00113008       0.00415869       0.01195172
C       -1.25074921       3.55168868       3.67653944      -0.00778579      -0.00171031       0.00392748
C       -2.47278519       5.69551829       3.65647766       0.00665946       0.01029503      -0.00363266
C       -3.70155551       7.83695873       3.62987589      -0.00590984      -0.00911275      -0.00851706
C       -4.93379691       9.97402925       3.62248420      -0.00913429       0.00110042      -0.00362348
C        2.46656711       1.43129338       3.68671536      -0.00364396       0.00321052       0.01364423
C        1.18452990       3.55047403       3.84710691      -0.00431536      -0.00227404       0.00179941
C       -0.01011180       5.70034706       3.87234203      -0.00332737      -0.00789410       0.00739336
C       -1.24218353       7.83580064       3.69525216       0.00753823      -0.00007011      -0.00652830
C       -2.46993989       9.97407512       3.62255343       0.00767304       0.00236085       0.00633325
C        4.94074587       1.41649871       3.65020796       0.00403772       0.01133473       0.00220294
C        3.74814429       3.55073874       3.85058860       0.00342402      -0.00721392      -0.00454443
C        1.22580712       7.81572996       3.88169973       0.00282200      -0.00430454      -0.00582211
C       -0.00088038       9.96055160       3.66371155       0.00178029      -0.00348652       0.00619459
C        7.40506763       1.40964108       3.62228414      -0.00780832      -0.00663671       0.00007229
C        6.18369574       3.55186545       3.68034710       0.00510189      -0.00127069       0.00197820
C        4.94268658       5.70031001       3.87657805       0.01328912      -0.00351983       0.00699784
C        3.70683960       7.81565589       3.88198577      -0.00155736       0.00049766       0.00366425
C        2.46601989       9.95087766       3.70895338       0.00402924       0.00493387      -0.00880278
C        9.86418654       1.40920966       3.62199321       0.00502331      -0.00122393      -0.00659933
C        8.63474314       3.55250259       3.61210764      -0.00064096       0.00351230       0.00516995
C        7.40590234       5.69563724       3.65970844      -0.00967208       0.00629893      -0.01246161
C        6.17513216       7.83550288       3.69710006      -0.00693380       0.00484303      -0.00958711
C        4.93328981       9.96036143       3.66306029       0.00361594      -0.00536949       0.00600864
Cu       2.46562163       5.79009071       5.28369789      -0.00462774      -0.00214697       0.00829921
