49
Lattice="12.336457 0.0 0.0 -6.168228499999997 10.683685154694365 0.0 0.0 0.0 15.0" Properties=species:S:1:pos:R:3:forces:R:3 energy=-429.33325135975076 free_energy=-429.33325135975076 stress="-0.005384061234175897 -0.0036885091184072675 2.0532076203726346e-06 -0.0036885091184072675 -0.0009051110873025237 -4.6998644684528195e-06 2.0532076203726346e-06 -4.6998644684528195e-06 7.317374122525052e-07" pbc="T T T"
C        0.00003098      -0.00804975       3.85564475       0.00332750      -0.00022787      -0.00336744
C       -1.26521890       2.10552225       3.90084183      -0.00500779      -0.00166799       0.00568967
C       -2.48712960       4.26018474       3.92818700       0.00166236       0.00465252       0.00703612
C       -3.68528030       6.41351039       3.89682673      -0.00312918      -0.00296459       0.00123767
C       -4.91143928       8.56101625       3.87656785      -0.00474455      -0.00235648      -0.00066856
C        2.46330350       0.02573222       3.82688036       0.00540626      -0.00169644       0.00511436
C        1.17880786       2.11392863       3.80361233       0.00620251       0.00014647       0.00403608
C       -0.07130750       4.20015138       4.02108171      -0.00209426      -0.00272326       0.00562071
C       -1.23946772       6.38942058       3.98734905      -0.00658090       0.00202080      -0.00599519
C       -2.45436834       8.55043470       3.91412813      -0.00615730      -0.00270724      -0.00028983
C        4.92561400       0.00733723       3.73880170       0.00212605       0.00676310       0.00366719
C        3.66910952       2.09563187       3.34819697      -0.00506683       0.01187931      -0.01406052
B        1.18938913       6.38687148       3.90213715       0.00402230      -0.00865046      -0.00251852
C       -0.00201142       8.54585640       3.86982539       0.00404964      -0.00243397       0.00150638
C        7.39475488      -0.00983101       3.73981291       0.00384214      -0.00050597       0.00129433
C        6.15343443       2.14263326       3.53158406      -0.00037921      -0.00698865      -0.00124497
C        5.04116297       4.35278848       3.21527318      -0.01327149      -0.00752667       0.00490971
N        3.81837808       6.42861947       3.59009359       0.00934193       0.01203609      -0.00239676
C        2.48960218       8.52213161       3.77369087      -0.00343270       0.00409601       0.00444240
C        9.86194090      -0.02133019       3.79759528       0.00241447      -0.00109105       0.00120974
C        8.61661506       2.12609442       3.77138185      -0.00414247       0.00459675       0.00473952
C        7.41077372       4.28125657       3.70535371       0.00395583      -0.00061541      -0.00334564
C        6.22408405       6.44584099       3.68850173       0.00724770       0.00283118       0.00389107
C        4.95903917       8.53761115       3.77286323      -0.00271765      -0.00041932       0.00168025
C       -0.01730037       1.41762476       3.86946443       0.00287061       0.00214959      -0.00996400
C       -1.27142777       3.51507775       3.97387663      -0.00213868      -0.00069351       0.00725396
C       -2.47101589       5.68354965       3.95516544      -0.00385397       0.00161881      -0.00116855
C       -3.68224330       7.84078123       3.91064551      -0.00694826      -0.00538277       0.00260739
C       -4.92697133       9.98757162       3.87550710       0.00428973      -0.00222137       0.00458893
C        2.43487303       1.45936085       3.68152055       0.00314850      -0.00289599      -0.00041982
O        1.12515652       3.49299657       4.00120049       0.00522457      -0.00009965      -0.00037466
C       -0.04568351       5.60889909       4.01177170      -0.00666103      -0.00143552      -0.00412716
C       -1.22203075       7.82147314       3.93447481      -0.00176585       0.00257626      -0.00938402
C       -2.46846561       9.98378516       3.83647762       0.00401005      -0.00048033      -0.00481553
C        4.91207383       1.43550092       3.53405493      -0.00475716       0.00596968      -0.00123126
S        3.66076286       3.60178885       2.46196590       0.00427889      -0.01203352       0.00314905
C        1.24965782       7.84815120       3.85091914       0.00413264      -0.00713327       0.00155530
C       -0.00795385       9.97363461       3.78565348       0.00320511       0.00096896      -0.00027921
C        7.37859453       1.42276630       3.68105810       0.00113856      -0.00347743       0.00095677
C        6.18127383       3.57578132       3.48435756       0.00530537      -0.00644085      -0.00679398
C        5.00979844       5.75957936       3.46633995       0.00503090       0.00440614       0.01006927
C        3.73814254       7.78601246       3.71459787      -0.00412410       0.00939124       0.00718747
C        2.46923088       9.95021854       3.76751503       0.00231778       0.00151137      -0.00671747
C        9.85118850       1.40476386       3.82917544      -0.00682791       0.00119861       0.00535847
C        8.62311919       3.55216566       3.81197411       0.00354301       0.00608639      -0.00108555
C        7.42837265       5.70468059       3.77132786       0.00112810      -0.00274769      -0.00650268
C        6.19935477       7.85521824       3.79437711      -0.00345893      -0.00049220      -0.00447938
C        4.93398691       9.95597361       3.82027905       0.00204512      -0.00313803      -0.00652588
Cu       2.51508202       5.08783068       3.67478838      -0.00800744       0.00634819      -0.00104520
