50
Lattice="12.336457 0.0 0.0 -6.168228499999997 10.683685154694365 0.0 0.0 0.0 15.0" Properties=species:S:1:pos:R:3:forces:R:3 energy=-438.4082158506183 free_energy=-438.4082158506183 stress="-0.003679148738850511 -0.0014952401989901333 2.406977335778298e-05 -0.0014952401989901333 -0.004527806525338726 -2.2120601899886926e-07 2.406977335778298e-05 -2.2120601899886926e-07 -1.4562841661228345e-05" pbc="T T T"
C       -0.00293388       0.00819642       3.61323756       0.00559687       0.00365337      -0.00671920
C       -1.25489161       2.12796122       3.68091965      -0.01041139       0.00317963       0.00165280
C       -2.49365799       4.27471463       3.71449924       0.00171094      -0.00911654       0.00668814
C       -3.70422611       6.41589732       3.66433597       0.00783957       0.00657220      -0.00027672
C       -4.93838828       8.55100249       3.56121072      -0.00097420       0.00467443       0.00578115
C        2.46401230       0.00817275       3.76210866       0.01304465      -0.01029836       0.00452128
C        1.21672021       2.12971238       3.85437449      -0.00326849      -0.00271849      -0.00029289
C       -0.06170159       4.22806025       3.93824144      -0.00306026       0.00294465       0.00504871
C       -1.24775010       6.40659462       3.90941475       0.00887768      -0.00207747      -0.00139831
C       -2.46250466       8.54865759       3.78763307       0.00396299      -0.00109086      -0.00131923
C        4.92981060       0.00858000       3.82288470      -0.00378066      -0.00190931      -0.00779139
C        3.68894327       2.16344132       3.88433411       0.00392444       0.00688554      -0.00483238
B        2.41627884       4.35565563       4.29384714      -0.00630117      -0.00868970      -0.01333432
P        1.52204485       6.23736648       4.44729922      -0.01326522      -0.00408548      -0.00943621
C        0.01503629       8.54578146       3.88628698      -0.00582992       0.00065123      -0.00152434
C        7.38954114       0.01753627       3.72685718       0.00298565      -0.00112973      -0.00042593
C        6.15793831       2.14334009       3.76497560       0.00457461       0.00110055      -0.00383875
C        4.93398062       4.28051538       3.66464261      -0.00550637       0.01359635      -0.00630653
S        3.56761925       6.33109399       2.57645743       0.01717693      -0.00294825      -0.00059194
C        2.47672171       8.59478590       3.57954225       0.00416119      -0.00739737      -0.00086919
C        9.86559263       0.01786828       3.57106310       0.00419273       0.00861451      -0.00401920
C        8.61950931       2.14397385       3.66291534       0.00038513       0.00519198       0.00731870
C        7.39199790       4.28168837       3.64160298      -0.00056326      -0.00237701       0.00163146
C        6.16909847       6.41857289       3.41262940      -0.01089474      -0.00310583      -0.00396658
C        4.93841848       8.56417081       3.36645542      -0.00425305      -0.00695056      -0.00979407
C       -0.01566748       1.42078032       3.70960799      -0.01055665       0.00129899       0.00668484
C       -1.28257656       3.54043756       3.75585320      -0.00041130      -0.00009645       0.00267069
C       -2.48244142       5.69922371       3.76222339       0.00830387      -0.00637920       0.01052729
C       -3.69950795       7.84080045       3.67014858       0.00374505       0.01103726       0.00262165
C       -4.93546937       9.97889826       3.64021385       0.00813275       0.00133475       0.00752670
C        2.46050126       1.43011370       3.85318715       0.00583460      -0.00612257      -0.00283010
C        1.16665529       3.53357842       4.00315873      -0.00873462      -0.00132842       0.00979763
C       -0.06931295       5.63485902       4.05741205       0.00066193      -0.00459889       0.00767401
C       -1.22751228       7.83563131       3.88888875      -0.00102359      -0.00366868      -0.00406904
C       -2.46979888       9.97623839       3.79538553       0.00629201      -0.00956284       0.00815633
C        4.92538115       1.43514175       3.82342515       0.00261964      -0.00058753       0.00739592
C        3.70596984       3.60082228       3.91323930       0.00194530       0.01498262       0.00295171
C        1.28693638       7.87482111       3.87355608       0.00015231       0.01214909      -0.01243467
C       -0.00281424       9.97821046       3.81165497      -0.00405907       0.00105699      -0.00132949
C        7.38802454       1.43557027       3.71624576       0.00633204       0.00018322       0.00125719
C        6.16833809       3.56545308       3.69702009      -0.00442230       0.00542182      -0.00578852
C        4.98119163       5.65821852       3.31269981      -0.00953275      -0.00493335      -0.00997097
C        3.68833995       7.92521697       3.25224514      -0.00217095      -0.00558612      -0.00091449
C        2.46198079      10.01030627       3.61738373       0.00807202      -0.00169406       0.00041707
C        9.85308373       1.43153630       3.62796811      -0.00513868       0.00907521       0.00020995
C        8.61751702       3.56545648       3.66607604       0.00129961      -0.00167966       0.00581958
C        7.40026573       5.70452301       3.57775103      -0.00386154       0.00348761      -0.00184470
C        6.16919651       7.84331616       3.40092492      -0.00658145      -0.00548769       0.00020885
C        4.93324209       9.98988119       3.51419187       0.00351174      -0.00089431      -0.00375544
Cu       2.69954634       5.46233058       5.98242903      -0.01073464      -0.00057726       0.01311296
