49
Lattice="12.336457 0.0 0.0 -6.168228499999997 10.683685154694365 0.0 0.0 0.0 15.0" Properties=species:S:1:pos:R:3:forces:R:3 energy=-429.29126171002827 free_energy=-429.29126171002827 stress="-0.005263423809928039 -0.0006139111819049157 7.436457190108815e-06 -0.0006139111819049157 -0.008273673547524316 6.514191213599827e-06 7.436457190108815e-06 6.514191213599827e-06 -5.661252077604131e-07" pbc="T T T"
C       -0.00450152       0.00774468       4.02536528       0.00248383      -0.00666366       0.00108261
C       -1.24688686       2.13694020       4.01132520      -0.01019229      -0.00832512       0.00605906
C       -2.48074822       4.27566315       3.87220210      -0.00323640       0.00064237      -0.00078944
C       -3.70244551       6.40985453       3.81593991      -0.00168871       0.00766752      -0.00058010
C       -4.93773554       8.54522139       3.92211605      -0.00107615      -0.00190724       0.00403769
C        2.46165027      -0.01432906       3.87017367      -0.00394313       0.00158574       0.00216141
C        1.22592952       2.14306182       3.83206513      -0.00199259      -0.00090933       0.00442699
C       -0.02605825       4.24054955       3.74394702       0.00347670      -0.00109039       0.00120591
C       -1.23578346       6.40512940       3.66399931      -0.00471601      -0.00106913      -0.00131181
C       -2.46528918       8.53830978       3.81096910      -0.00007260      -0.00011228       0.00010002
C        4.92932898      -0.00489349       3.77914695      -0.00097183      -0.00296502       0.00138107
C        3.68159840       2.04289400       3.41030513       0.00771466       0.00102089      -0.00344792
P        1.46764809       6.34348343       2.88117898       0.00744979      -0.00108310      -0.00003173
C       -0.00344451       8.56046444       3.71786657       0.00598425      -0.00483458      -0.00279652
C        7.38482198       0.02631948       3.92476202       0.00333709      -0.00128675      -0.00115528
C        6.16583854       2.13536641       3.63431980       0.01030750       0.00049436       0.00072674
C        5.01831246       4.29576899       3.24779385       0.00020925       0.00293212      -0.00227432
B        3.63251608       6.42446433       3.62480818       0.00131902       0.00066057       0.00739812
C        2.46200469       8.61601590       3.87273553      -0.00345564       0.00639262      -0.00071387
C        9.86310579       0.02462392       4.07023639       0.00068664      -0.00517306       0.00446865
C        8.62053085       2.14918672       3.93836441      -0.00015078      -0.00348641       0.00297138
C        7.40514018       4.27907731       3.72409794       0.00048050       0.00163197      -0.00581675
C        6.17157518       6.42348108       3.71188579       0.00383771       0.00427733       0.00807223
C        4.93808512       8.56649266       3.95787606      -0.00716512       0.00396217      -0.00764322
C       -0.01109887       1.42770651       3.99018474      -0.00668301      -0.00705320      -0.00760983
C       -1.26282124       3.54862673       3.90755260      -0.00216693      -0.00423861      -0.00204487
C       -2.47448916       5.69649222       3.79307097      -0.00644102       0.00315995      -0.00245431
C       -3.70301980       7.83258648       3.85195174      -0.00021795       0.00431882       0.00444451
C       -4.93979040       9.96705101       3.96498892       0.00027944      -0.00517372      -0.00187497
C        2.45890487       1.39759188       3.72690955       0.00239432       0.00444680      -0.00067832
C        1.18605445       3.53689592       3.77274459       0.00791276       0.00068858       0.00382908
C       -0.05254732       5.64898209       3.51352740      -0.00421826      -0.00184982      -0.00086417
C       -1.23420447       7.83466712       3.70181920       0.00194896      -0.00174816       0.00556907
C       -2.47044509       9.96108622       3.82706991      -0.00578430      -0.00071185       0.00283302
C        4.93403476       1.40937135       3.60670470       0.00802884       0.00203120       0.00948520
P        3.62166926       3.52754106       2.46438107      -0.00582528       0.00305193      -0.00168065
C        1.25353669       7.92586313       3.60978120       0.00592955       0.00056427      -0.00727316
C       -0.00744114       9.98466373       3.83215265       0.00233635      -0.00329553       0.00474597
C        7.38483454       1.44331898       3.85808176       0.00740563      -0.00293532      -0.00452185
C        6.19128620       3.55391348       3.52315420      -0.00050923       0.00135235      -0.00327462
C        4.95980609       5.69970723       3.48375123       0.00387737       0.00091751       0.00550193
C        3.68990290       7.89711165       3.86047615      -0.00805249       0.00752860      -0.01506871
C        2.45341860      10.02089320       4.01295105       0.00092387       0.00261952       0.00067031
C        9.85306833       1.43878189       4.04128045      -0.00793896      -0.00960068       0.00284925
C        8.62339289       3.56862924       3.86586921      -0.00159156      -0.00231555       0.00080151
C        7.40252704       5.70342268       3.75675673       0.00407584       0.00411683      -0.00311254
C        6.16638839       7.83992878       3.88138128      -0.00387364       0.00515913      -0.00080161
C        4.93229091       9.98922854       4.05378147       0.00082801      -0.00077602      -0.00233221
Cu       2.59694183       4.75359741       3.99091641      -0.00126398       0.00738138      -0.00466897
