49
Lattice="12.336457 0.0 0.0 -6.168228499999997 10.683685154694365 0.0 0.0 0.0 15.0" Properties=species:S:1:pos:R:3:forces:R:3 energy=-434.8342253493113 free_energy=-434.8342253493113 stress="-0.008703987936155668 -0.0024381689547662514 8.712880607013794e-07 -0.0024381689547662514 -0.002716707725113801 -1.9076524190468913e-07 8.712880607013794e-07 -1.9076524190468913e-07 1.231412761150808e-06" pbc="T T T"
C       -0.00144859       0.00730285       3.74857535       0.00108900       0.00351927       0.00628664
C       -1.25563145       2.11144589       3.73925743      -0.00272087      -0.00680610       0.00026795
C       -2.48394471       4.26178680       3.72742516      -0.00332817      -0.00636530      -0.00000612
C       -3.69533833       6.41656672       3.73608729       0.01582439      -0.00157376      -0.00627879
C       -4.91943192       8.56477807       3.74826967      -0.00404514       0.00886215      -0.00690462
C        2.45932090       0.01879082       3.75170082      -0.00283001       0.00287249      -0.00575642
C        1.20617791       2.18581321       3.76419219      -0.00162514       0.00062720      -0.00713676
C       -0.04503795       4.20741919       3.74542680       0.01083163       0.00460341      -0.00345003
C       -1.25370452       6.40371053       3.73162438       0.00404220      -0.00529582       0.00923536
C       -2.46259676       8.55538664       3.73597627      -0.00000933      -0.00960679       0.00645865
C        4.93569548      -0.00096456       3.74280703      -0.00257124       0.00630791       0.01504377
C        3.68421626       2.11955998       3.77788544      -0.00815551       0.00323583      -0.00521306
B        1.17659731       6.38880589       3.77758102       0.00144066      -0.00021948       0.00275983
C       -0.00379391       8.54259525       3.74615685       0.00511466      -0.01474727       0.00750546
C        7.40310182      -0.01545705       3.74665145       0.00157601       0.00892570       0.00903893
C        6.16412858       2.13471979       3.75422100       0.00085271       0.00726998       0.00246987
C        4.99872828       4.32683930       3.77995898      -0.00810815       0.00210592      -0.00423581
N        3.78821022       6.41538781       3.78940348      -0.01277756      -0.00339515       0.00028817
C        2.48999185       8.52184975       3.76889488       0.00466326      -0.00068043      -0.00357006
C        9.86625257      -0.02042000       3.75034127       0.00359040      -0.00590045       0.00274669
C        8.62599714       2.12130127       3.74227518       0.00375339       0.00443040      -0.01324211
C        7.41705177       4.27625812       3.74228115      -0.01211010       0.00162403       0.01009516
C        6.20659394       6.44654439       3.75890893      -0.00144723      -0.00070947      -0.00174703
C        4.94946395       8.53594112       3.76254130      -0.00052245       0.00562390       0.00214055
C       -0.01548633       1.43045711       3.74832156      -0.00055912      -0.00493615       0.00731763
C       -1.27277056       3.51992541       3.73138096       0.00561013      -0.00180064       0.00451915
C       -2.48326140       5.69032732       3.72634606       0.01219809      -0.00598949       0.00699824
C       -3.69232540       7.84495967       3.74142506      -0.00180573      -0.00293192      -0.01684808
C       -4.93260827       9.98677494       3.74840669      -0.00020086       0.00522857       0.00534904
C        2.44373706       1.44463270       3.76776757      -0.00598722      -0.00006508      -0.00859875
N        1.14605404       3.55151588       3.76979132       0.00514021      -0.00461839       0.00515353
C       -0.06467110       5.63942183       3.74525307       0.00505359       0.00505994       0.00171636
C       -1.23058662       7.83183895       3.73657394       0.00357684      -0.01126051      -0.00160962
C       -2.46945654       9.98174992       3.74135333      -0.00270119      -0.00284168       0.01042535
C        4.93728824       1.42392484       3.75828979      -0.00238101       0.01490112       0.00234954
B        3.75703598       3.57779935       3.80032878      -0.00316122      -0.00179058       0.00272618
C        1.24930345       7.84708326       3.76572040       0.01146243      -0.00634361      -0.00430056
C       -0.00205400       9.96743253       3.74291898      -0.00018195      -0.00408794       0.00035608
C        7.39607003       1.41097632       3.74637205       0.00530992       0.01048778      -0.00115161
C        6.18769113       3.56287282       3.75837601      -0.00809628      -0.00043288       0.00045000
C        4.97909042       5.75888206       3.77748719      -0.01043333       0.00090892      -0.00133325
C        3.72775894       7.78094456       3.77718490       0.00034446      -0.00554767      -0.01348903
C        2.47435670       9.94757271       3.75503914       0.00242701       0.00010124      -0.00046819
C        9.85336550       1.40150602       3.74281378      -0.00089449      -0.00510679      -0.00558943
C        8.62898097       3.54976457       3.73476227      -0.01132775       0.00380140       0.00094084
C        7.41763451       5.70473770       3.74446241       0.00549564       0.00277805      -0.00138727
C        6.18969884       7.85497187       3.75593953      -0.00430760       0.00560659       0.00528589
C        4.93503915       9.95880357       3.75262213       0.00303881       0.00659597       0.00375681
Cu       2.46690872       4.98371144       3.81733932      -0.00014677      -0.00242441      -0.01936505
