50
Lattice="12.336457 0.0 0.0 -6.168228499999997 10.683685154694365 0.0 0.0 0.0 15.0" Properties=species:S:1:pos:R:3:forces:R:3 energy=-444.91477943864777 free_energy=-444.91477943864777 stress="-0.0046880065232239995 -0.00222490672002807 -8.250053996945636e-06 -0.00222490672002807 -0.002117628140741506 -7.148071610799093e-07 -8.250053996945636e-06 -7.148071610799093e-07 5.61650691537342e-06" pbc="T T T"
C       -0.00067468      -0.00409366       3.56119043       0.00139948       0.00112135       0.00036929
C       -1.25654003       2.11461690       3.56408069      -0.00559882       0.00679725      -0.00520220
C       -2.49567690       4.26207009       3.56245431      -0.01189297      -0.00609829       0.00527474
C       -3.70338165       6.40870854       3.56140805       0.00614099       0.00484246       0.00057532
C       -4.92189585       8.55275118       3.56223879       0.00522690      -0.00090677      -0.00139047
C        2.47270488       0.00707125       3.63742674      -0.00760966      -0.00182541      -0.00390761
C        1.21728574       2.12523383       3.72374815       0.00355674      -0.00600392       0.00734131
C       -0.05964692       4.23771076       3.79990616       0.01093971       0.00199403       0.00145571
C       -1.25015247       6.39971799       3.72429238      -0.00366550      -0.00066919       0.00261166
C       -2.45743447       8.54539106       3.63680091      -0.00134906      -0.00067026       0.00078065
C        4.93696964      -0.00022931       3.68981834      -0.01113038      -0.00892497      -0.00599991
C        3.69620645       2.14469906       3.79970012       0.00075694       0.00390014       0.00020116
B        2.41568510       4.26053030       4.24729439       0.00377887       0.00842038       0.01278398
B        1.19882627       6.36987737       4.24778938      -0.00196744      -0.00135897       0.00344056
C        0.00586817       8.53635055       3.79916231       0.00406278       0.00206657       0.00489331
C        7.40008209      -0.01053395       3.67654934       0.00364606       0.00704305      -0.00201711
C        6.15983143       2.13785145       3.67636421       0.00107735       0.00084056      -0.00011577
C        4.93540214       4.29543535       3.86214480       0.00189016       0.00065218      -0.00483192
N        3.84489120       6.49147934       4.18270421      -0.01683071      -0.00738632      -0.00271953
C        2.48816152       8.53449109       3.86195731       0.00222675      -0.00593004      -0.00620958
C        9.86429267      -0.01490292       3.59586609      -0.00325629       0.00261929       0.00887283
C        8.61948662       2.12593811       3.56462383      -0.00180826      -0.00553353      -0.00991498
C        7.38789812       4.27378568       3.59599632       0.00548648       0.00018879       0.00713609
C        6.17946369       6.42603083       3.65658725      -0.00088002      -0.00246788       0.00065491
C        4.95513262       8.54587273       3.65685177       0.00329891       0.00573364      -0.00103492
C       -0.01475967       1.41111004       3.59350657      -0.00324234       0.00104519       0.00428555
C       -1.27697034       3.53418044       3.60720057      -0.00194904       0.00777293       0.00441874
C       -2.48444002       5.68934195       3.59426251      -0.00345176      -0.00548250      -0.00383948
C       -3.69140591       7.83552681       3.57603038       0.00537650       0.00227606       0.00002647
C       -4.92717145       9.97705032       3.57630637      -0.00085355      -0.00357871      -0.00114343
C        2.46443813       1.43076981       3.72844323       0.00236849      -0.00377405       0.00445938
C        1.16005975       3.52862122       3.89161169       0.01549519       0.00040619      -0.00790719
C       -0.06289791       5.64882855       3.89048393       0.00235756       0.00312076      -0.00057379
C       -1.22846976       7.82681740       3.72847048       0.00066006       0.00219265       0.00285974
C       -2.46232187       9.97255739       3.65510520      -0.01381049      -0.00517715      -0.01095062
C        4.93169022       1.42536665       3.71461117      -0.00232855      -0.00435192       0.00559362
C        3.72451205       3.56870856       3.95345682       0.00087279       0.00957698       0.00491761
C        1.25348549       7.84921754       3.95277736       0.00425287      -0.00792170       0.00850170
C        0.00057324       9.96592454       3.71531458       0.00142709       0.00406574      -0.00133771
C        7.39098016       1.41641018       3.62571919       0.00125111       0.00390612      -0.01093739
C        6.15716951       3.57073276       3.69437087       0.00719591       0.00030036       0.00085419
C        4.95297328       5.74142612       3.88721857      -0.01204467      -0.00253047      -0.01327458
C        3.74887910       7.82612331       3.88746861      -0.00012021      -0.00457553      -0.01567744
C        2.47169228       9.95479233       3.69363866      -0.00042196      -0.00006986       0.00587461
C        9.85103230       1.40647580       3.54977548      -0.00367404       0.00094613       0.00147908
C        8.61267292       3.55220983       3.54864617      -0.00751245      -0.01075568       0.00536797
C        7.39740657       5.69898766       3.58273351       0.00760407       0.00329118       0.00161858
C        6.18311419       7.84161944       3.60708468       0.00396252       0.00163260       0.00795258
C        4.93509771       9.96418068       3.58271063      -0.00035650       0.00798741       0.00201077
Cu       2.59815385       5.77187299       5.42675574       0.00944239       0.00125310      -0.00762645
