49
Lattice="12.336457 0.0 0.0 -6.168228499999997 10.683685154694365 0.0 0.0 0.0 15.0" Properties=species:S:1:pos:R:3:forces:R:3 energy=-428.4153998380135 free_energy=-428.4153998380135 stress="-0.006131372571314584 -0.0012832549975424126 3.2130109702273087e-06 -0.0012832549975424126 -0.005976069666161099 1.4711442870031258e-05 3.2130109702273087e-06 1.4711442870031258e-05 -1.372784189880002e-06" pbc="T T T"
C       -0.00237993      -0.01138555       3.83889656      -0.00668090       0.00671175       0.00225012
C       -1.25703023       2.11645894       4.04059416       0.00453072      -0.00792446       0.00331837
C       -2.49921225       4.26569266       3.92261464      -0.00143753      -0.00201967       0.00769274
C       -3.69791716       6.40954554       3.71914765       0.00057876      -0.00321116       0.01176187
C       -4.92177483       8.54838784       3.70853909       0.00311369       0.00220843      -0.00687420
C        2.47127096      -0.02232683       3.76017988      -0.00166267      -0.00112011      -0.00164678
C        1.24797938       2.06949707       4.11706304       0.00204189       0.00468614      -0.00273062
C       -0.12860950       4.28162392       4.45269545      -0.00053751       0.00452761       0.00414218
C       -1.27063520       6.41710423       4.00464315       0.00313654       0.00527046       0.00755287
C       -2.46289024       8.54175818       3.78191023       0.00433510      -0.01243050      -0.01445209
C        4.93470381      -0.00570251       3.65438351       0.00783663      -0.00038675       0.00793450
C        3.67494259       2.06114334       3.39545602      -0.00133225       0.00405786      -0.00678324
B        1.20776395       6.41340909       4.09972747      -0.00406881       0.00480663       0.00034737
C       -0.00807087       8.55480174       3.84346959      -0.00724744      -0.00202163       0.00272058
C        7.39943614      -0.00100041       3.67722844       0.00255412       0.00063862       0.00043951
C        6.16375827       2.13235808       3.42874034       0.00269736       0.00551998      -0.00690958
C        5.02505528       4.31793493       3.10257156       0.00522046       0.00278891      -0.00277013
C        3.77170011       6.41383835       3.55227503       0.00150179      -0.00028988       0.00655042
C        2.47744453       8.54777787       3.76109661      -0.01346218       0.00166802       0.00752871
C        9.86877992      -0.00505960       3.76259555      -0.00320011       0.00780835      -0.00145194
C        8.62831454       2.13172959       3.71057502      -0.00522992      -0.00088079       0.00677156
C        7.41429528       4.27576281       3.52879559       0.00000155       0.00091310      -0.00325419
C        6.20873250       6.43515797       3.48801039      -0.00085127      -0.01073836       0.00636185
C        4.95133835       8.54477617       3.66450340       0.00836443       0.00569627      -0.00185212
C       -0.00873847       1.40691733       4.02058462       0.00229178      -0.00156911      -0.00020565
C       -1.29371422       3.53622483       4.16657283       0.00157717      -0.00573410       0.00568531
C       -2.49104649       5.69291880       3.88408838       0.00484592       0.00309769       0.01325594
C       -3.69419830       7.83308096       3.73529802       0.00181427      -0.00537472      -0.00433945
C       -4.93418949       9.96212647       3.78304408      -0.00862239       0.00454408      -0.00275483
C        2.46578976       1.39758590       3.77269492       0.00085589       0.00471626      -0.00317768
P        1.35743152       3.55769875       5.05917734      -0.00064906      -0.01598550      -0.00296417
C       -0.08834231       5.68632279       4.25261223       0.00137924       0.00486971      -0.01748113
C       -1.23631368       7.83447899       3.87528327       0.00220577      -0.00494425      -0.00506780
C       -2.46222129       9.96185751       3.72395387       0.00350983      -0.00835807      -0.01025725
C        4.93088569       1.41822461       3.47959955       0.00431628       0.00597316      -0.00379177
S        3.58720915       3.54838981       2.51529093      -0.00239817       0.00810276      -0.00346678
C        1.24285181       7.87367769       3.89831518      -0.01403789      -0.00285062      -0.00313966
C       -0.00263812       9.97319675       3.71637226       0.00646024      -0.00385307       0.00173524
C        7.39120307       1.42622915       3.59572573      -0.00092174      -0.00071185      -0.01202587
C        6.18464829       3.55979809       3.33150854       0.00451368       0.00422171       0.00916655
C        4.97207352       5.73360667       3.33813689      -0.00048414      -0.00428081      -0.00593966
C        3.70947177       7.80240095       3.66544539      -0.00279073       0.00273727       0.00197550
C        2.47074509       9.97024494       3.72124897      -0.00200025       0.00420867       0.00381308
C        9.86009446       1.41648917       3.83647979      -0.00039823       0.00381724      -0.00085699
C        8.62667116       3.55648068       3.71436578      -0.00540626      -0.00136492       0.00276674
C        7.41859609       5.70125660       3.56119112      -0.00054994      -0.00501854       0.00931015
C        6.18513749       7.84588196       3.62086718       0.00656417      -0.00669873       0.00345459
C        4.93677496       9.96247819       3.75898997      -0.00432218       0.00937897      -0.00037668
Cu       2.55221648       5.08769813       3.91216035       0.00204429      -0.00520202      -0.00196551
