49
Lattice="12.336457 0.0 0.0 -6.168228499999997 10.683685154694365 0.0 0.0 0.0 15.0" Properties=species:S:1:pos:R:3:forces:R:3 energy=-439.71001366869365 free_energy=-439.71001366869365 stress="-0.00958707038155052 0.0005240229761431408 4.2776693879618164e-08 0.0005240229761431408 0.0021411068698383015 6.460337451895925e-07 4.2776693879618164e-08 6.460337451895925e-07 1.2843003238424415e-06" pbc="T T T"
C       -0.00082290       0.01378942       3.75059208       0.00627617       0.00775238       0.00450988
C       -1.25268113       2.11708790       3.74004751      -0.01021742      -0.00290892      -0.00579235
C       -2.49013732       4.26788181       3.72810004      -0.00041100      -0.00280774      -0.00034419
C       -3.70482993       6.42345220       3.73574301      -0.00204672       0.00856593      -0.00401617
C       -4.92495581       8.57879273       3.74846102      -0.00299584       0.00199531       0.00041625
C        2.47135458       0.06006119       3.75698413       0.00294321      -0.00232782      -0.01340555
C        1.23148613       2.20452928       3.76557135       0.00454111       0.00063669      -0.00720752
C       -0.05799376       4.26470420       3.74651324       0.00863286      -0.00427440      -0.00323087
C       -1.27660928       6.43300295       3.73074306      -0.00403624       0.00041416       0.00557802
C       -2.48188713       8.57896122       3.73602218      -0.00574311       0.00536923       0.01276093
C        4.93475162       0.01227122       3.74679911       0.00332383      -0.00120818       0.01485754
C        3.73204792       2.19710083       3.77638987       0.00200238       0.00193153      -0.01036147
C        1.15762207       6.38182596       3.76906891       0.00523153      -0.00500860       0.00214097
C       -0.01655775       8.53595551       3.74726881       0.00063768      -0.00128678       0.00968507
C        7.40749006      -0.03630417       3.74966982      -0.00152805       0.01054217       0.00378387
C        6.18709148       2.11638564       3.75197737       0.00971576      -0.00275554       0.00864428
C        4.98851935       4.24100173       3.77752645      -0.00730925      -0.00633752      -0.00493718
C        3.76906096       6.36784256       3.78793061      -0.00936114      -0.01019563      -0.00064125
C        2.46790253       8.49025931       3.77033619      -0.00236316       0.00025102      -0.00142146
C        9.86399041      -0.03467336       3.75027068      -0.00168749       0.00042128       0.00518356
C        8.63549963       2.11167924       3.73976319       0.00064284       0.00462902      -0.00876444
C        7.41862948       4.26832231       3.74291187       0.00128873       0.00205123       0.00919170
C        6.20069952       6.42351195       3.76070494      -0.00263224      -0.00795836       0.00002005
C        4.94794065       8.53274840       3.76379701       0.00427505      -0.00245959       0.00573145
C       -0.01051232       1.43545437       3.75019077      -0.00289857       0.00486960       0.01144180
C       -1.28010565       3.53825625       3.73305957       0.00118981      -0.00337619       0.00491677
C       -2.48954437       5.70386116       3.72717662      -0.00550990       0.00052094       0.00677063
C       -3.70356260       7.85799164       3.73979118      -0.00428623       0.00564444      -0.00797109
C       -4.92758546      10.00642066       3.75076200       0.00440853      -0.00086035       0.01155521
C        2.48146324       1.49015982       3.77032542       0.00378401      -0.00343075      -0.00860522
C        1.14353463       3.58869479       3.76954000       0.00936967      -0.00248110       0.00682421
C       -0.05020696       5.71127395       3.74573927       0.00407718      -0.00097182      -0.00012343
C       -1.25632230       7.85366010       3.73567179      -0.00435896       0.00486086      -0.00230747
C       -2.47381048      10.00569297       3.74591565       0.00133346       0.00116258       0.00319067
C        4.94856976       1.43583007       3.75789326       0.00731727       0.00003982       0.00580275
N        3.81767836       3.56436366       3.79250707      -0.01375263       0.00167316      -0.00379927
C        1.22528428       7.77466017       3.76505009       0.00161106      -0.00530820      -0.01304467
C       -0.00277630       9.95501748       3.74690485       0.00231510       0.00106192      -0.00007479
C        7.41053100       1.39177930       3.74570463       0.00856658       0.00452919      -0.00086057
C        6.20550974       3.53643073       3.75754386       0.00007973      -0.00236207      -0.00531740
C        4.96943505       5.69329835       3.77728814      -0.00642118      -0.00791626       0.00180327
C        3.70744718       7.76642774       3.77750663      -0.00170348      -0.00953418      -0.00975237
C        2.46771884       9.91678708       3.75767499      -0.00548099       0.00622174      -0.00842823
C        9.85795352       1.39103981       3.74055288      -0.00889931       0.00080852       0.00564111
C        8.63318880       3.54560105       3.73379935       0.00053289       0.00140990       0.00177505
C        7.41499382       5.70063256       3.74603486      -0.00006839       0.00227449      -0.00573245
C        6.18457838       7.84884265       3.75797468       0.00083666      -0.00533809      -0.00222806
C        4.93692241       9.95441661       3.75365980       0.00431034       0.00480440       0.00393049
Cu       2.45939941       4.96176613       3.80325977       0.00446790       0.00666657      -0.01778805
