49
Lattice="12.336457 0.0 0.0 -6.168228499999997 10.683685154694365 0.0 0.0 0.0 15.0" Properties=species:S:1:pos:R:3:forces:R:3 energy=-429.43740325365474 free_energy=-429.43740325365474 stress="-0.006763971423637533 -6.891750013261237e-05 -1.031889081734626e-05 -6.891750013261237e-05 -0.0011519103813361004 8.072529530923247e-06 -1.031889081734626e-05 8.072529530923247e-06 5.8257896018192105e-06" pbc="T T T"
C       -0.00250228       0.00992641       3.91011526      -0.00333663       0.00612162       0.00867773
C       -1.24976063       2.12025130       4.03352343       0.00204294       0.00703675       0.00102009
C       -2.48128949       4.26994239       4.11082632       0.00511058      -0.00242013      -0.01437612
C       -3.70097148       6.42077908       4.06150847       0.00396039      -0.01024426      -0.00551644
C       -4.93793912       8.55869693       3.89110003      -0.00768866       0.00204098      -0.00171065
C        2.46673763       0.03483576       3.87176598       0.00345018       0.00072751       0.00382602
C        1.21591460       2.17311705       3.74984273      -0.00781484       0.00225984      -0.00178221
C       -0.07596433       4.24110217       3.62241812      -0.00340726       0.00055601       0.01250313
C       -1.27551316       6.41317607       3.73800989       0.01037362       0.00383034       0.01053112
C       -2.46401373       8.55839418       3.88220376       0.00641936       0.00088156      -0.00138864
C        4.93626504       0.00989193       3.91349783       0.00413117       0.00629608       0.00990320
C        3.71651333       2.17428696       3.77265000       0.00419669      -0.01228391      -0.01355727
S        1.03875874       6.41812385       2.39807878      -0.01715277       0.00110605      -0.00630889
C       -0.00924746       8.55656036       3.62168406      -0.00058753       0.00204883       0.00375925
C        7.40613712      -0.01471595       3.94323796      -0.01031693      -0.01143187      -0.00340424
C        6.18287119       2.11991905       4.05512701      -0.00321400       0.00745968       0.00066785
C        5.00482802       4.24310910       3.67078898       0.00667590       0.00647052      -0.00684597
S        3.90768395       6.41253405       2.41578342       0.00483953       0.01008205       0.00963655
C        2.46764592       8.57313654       3.41774431       0.00167113      -0.00702417       0.00179686
C        9.86412553      -0.01488131       3.94294918       0.00698065      -0.00381770       0.00191540
C        8.63551728       2.11983000       4.16087565      -0.00360930      -0.00634670       0.00509152
C        7.41490575       4.26988289       4.13069807      -0.00297001       0.00105891      -0.00435301
C        6.20721725       6.41412951       3.77309275      -0.00422438       0.00373262       0.00622009
C        4.94306435       8.55583629       3.63565432      -0.00067645      -0.00173279      -0.00317243
C       -0.01932807       1.42807110       3.91684935      -0.00633570       0.00529168       0.00559716
C       -1.27603233       3.53938094       3.98529152       0.00241692       0.00109618      -0.00599046
C       -2.48311614       5.69759427       4.02638195       0.01263116      -0.00327360      -0.00103558
C       -3.70083734       7.84514834       3.95825055      -0.00084014      -0.00501241      -0.01063503
C       -4.93282532       9.99112628       3.88631597      -0.00290508       0.00624737       0.00763867
C        2.46662918       1.45971909       3.78635376      -0.00554191      -0.00411013      -0.00351580
C        1.11889476       3.54081300       3.51155448      -0.00122855       0.00613582       0.01344880
C       -0.16168962       5.64900674       3.37472469      -0.00054894      -0.00228693       0.00152312
C       -1.24556257       7.84355038       3.72371525       0.00767663       0.00350497      -0.00175235
C       -2.46985785       9.99106626       3.88443681       0.01013655       0.00440643       0.01275560
C        4.95222046       1.42820729       3.93676464       0.00528818       0.00249878      -0.00301383
C        3.81095178       3.54400123       3.54833887       0.01595612      -0.00953399      -0.00677471
C        1.20536241       7.92801003       3.24986249      -0.00079535      -0.00380409       0.00403856
C        0.00091550       9.97287113       3.85432525      -0.00885762      -0.00310087      -0.00029648
C        7.41157589       1.40305199       4.09605459      -0.01129486      -0.00723642       0.00905162
C        6.20779091       3.53956566       4.02051467      -0.00113879       0.00677996      -0.00290015
C        5.09040704       5.64967602       3.42017276       0.00468978       0.00691535      -0.01409699
C        3.73034784       7.92670132       3.25925226       0.00431672      -0.00590511       0.00764251
C        2.46693395       9.96299773       3.80997821       0.00002336      -0.00600087      -0.00405701
C        9.85908548       1.40304066       4.09093765       0.00568426       0.00243305      -0.00995357
C        8.63556367       3.55069263       4.19212642      -0.00010105      -0.00072394       0.00220366
C        7.41673640       5.69788912       4.04841041      -0.00412129      -0.00219421      -0.00705034
C        6.17928042       7.84368373       3.74358470      -0.00896497       0.00003930       0.00228474
C        4.93299187       9.97290143       3.85804389       0.00354669      -0.00274422      -0.00102468
Cu       2.46997097       4.73191813       3.04930212      -0.01454548       0.00417011      -0.00722040
