49
Lattice="12.336457 0.0 0.0 -6.168228499999997 10.683685154694365 0.0 0.0 0.0 15.0" Properties=species:S:1:pos:R:3:forces:R:3 energy=-434.2138055240682 free_energy=-434.2138055240682 stress="-0.005862552378969555 -5.337078327862627e-06 -4.389609951196637e-07 -5.337078327862627e-06 0.0018382229860279605 8.214335321592422e-07 -4.389609951196637e-07 8.214335321592422e-07 1.1116552359296759e-06" pbc="T T T"
C       -0.00699435       0.00658395       3.74705973      -0.00047922      -0.00339313       0.00777963
C       -1.25208559       2.12598651       3.73677996       0.00659472      -0.00303475       0.00409035
C       -2.47738620       4.26893747       3.72394531       0.00336008       0.01359438       0.00548899
C       -3.70114950       6.41183783       3.73462334      -0.00205976       0.01178230      -0.01233563
C       -4.93651152       8.56013429       3.74444774       0.00086058      -0.00335628       0.00203076
C        2.46700321       0.03509315       3.75887966      -0.00320374       0.00773189       0.00317502
C        1.22065104       2.17964475       3.77616679      -0.00212283      -0.00137362       0.00001420
C       -0.02085000       4.29106074       3.74742868       0.00073300      -0.01176824       0.00917473
C       -1.25115357       6.42262604       3.72486045      -0.00568192      -0.00046934       0.00113334
C       -2.46610748       8.56008262       3.73803065       0.00116988      -0.00081270      -0.00706419
C        4.94054313       0.00687508       3.74843072       0.00392635      -0.00493437       0.00312446
C        3.71283091       2.17996487       3.78726477       0.00368368      -0.00376841      -0.00268871
O        1.12370274       6.43047738       3.76430421      -0.01278031      -0.00533678      -0.00046282
C        0.00236237       8.53023124       3.73981723      -0.00405409       0.00871204       0.00194546
C        7.41286731      -0.03484810       3.74649314       0.00325019      -0.00895189      -0.00887772
C        6.18566843       2.12619693       3.74860350      -0.00393316      -0.00322346       0.00449649
C        4.95488281       4.29093873       3.77848980      -0.00294035      -0.00712487       0.00064919
O        3.81083797       6.43074046       3.80141828       0.00630845      -0.00548342      -0.00189313
C        2.46689519       8.45623780       3.76082080       0.00069621       0.00563110      -0.00801940
C        9.85714442      -0.03514423       3.74449979      -0.00234376      -0.00454313      -0.00183350
C        8.63511275       2.11809341       3.73398169      -0.00210026      -0.00448679      -0.00184394
C        7.41123029       4.26924579       3.73694453      -0.00287894       0.00809776      -0.00201452
C        6.18509263       6.42256734       3.75000520       0.00902793       0.00044415       0.00518538
C        4.93151651       8.53005387       3.75046164       0.00204790       0.00790555       0.00266902
C       -0.02028324       1.42696674       3.75148704       0.00302358      -0.00515075       0.00112541
C       -1.26065135       3.55309563       3.73013240       0.00058619      -0.00077367      -0.00326885
C       -2.47805983       5.69305003       3.72598094      -0.00765295       0.01550568      -0.00349024
C       -3.70128468       7.84392600       3.73931653       0.00058991       0.00192853      -0.00376954
C       -4.93293977       9.99204991       3.75047639      -0.00288381      -0.00219501      -0.00253377
C        2.46685970       1.46072225       3.78037939      -0.00164225       0.00783454      -0.00952810
C        1.15447578       3.56537973       3.79307633       0.00474966      -0.00537998      -0.00847730
C       -0.06570444       5.71355151       3.73746142      -0.01216250      -0.01336570       0.00542259
C       -1.24633298       7.84436388       3.73031084      -0.00036119      -0.00064982       0.01092305
C       -2.46963312       9.99195793       3.74796141      -0.00043447       0.00219671       0.00732333
C        4.95371328       1.42730717       3.76051829       0.00142539      -0.00658139       0.00495672
C        3.77905136       3.56557485       3.81453653      -0.00542791      -0.00750277      -0.01254974
C        1.19682207       7.82831897       3.75537368      -0.00587264       0.00709291      -0.00186837
C        0.00603508       9.96116606       3.74239128       0.00371077       0.00505558       0.01151285
C        7.41353283       1.40004820       3.74132894      -0.00578366      -0.01019506       0.00043922
C        6.19456648       3.55327820       3.75003796      -0.00181922      -0.00152190       0.00627899
C        4.99989911       5.71338458       3.77412983       0.01229654      -0.00839649      -0.00113748
C        3.73710219       7.82823172       3.76534607       0.00430003       0.00455770       0.00561766
C        2.46675868       9.91046990       3.75119596       0.00069883       0.00201709      -0.00848708
C        9.85657713       1.39980330       3.73648183       0.00424140      -0.00806159      -0.00294719
C        8.63506350       3.54821766       3.72877757       0.00138930       0.00907156       0.00024914
C        7.41206036       5.69331862       3.73927326       0.00794489       0.00932442      -0.00063430
C        6.18024146       7.84421464       3.74797236       0.00046957       0.00302855      -0.00407311
C        4.92752232       9.96085030       3.74418160      -0.00071003       0.00696679       0.00808154
Cu       2.46589790       4.87568339       3.89283411       0.00224396       0.00335609      -0.00308891
