49
Lattice="12.336457 0.0 0.0 -6.168228499999997 10.683685154694365 0.0 0.0 0.0 15.0" Properties=species:S:1:pos:R:3:forces:R:3 energy=-431.811796924349 free_energy=-431.811796924349 stress="-0.005492912416594533 -0.0017674283829421636 -8.034079621181553e-06 -0.0017674283829421636 0.0008092906628033903 9.610438536045347e-06 -8.034079621181553e-06 9.610438536045347e-06 9.33195942763741e-07" pbc="T T T"
C       -0.00270339       0.00903511       3.85817026       0.00412668       0.00712388      -0.00313412
C       -1.25848665       2.11706184       3.90048345       0.00197177       0.00086085       0.00265674
C       -2.48992760       4.26089097       3.95849579       0.00699728      -0.00435641       0.01234966
C       -3.69808378       6.41332737       3.95799294      -0.00776608      -0.00120680      -0.00531424
C       -4.92828858       8.56272167       3.90805859       0.00276581       0.00405039       0.01455388
C        2.47031231       0.01658556       3.77960450      -0.00477567      -0.00504061       0.00087279
C        1.22586658       2.17608936       3.73160031      -0.00847391      -0.00044133       0.00730919
C       -0.02994675       4.24944834       3.92856671       0.00411570      -0.00910730      -0.00539138
C       -1.26258963       6.41638610       3.97761739       0.00434940       0.00006914       0.00048666
C       -2.47014265       8.55667738       3.90149279       0.00641004       0.00335172       0.00368488
C        4.93768453      -0.00896630       3.70297886      -0.00238558      -0.00191816       0.00393100
C        3.69091601       2.06891303       3.29591633      -0.00460887      -0.01016759       0.00026101
C        1.15892966       6.38600381       3.83894634      -0.00520746       0.00172166      -0.00094680
C        0.00162227       8.52343271       3.84195988       0.00362800       0.00368735      -0.00232465
C        7.40422303      -0.02960218       3.74781213      -0.00447015      -0.00923675       0.00158495
C        6.16362400       2.13503624       3.56264247       0.00738653       0.00396470       0.00594228
C        5.03425478       4.36320799       3.30395054      -0.00453977       0.01056396      -0.00640668
O        3.83017602       6.46414181       3.46296101      -0.00421761      -0.00700533       0.01621916
C        2.49913026       8.48288000       3.76090725       0.00065518      -0.00139698       0.00269098
C        9.85875651      -0.02871234       3.83066882       0.00264489       0.00673844      -0.00942911
C        8.61983605       2.11976796       3.82251607       0.00099450      -0.00485489       0.00139384
C        7.40263378       4.27541796       3.79892768      -0.00146137      -0.00484563      -0.00139071
C        6.20569566       6.43615583       3.79688237      -0.00037031       0.00550996      -0.00779619
C        4.95003959       8.54301712       3.82265431      -0.00443777       0.00064387      -0.01784942
C       -0.01392580       1.43005644       3.84261347      -0.00173162       0.00536804       0.00458292
C       -1.27224774       3.53521292       3.95576582       0.00748661      -0.00560154       0.00035550
C       -2.48069349       5.69257546       3.98216165      -0.00161742       0.00033686       0.00591414
C       -3.69491229       7.84354248       3.93805503       0.00244871       0.00390467       0.00648983
C       -4.93014213       9.98970270       3.86593002      -0.00074656       0.00251022       0.00173179
C        2.46803874       1.43620012       3.60788867      -0.00939232      -0.00337638       0.00286779
C        1.15879469       3.55589650       3.79214618      -0.00077101      -0.00038004      -0.00314691
C       -0.03218369       5.69535026       3.94032403       0.00289195      -0.00885623      -0.00375912
C       -1.24018102       7.83605413       3.91718289       0.00811918       0.00272642       0.00560200
C       -2.46633360       9.97887911       3.79762007      -0.00276021      -0.00091148      -0.00500653
C        4.93744744       1.41376259       3.51102307       0.00379314      -0.00123946       0.00683412
S        3.69059535       3.59649699       2.47869800      -0.00281756       0.01528835      -0.00046043
C        1.24163492       7.76679172       3.81456857      -0.00069280       0.00361479      -0.00096569
C        0.00326946       9.94786851       3.76488597      -0.00579677      -0.00243398      -0.00364584
C        7.38621632       1.40913087       3.71596870       0.00258941      -0.00772494      -0.00005781
C        6.18025528       3.57274241       3.56442636      -0.00459680       0.00705860      -0.00577448
C        5.03684192       5.74970038       3.51763848      -0.00121861       0.00410403       0.00512901
C        3.74884904       7.83683403       3.71311182      -0.00320053      -0.00639301      -0.00416596
C        2.47217964       9.92074409       3.78444191       0.00114916       0.00027149      -0.00220722
C        9.84599865       1.40026341       3.86294396       0.00263228       0.00338584       0.00449175
C        8.62248560       3.54821139       3.87684843       0.00469867      -0.00554674       0.00518612
C        7.41833899       5.69583578       3.87508818      -0.00488030      -0.00382983      -0.01246068
C        6.19094017       7.85479209       3.86582513       0.00077805       0.00641215      -0.00549656
C        4.93095862       9.96690216       3.85365915       0.00456343       0.00561174      -0.00831657
Cu       2.36163625       4.99608524       3.62409723       0.00574068      -0.00300773      -0.00767489
