49
Lattice="12.336457 0.0 0.0 -6.168228499999997 10.683685154694365 0.0 0.0 0.0 15.0" Properties=species:S:1:pos:R:3:forces:R:3 energy=-431.7967289245059 free_energy=-431.7967289245059 stress="-0.005268997657512212 0.0017782940099932273 1.3789392381190041e-05 0.0017782940099932273 0.0006306629608908471 4.5375023277023324e-06 1.3789392381190041e-05 4.5375023277023324e-06 -2.987261998220257e-08" pbc="T T T"
C       -0.00847830       0.00743267       3.80906382      -0.00290490      -0.00220902       0.00423457
C       -1.24086421       2.13297447       3.95267216       0.00554904       0.00222736      -0.00126169
C       -2.46575714       4.27460153       3.97622401      -0.00280469       0.00516957       0.00233074
C       -3.70128454       6.41320649       3.83892712      -0.00629630       0.00095746      -0.00450330
C       -4.94986611       8.55215446       3.71521638      -0.01019823       0.00357257      -0.00137460
C        2.45812416       0.03249205       3.79676074       0.01056181       0.00489304      -0.00791900
C        1.22515272       2.18556545       3.81704936      -0.00055953      -0.00364508       0.01103700
C       -0.00582500       4.30047181       3.96350378      -0.00012631      -0.01230782       0.00347887
C       -1.25141488       6.43051282       3.97745003       0.00158783      -0.00138660      -0.00370454
C       -2.47878539       8.56140411       3.86894836      -0.00775858       0.00253566       0.00743430
C        4.93325342       0.00859472       3.85538284       0.00739309      -0.00565065      -0.01270690
C        3.71653427       2.16889439       3.67642779       0.00159703       0.00564778      -0.00562854
O        1.12998137       6.45588226       3.95035634      -0.01261042      -0.00589576      -0.00476888
C       -0.01262075       8.54087459       3.89226056      -0.00215223      -0.00745582      -0.00124841
C        7.40457446      -0.02352194       3.90655533       0.00381224      -0.00712087       0.00285629
C        6.19432080       2.11564480       3.80991411      -0.00984003      -0.00665812       0.00107962
C        5.00599891       4.23087506       3.41697819       0.01000437      -0.00024650       0.00982107
S        3.69833981       6.40862292       2.42328714       0.01182793       0.00567900      -0.00831679
C        2.43575326       8.50284673       3.69140883       0.00846052       0.00351158       0.00870133
C        9.86073681      -0.02349118       3.86622415       0.00368534       0.01160657       0.00035050
C        8.64386680       2.12108895       3.94286569      -0.00328503       0.00854743      -0.00093670
C        7.43180350       4.26303398       3.78445713      -0.00624921      -0.00029568      -0.00468268
C        6.19992768       6.40478765       3.47420774      -0.00208729      -0.00331987       0.00555280
C        4.92052499       8.53984263       3.55725964       0.00483247       0.00243706      -0.00579695
C       -0.01507108       1.43061734       3.87555724       0.00250248      -0.00369367       0.01015960
C       -1.24613711       3.56095016       3.99840169      -0.00267089      -0.00220791      -0.00368375
C       -2.47623106       5.69884812       3.94751117      -0.00189997       0.00460116      -0.00132404
C       -3.71274297       7.84211968       3.80746401      -0.01108767       0.00410802       0.00126459
C       -4.94247810       9.98575304       3.77205904       0.00243410       0.00637894       0.00421146
C        2.46395362       1.46034739       3.75786625       0.00410815       0.00402149       0.00100075
C        1.16795908       3.57807397       3.81592583       0.00042261       0.00179059      -0.01403482
C       -0.05466533       5.72840630       3.98583623       0.00154193      -0.00923081       0.00989977
C       -1.25723197       7.85067752       3.92479772      -0.00815274      -0.00076124       0.01067792
C       -2.47920682       9.99233459       3.83792499       0.00887563       0.00158964      -0.00692465
C        4.95688492       1.42383843       3.78452419      -0.00832912      -0.00513649       0.00004646
C        3.80555373       3.53891424       3.47212389       0.01047001       0.00205506       0.00533301
C        1.18307399       7.84338931       3.80907964      -0.00037059      -0.00239692      -0.01778728
C       -0.00177256       9.96934463       3.88971549       0.00441415      -0.00905570      -0.00212718
C        7.41855701       1.40274886       3.90617355      -0.00446571      -0.00282836       0.00216092
C        6.22589017       3.52957520       3.68733685      -0.00186092      -0.00647708      -0.00305591
C        5.06116478       5.64194722       3.17455357      -0.00172269      -0.00037893       0.01630221
C        3.67938374       7.88144784       3.35458363       0.00812719       0.00957960       0.00141385
C        2.45771666       9.93533757       3.85214782       0.00843866       0.00284393       0.00704158
C        9.86553303       1.40529576       3.94393704       0.00365057       0.01204785       0.00562553
C        8.64832371       3.55033896       3.92434262      -0.00520291       0.00980596      -0.00453303
C        7.42227174       5.68997184       3.71548865      -0.00336120      -0.00223602      -0.00865496
C        6.16578152       7.83529955       3.54700057      -0.00345842      -0.00506948      -0.00466171
C        4.92634058       9.96376604       3.76922394      -0.00253801       0.00056517       0.00010909
Cu       2.47054539       4.83441413       3.43774273      -0.00230355      -0.01050811      -0.00248752
