49
Lattice="12.336457 0.0 0.0 -6.168228499999997 10.683685154694365 0.0 0.0 0.0 15.0" Properties=species:S:1:pos:R:3:forces:R:3 energy=-429.8226615970472 free_energy=-429.8226615970472 stress="-0.00431444696513567 -1.6483282438852092e-06 1.548203212830331e-05 -1.6483282438852092e-06 -0.0017102102930073074 -6.666755089102426e-06 1.548203212830331e-05 -6.666755089102426e-06 1.5498173606868213e-08" pbc="T T T"
C       -0.00436700       0.01333526       3.91145705       0.01163855       0.00142190       0.00255567
C       -1.24761705       2.12760827       4.03854481      -0.00495928      -0.01030607      -0.00398681
C       -2.48204171       4.26829475       4.09314780      -0.00263541      -0.00435122      -0.00435693
C       -3.70567041       6.41354470       3.99366867       0.00012449       0.00307027       0.00165587
C       -4.94684391       8.55287303       3.87198068      -0.00122183       0.00188945      -0.00923776
C        2.46204082       0.01090661       3.86881393       0.00498282       0.00042425       0.00005354
C        1.23145547       2.17973090       3.80485498      -0.00883145      -0.00337742      -0.00752306
C       -0.02073388       4.25832199       4.01555332       0.00857385      -0.00030652       0.01380090
C       -1.26102931       6.42151244       4.09649845      -0.00143512       0.00809434      -0.00244696
C       -2.48240780       8.55448161       4.00655259      -0.01051052      -0.00422153       0.00963685
C        4.93195661      -0.01089184       3.85105512      -0.00656108      -0.00153206      -0.00120123
C        3.70070863       2.04007733       3.35554814      -0.00166212       0.00690386      -0.00423480
C        1.16423660       6.40000159       3.81689587       0.00342393      -0.00409318      -0.00434610
C       -0.00826238       8.52977270       3.94530402       0.00269324      -0.00509798      -0.00087415
C        7.39554853      -0.01563832       3.90352972      -0.00327059       0.00070211       0.00106762
C        6.17512264       2.11839154       3.65964753       0.00561907       0.00382501      -0.00732576
C        5.11296126       4.28431494       3.08097730      -0.01039551      -0.00133918       0.00422952
S        3.72036917       6.49311815       2.39435369      -0.00060952      -0.01562099       0.00135819
C        2.46776669       8.53611980       3.68875921       0.00458702      -0.00461071       0.00121519
C        9.86122499      -0.00966299       3.91633600      -0.00710401       0.00801985       0.00256092
C        8.62624490       2.12669094       3.97393320      -0.00289263       0.00037574       0.00144091
C        7.42007257       4.27011656       3.80984138      -0.00618932      -0.00504443       0.00342537
C        6.21655712       6.42598244       3.53717546       0.01173170      -0.00688455      -0.00105446
C        4.94210065       8.56325531       3.62570321       0.00271210       0.01227701       0.00238837
C       -0.00804230       1.43693018       3.94711016      -0.00199519      -0.00426646      -0.01117247
C       -1.26113744       3.54517347       4.09635237       0.00206838      -0.00876220       0.00364973
C       -2.48221458       5.69872839       4.09241746      -0.00096031       0.00317871      -0.00060696
C       -3.71052750       7.84011010       3.97567226      -0.00802155       0.00064420      -0.01045206
C       -4.94198156       9.98204642       3.90329865       0.01139085       0.00018870      -0.00009984
C        2.46817369       1.42979590       3.68741547      -0.00248973       0.00609580       0.00703426
C        1.16388620       3.56603610       3.81513404       0.00327845       0.00154116       0.00094554
C       -0.02050242       5.70784218       4.01661363       0.00385915       0.00602091       0.00615104
C       -1.24777844       7.83908189       4.03657057      -0.00455957       0.00622889       0.00720242
C       -2.47534080       9.97601561       3.91571573      -0.00481045      -0.00794997       0.00769708
C        4.94273497       1.40254123       3.62683675       0.00192763       0.00420484      -0.00574854
S        3.71940565       3.47430506       2.39636576       0.01954430       0.00301634      -0.00112357
C        1.23087791       7.78656876       3.80550456       0.00370910      -0.00311469      -0.00967470
C       -0.00333666       9.95317069       3.91184289      -0.00479221      -0.00354033      -0.00220902
C        7.39007714       1.41355027       3.87102857       0.00471575       0.00166315      -0.00707871
C        6.21815130       3.54076813       3.53560655      -0.00772994       0.00213573       0.00433277
C        5.11184237       5.68251529       3.08163082       0.00220770      -0.00631365       0.00583426
C        3.69981529       7.92591516       3.35520924       0.00627770      -0.00479680      -0.00233092
C        2.46259471       9.95520198       3.87000324      -0.00374829       0.00039292      -0.00265669
C        9.85421606       1.41221932       4.00603713      -0.00858059       0.00006831       0.01591318
C        8.63127699       3.55341528       3.99472302      -0.00632895      -0.00303472      -0.00972743
C        7.41918314       5.69723844       3.80993334       0.00871300      -0.00628742       0.00630016
C        6.17458119       7.84798547       3.65961630       0.00278509       0.00160239      -0.00357528
C        4.93130508       9.97662270       3.85036980       0.00218540       0.01724097       0.00261072
Cu       2.34074013       4.98251338       3.43357910      -0.00645406       0.01362527      -0.00001586
