49
Lattice="12.336457 0.0 0.0 -6.168228499999997 10.683685154694365 0.0 0.0 0.0 15.0" Properties=species:S:1:pos:R:3:forces:R:3 energy=-431.7446210526251 free_energy=-431.7446210526251 stress="-0.004039544975454668 -0.0010804982330221136 4.179763241057371e-06 -0.0010804982330221136 0.002669452041906129 -1.8217596293270765e-06 4.179763241057371e-06 -1.8217596293270765e-06 -1.7731398389495073e-06" pbc="T T T"
C        0.00348541      -0.00010798       3.72995220      -0.00262992      -0.00469776       0.00552934
C       -1.24606108       2.12108222       3.53896032      -0.00508237       0.01028925       0.00373013
C       -2.49194837       4.26850488       3.73163810       0.00463217       0.01147531      -0.00672007
C       -3.70535246       6.41397268       3.91131910       0.00369417      -0.00285137      -0.00515399
C       -4.92770689       8.55804145       3.91259560      -0.00573976       0.00157916      -0.00380470
C        2.47247253       0.02283921       3.76640345      -0.00350153      -0.00094245       0.00348661
C        1.23391539       2.05928236       3.27321580      -0.00414981      -0.01008671       0.00191220
C       -0.12594583       4.30987512       3.20614001      -0.00389988      -0.00721861      -0.00273384
C       -1.27731968       6.42707397       3.70422180       0.00994405      -0.01220007      -0.00475773
C       -2.46934024       8.56466588       3.86778384       0.00110308      -0.00021920      -0.00433933
C        4.94268736       0.00900232       3.83041031      -0.00982935       0.00691567       0.00297952
C        3.70105839       2.20399480       3.71563108       0.00511739      -0.00586159       0.00972098
C        1.16165089       6.38091145       3.56973756      -0.00610935       0.00733619      -0.00293784
C        0.00577448       8.52749036       3.79984645      -0.00176470      -0.00603953       0.00149478
C        7.41576710      -0.02787340       3.84143730      -0.00377005      -0.00894797       0.00491018
C        6.17608538       2.13400900       3.88566797       0.00204974      -0.00434280       0.00549717
C        4.92475018       4.29937418       3.94148732      -0.00186050      -0.00213167       0.00578367
O        3.81996527       6.45903706       4.08948682       0.00584127       0.00395236      -0.00327276
C        2.50258693       8.48071308       3.84754330       0.00563655       0.00087091       0.00621022
C        9.87096842      -0.02744723       3.79472609       0.00415938       0.00310381      -0.00435267
C        8.63663972       2.12121576       3.81773171       0.00597233       0.00190134      -0.00949034
C        7.40126456       4.26987631       3.94065092       0.00066865      -0.00812836      -0.00365404
C        6.18888332       6.42308516       4.00893531       0.00122229       0.01046273       0.00374852
C        4.95474289       8.54339664       3.92281717      -0.01213771       0.00998959       0.01196359
C       -0.00944804       1.41314641       3.51043257      -0.00921935      -0.00348575      -0.00091109
C       -1.27214623       3.55103496       3.49274250      -0.00450645       0.00814059      -0.00486856
C       -2.48762029       5.69755562       3.79051668       0.00590774       0.00254653      -0.00719968
C       -3.69513383       7.84481936       3.91019551      -0.00141234       0.00054324      -0.00010096
C       -4.92577243       9.98734366       3.80668297      -0.00305596      -0.00062948       0.00519342
C        2.46656419       1.44565433       3.59089748       0.00307492      -0.00377339       0.00048838
S        1.18801745       3.53851521       2.36511053       0.01077824       0.00641304      -0.00067803
C       -0.05161709       5.71397146       3.46960465       0.00530429      -0.01470990      -0.00155832
C       -1.24081421       7.84405499       3.80781025       0.00124200      -0.01156814      -0.00800921
C       -2.46261058       9.98769199       3.83961270      -0.00532005       0.00370492      -0.00456216
C        4.94063059       1.43855476       3.82151038      -0.00003196       0.00188017       0.00800635
C        3.73530386       3.59293545       3.78029248       0.00559556      -0.00265509       0.00384050
C        1.24444662       7.75250209       3.75101153       0.00559884       0.00123450       0.00681025
C        0.00854747       9.95497556       3.83533767      -0.01264143      -0.00293523       0.01430401
C        7.41185951       1.40236253       3.86316417       0.00341421      -0.00367802      -0.01006019
C        6.17734505       3.56106722       3.94405189      -0.00266588      -0.00746372      -0.00561323
C        4.99191188       5.72186916       4.01780230       0.00553768       0.00500121       0.00332930
C        3.74923926       7.83908542       3.93983528       0.00015755       0.00051187      -0.01296275
C        2.48230681       9.92000958       3.83607689       0.00558745      -0.00123210       0.00446225
C        9.87270677       1.40975162       3.72394435       0.00475507       0.00267865       0.00198613
C        8.63054424       3.54954259       3.84630651       0.00810249       0.00305371      -0.01021223
C        7.41171639       5.69356949       3.96614085       0.00273924      -0.00319275       0.00002998
C        6.19041178       7.84720277       3.96422018      -0.01184850       0.01356709       0.00635038
C        4.93814090       9.96530036       3.81939690      -0.00122417       0.00215002       0.00166160
Cu       2.41383957       4.96401724       3.61368280      -0.00543535       0.00968981      -0.00547574
