49
Lattice="12.336457 0.0 0.0 -6.168228499999997 10.683685154694365 0.0 0.0 0.0 15.0" Properties=species:S:1:pos:R:3:forces:R:3 energy=-429.71351204621135 free_energy=-429.71351204621135 stress="0.0006241260483704496 0.0014884717424924116 -1.2481017415735322e-06 0.0014884717424924116 0.003379938300357812 1.3785165694289594e-06 -1.2481017415735322e-06 1.3785165694289594e-06 -7.379127446626902e-08" pbc="T T T"
C       -0.00093048       0.00280358       3.77050342       0.00872484       0.00629549       0.00901991
C       -1.23636647       2.13362315       3.85966474      -0.01077309       0.00636058      -0.00061273
C       -2.46771848       4.27163075       3.88493894       0.00043256       0.00031497      -0.00591940
C       -3.71787400       6.40303112       3.82582183      -0.01160279       0.00230560       0.00444098
C       -4.95116793       8.54176773       3.74168066      -0.00561827      -0.01071773      -0.00587040
C        2.45488678       0.03928524       3.82598680      -0.00662611      -0.00250778       0.00049052
C        1.19951308       2.15054107       3.86251999      -0.00548780      -0.00006530      -0.00543292
C       -0.02578455       4.26001625       3.90273567      -0.00257861       0.00264734       0.00556803
C       -1.24245106       6.39745930       3.87761564       0.00285187       0.00019527      -0.00176938
C       -2.48707553       8.54432195       3.84383856       0.00171712       0.00032399      -0.00310735
C        4.92020844      -0.01276446       3.84461152      -0.00830945      -0.00470778      -0.00274132
C        3.72951084       2.12258467       3.82073089       0.01115512      -0.00341039      -0.00339441
N        1.17754033       6.41379361       3.85214352       0.00858959      -0.00685259       0.01248330
C       -0.01972845       8.51999412       3.80678651       0.00244122       0.00542745       0.00607709
C        7.39449217      -0.02783715       3.80879043       0.00417567       0.00147273       0.01420731
C        6.17282056       2.10841855       3.83200685       0.00808455       0.00389529      -0.00602600
C        4.98209065       4.20225653       3.61433038      -0.00463049       0.00653228      -0.00457712
P        3.75643352       6.38765505       2.34370915      -0.00465957       0.00349843      -0.00106784
C        2.44669416       8.52303762       3.58517614      -0.00620455      -0.00444295       0.01051775
C        9.86100512      -0.01400804       3.74958283       0.01252238       0.00082887      -0.00131893
C        8.63334082       2.12294276       3.85200002       0.00242508      -0.00044125       0.00234514
C        7.40633861       4.26079754       3.81094121       0.00151592      -0.00132538       0.00211473
C        6.15082519       6.38549016       3.62673755      -0.00056695      -0.00397443      -0.00780571
C        4.92987663       8.54824397       3.52989541       0.00131211      -0.00278121       0.00677377
C        0.00626903       1.43929325       3.83757694      -0.00925044       0.00787515      -0.00355506
C       -1.22817575       3.55891197       3.89416666      -0.00140209       0.00387603      -0.00074723
C       -2.47455755       5.69006875       3.87366404      -0.00649435       0.00331520       0.00171109
C       -3.71964319       7.82958571       3.81030448      -0.00152165       0.00030543      -0.00000928
C       -4.93854185       9.98343354       3.77819337      -0.00093565      -0.00896167      -0.00419956
C        2.45886224       1.49118033       3.84219692       0.00388864       0.00113801      -0.00073607
O        1.15075814       3.53666877       3.90167834      -0.00842455      -0.00195863       0.01211212
C        0.00491097       5.68719905       3.88823480       0.00705319      -0.00083728       0.00038049
C       -1.25213876       7.82260329       3.85406520       0.00545378       0.00274141      -0.01168420
C       -2.48848722       9.98245539       3.83922575      -0.01030143      -0.00277049       0.00015217
C        4.92502331       1.41637869       3.83982474       0.01178928      -0.00471722      -0.00891151
O        3.78857391       3.50560078       3.71045909      -0.00336301      -0.00170125      -0.00705630
C        1.20339667       7.77594231       3.73482333      -0.00402995      -0.00599294       0.00994194
C       -0.01121590       9.94629620       3.81946118      -0.00347124       0.00660530       0.00133064
C        7.39561280       1.40186333       3.84145525       0.00592498       0.00171204       0.00587416
C        6.18148809       3.52308673       3.77295338      -0.00361738       0.00633294      -0.00374935
C        4.92475494       5.61251457       3.45662532       0.01493298       0.00426363      -0.01152454
C        3.68361394       7.87868634       3.30883394      -0.00239052       0.00078672       0.00697424
C        2.45485380       9.94390174       3.72951913       0.00634793      -0.00084622       0.00150767
C        9.87293823       1.41620106       3.83129111      -0.00120574       0.00131844      -0.00488433
C        8.63698113       3.55176196       3.86291464       0.00398365      -0.00275058      -0.00174325
C        7.38405345       5.68456673       3.77263171      -0.00721291      -0.00235343      -0.00101467
C        6.15549694       7.81924125       3.61317549      -0.00576463      -0.00827176      -0.00640869
C        4.93057697       9.96845931       3.69182957       0.01507654       0.00263950       0.00745367
Cu       2.76550906       5.42756295       3.97686652      -0.00395578      -0.00061985      -0.00560916
