49
Lattice="12.336457 0.0 0.0 -6.168228499999997 10.683685154694365 0.0 0.0 0.0 15.0" Properties=species:S:1:pos:R:3:forces:R:3 energy=-429.35044854221127 free_energy=-429.35044854221127 stress="-0.0029997402271701207 0.0026585400213734087 2.0588261774786186e-06 0.0026585400213734087 0.003350274115051157 -1.5353951478609019e-06 2.0588261774786186e-06 -1.5353951478609019e-06 9.150497236816074e-07" pbc="T T T"
C       -0.00130449      -0.00717031       3.71858596       0.01052264       0.00656091       0.00210255
C       -1.22872052       2.13633277       3.54635283       0.00465897      -0.00477509      -0.00394826
C       -2.46961055       4.27447792       3.71240105       0.00202736       0.00791525       0.00682393
C       -3.71076539       6.41158767       3.89280027      -0.00698856      -0.00057806       0.00336651
C       -4.94162875       8.55292364       3.89556160      -0.00613199      -0.00516397       0.00507257
C        2.47278216       0.03015412       3.84008596       0.00137942       0.00382260      -0.00002493
C        1.26143018       2.09601284       3.36179890       0.00018095       0.01844695      -0.00768950
C       -0.07509396       4.36428492       3.25079310      -0.00133471       0.00253486      -0.01670307
C       -1.28088788       6.44218886       3.70850021       0.00224779      -0.00205944      -0.00672667
C       -2.47844503       8.55977190       3.90225670       0.00679291      -0.00776371      -0.01260279
C        4.93416626       0.00295008       3.89709847       0.00341040       0.00840460      -0.00434580
C        3.74860445       2.13144968       3.83628409      -0.01365751      -0.00544420       0.00365964
O        1.08806465       6.47980625       3.41701680       0.00307830      -0.00267182       0.00319258
C       -0.01647324       8.54405036       3.82561973       0.00905739       0.00039911      -0.00882709
C        7.41474908      -0.03402863       3.83584676      -0.00258436      -0.00722145      -0.00286456
C        6.19467508       2.11724704       3.91839449      -0.00038669      -0.00496909       0.00101744
C        5.00178849       4.25315793       3.99166467      -0.00225004       0.00239019      -0.00144862
N        3.76805659       6.37778275       3.87643741       0.00585233       0.00123219       0.00399430
C        2.44551871       8.46625293       3.77103252      -0.00198199       0.00014862      -0.00153436
C        9.86782950      -0.03316234       3.73993585      -0.00143258      -0.00308175      -0.00156426
C        8.65254107       2.11936423       3.78906881      -0.00208208       0.00272758       0.00286300
C        7.41817922       4.26531839       3.91456226      -0.00550012       0.00044840       0.00034073
C        6.17711367       6.39846190       3.95220755       0.00509746       0.00154268      -0.00911758
C        4.92587685       8.51245907       3.83317934      -0.00394754      -0.00098173      -0.00119439
C        0.01367291       1.41969780       3.53048309       0.00951630       0.00732060       0.00319347
C       -1.24677452       3.57419862       3.50263043      -0.00014248      -0.00087682      -0.00859288
C       -2.49317975       5.69750183       3.78323129      -0.00281226       0.00836929       0.00254544
C       -3.71229167       7.84051068       3.90948821      -0.00398802      -0.00508827       0.01100621
C       -4.93371522       9.98431824       3.82653464       0.00573138      -0.00447656      -0.00976282
C        2.49861405       1.46198106       3.69921193      -0.01552860       0.00705966       0.00558468
P        1.30123475       3.60620272       2.42744879       0.00059503      -0.01223962       0.01086123
C       -0.11338724       5.75956131       3.43305440      -0.00025242       0.00067971      -0.00033241
C       -1.26228547       7.85433042       3.83133778       0.01237083      -0.00516936      -0.00971029
C       -2.47405933       9.99324327       3.90391391       0.00672514       0.00130708       0.00025491
C        4.94825399       1.43191230       3.89931677      -0.00625107       0.00585328      -0.00089081
O        3.80975917       3.51833909       4.02084501       0.00386521      -0.01165093       0.00578361
C        1.18215653       7.84649553       3.72230385       0.00336013      -0.00138821      -0.00093501
C        0.00261184       9.96732933       3.87167515      -0.00033360      -0.00026222       0.00439292
C        7.41613448       1.40524044       3.85687321      -0.00004052      -0.00872306       0.00868664
C        6.19043101       3.54288440       3.95529960      -0.00431994      -0.00303062      -0.00385516
C        4.95521621       5.67381796       3.95918223       0.00617186       0.00898096      -0.00410336
C        3.71034931       7.74795479       3.81878416      -0.00449906      -0.00050485       0.01012788
C        2.46807260       9.91089078       3.78525764      -0.00265257      -0.00351722       0.00270466
C        9.88228162       1.40655256       3.69431837      -0.00250528      -0.00120445      -0.00810853
C        8.64626379       3.54924189       3.81550516      -0.00062977       0.00859445       0.00061926
C        7.40103737       5.68536823       3.93306870      -0.00293897      -0.00217573       0.00417355
C        6.16552769       7.82436057       3.90007441      -0.00528205      -0.00165599       0.00128648
C        4.93082340       9.94530288       3.75793743       0.00406705       0.00419425       0.01638460
Cu       2.42219970       5.06963845       3.68945808      -0.00625406      -0.00225899       0.00484436
