50
Lattice="12.336457 0.0 0.0 -6.168228499999997 10.683685154694365 0.0 0.0 0.0 15.0" Properties=species:S:1:pos:R:3:forces:R:3 energy=-441.0214754905387 free_energy=-441.0214754905387 stress="-0.0004089900192103427 0.0035387039053086937 -1.924724681349232e-06 0.0035387039053086937 -0.0025078855783732656 -8.495772124888363e-06 -1.924724681349232e-06 -8.495772124888363e-06 4.166008293535478e-06" pbc="T T T"
C       -0.01990588      -0.00386124       3.82680537      -0.00054111      -0.00243617      -0.00480243
C       -1.22885308       2.15118375       3.88895089       0.01003646      -0.00551041       0.00278007
C       -2.45503183       4.27109340       3.88229865       0.00085480       0.00239577      -0.00266084
C       -3.72327186       6.39616358       3.81873238      -0.00076548       0.00455525      -0.00203278
C       -4.97290124       8.52718404       3.77044880      -0.00552773       0.00317498       0.00313653
C        2.43962637      -0.01894990       3.82876676      -0.00544848       0.00298066       0.00250810
C        1.23464015       2.14132654       3.91793985      -0.00117001       0.00390020      -0.00704090
C        0.04376535       4.32092343       3.94863255       0.00182603       0.00490791      -0.00844597
C       -1.25267462       6.41061193       3.83989289      -0.00048363      -0.00430842       0.00338956
C       -2.49544958       8.53164784       3.79153329      -0.00221785      -0.00803899       0.00150121
C        4.91264846      -0.01614963       3.76647686      -0.00152173       0.00327132       0.00207023
C        3.68412554       2.09266132       3.81141756      -0.00000507      -0.00525078       0.00668617
N        2.51837459       4.17484368       4.05038954       0.00234009       0.00744523      -0.00765123
O        1.11407254       6.49013550       3.76925196       0.00598073      -0.00168031       0.01420660
C       -0.04312852       8.54539085       3.68544779      -0.00325070       0.00230927       0.01118699
C        7.38182204      -0.00881497       3.73042146       0.00046437       0.00138656       0.00330660
C        6.16067635       2.11135394       3.77649408      -0.00439295       0.00498831       0.00245616
C        4.92536406       4.21748470       3.63882054      -0.00592711      -0.00419705      -0.00675655
S        3.82608739       6.45959218       2.22883233      -0.00074741      -0.01097365      -0.00758936
C        2.40428933       8.53841868       3.52793050      -0.00363828      -0.00346585       0.00035709
C        9.85090932       0.00136465       3.75287217      -0.00524246       0.00183977       0.00542528
C        8.63348867       2.13035245       3.82526507      -0.00614061       0.00143080      -0.00678205
C        7.40200214       4.25330274       3.78679884      -0.00335346      -0.00182279       0.00271442
C        6.14767092       6.39172151       3.64293711       0.01326175      -0.00516564      -0.00462602
C        4.90342917       8.53603617       3.61360748       0.00451645       0.00829272       0.00600927
C       -0.00490882       1.43006995       3.88657946       0.00786838      -0.00723747      -0.00485153
C       -1.20102408       3.58557204       3.91820115       0.00541508      -0.00100013      -0.01362563
C       -2.48287467       5.68717380       3.86058875      -0.00333197       0.00371430      -0.00658747
C       -3.73497725       7.81792782       3.79956716      -0.00784025       0.00239438       0.00380645
C       -4.96594487       9.95558726       3.81404795      -0.00423446       0.00198611       0.00155682
C        2.44748593       1.40365341       3.86126690      -0.00340166       0.00447296      -0.00140573
C        1.29017182       3.57355100       3.98673397      -0.00124701       0.00468753      -0.01139086
C       -0.04200080       5.72377769       3.87395732       0.00588586       0.00259652       0.00315170
C       -1.27086852       7.82984526       3.77098422       0.00047388      -0.00829274      -0.00563367
C       -2.49423356       9.95778957       3.79185602      -0.00367812      -0.00324859      -0.00114137
C        4.92388431       1.40196997       3.77765676       0.00088562       0.00270459       0.00205031
C        3.67804052       3.50465205       3.81167605      -0.00110524      -0.00758556      -0.00077013
C        1.15704904       7.87214671       3.60899520      -0.00315579      -0.00402412       0.01520993
C       -0.02203470       9.97120759       3.71726730       0.00021248       0.00506117       0.00586193
C        7.39513980       1.41428063       3.78427452      -0.00714038       0.00226155       0.00045177
C        6.16399077       3.53273493       3.74307057      -0.00672638       0.00273534      -0.00036024
C        4.93286864       5.64324278       3.42047031       0.00878414      -0.00125759       0.00448896
C        3.66667731       7.85156041       3.35562901       0.00528661       0.00592503       0.00890735
C        2.44098782       9.96559885       3.67538931      -0.00266666      -0.00385291       0.00096890
C        9.86826432       1.42825734       3.83157427      -0.00115723       0.00206779      -0.00176046
C        8.63954701       3.55221058       3.84285828      -0.00293617       0.00105788      -0.00009921
C        7.38116881       5.67891303       3.77156943       0.00929887      -0.00523855       0.00111684
C        6.12968308       7.81231985       3.66435246       0.00534675      -0.00144144      -0.00707178
C        4.91143235       9.96583210       3.74880898      -0.00198854       0.00760801       0.00123613
Cu       3.11897914       5.96981418       4.27231917       0.01224558      -0.00612279      -0.00345516
