49
Lattice="12.336457 0.0 0.0 -6.168228499999997 10.683685154694365 0.0 0.0 0.0 15.0" Properties=species:S:1:pos:R:3:forces:R:3 energy=-429.7953444280637 free_energy=-429.7953444280637 stress="-0.0043602758374553345 0.0011599880874833125 1.5348998217900876e-07 0.0011599880874833125 3.107065029579704e-05 1.7675498539701256e-06 1.5348998217900876e-07 1.7675498539701256e-06 1.5978870338571163e-06" pbc="T T T"
C        0.00310704       0.00149659       3.77838771      -0.00326804       0.00122668       0.00335596
C       -1.23135183       2.13836441       3.69447670       0.00020492       0.00144500       0.00535319
C       -2.47455126       4.27921528       3.91937407       0.00324192      -0.00619061       0.00006281
C       -3.71301419       6.41552163       3.99562410       0.00438754       0.00431151       0.00523498
C       -4.94172988       8.55091229       3.87449475      -0.00278749       0.00009310      -0.00021404
C        2.46802543       0.02569718       3.85395558      -0.00166930      -0.00270717       0.00816590
C        1.23951943       2.07910221       3.38056868       0.00624554      -0.00938427      -0.00594110
C       -0.11708252       4.33734299       3.37654185       0.00338418       0.00539522       0.00813792
C       -1.26781676       6.43522791       3.89255408      -0.00076847       0.00093262      -0.00016487
C       -2.48020210       8.56383081       3.98430465       0.00123268       0.00815362      -0.00204746
C        4.93452404       0.00684461       3.94762843       0.00037182      -0.00294149       0.00407673
C        3.72682847       2.18411660       3.79070914       0.01006507       0.00388128      -0.00243487
N        1.14972017       6.40728977       3.69024261      -0.00495526       0.00222701      -0.00327021
C       -0.00861260       8.53293760       3.89152209      -0.00179500       0.00153605      -0.00051307
C        7.40895660      -0.02175042       3.93856706       0.00367577       0.00022642       0.00505655
C        6.18648937       2.11898458       3.98315847      -0.00353879      -0.01062143      -0.00050557
C        4.98204414       4.21868700       3.75198164       0.00437846       0.00012160       0.00119432
P        3.76070370       6.37825985       2.50950717       0.00261945      -0.00362453      -0.00555724
C        2.45883708       8.52155689       3.67982684       0.00032271      -0.00418130       0.00859120
C        9.87084376      -0.01289484       3.83020697       0.00285381      -0.00574906       0.00167521
C        8.64816535       2.12569896       3.95905929      -0.00090064       0.00207260       0.00157618
C        7.41730978       4.26431574       3.99310483      -0.01247477       0.00433605       0.00157716
C        6.18407271       6.39761615       3.75043081      -0.00426298       0.00620863       0.00637719
C        4.93909317       8.54644387       3.65599710      -0.00062294      -0.00354210       0.00447137
C        0.00170144       1.42740918       3.63179990       0.00010004       0.00054923      -0.00754978
C       -1.25096171       3.57098934       3.68773434       0.00594584      -0.00080904       0.00097526
C       -2.48260581       5.70396174       3.96536387       0.00270270      -0.00511582      -0.00359749
C       -3.71097928       7.84360578       3.96932256       0.00296300       0.00671146      -0.00443206
C       -4.93161832       9.98353605       3.84170703      -0.00539938      -0.00139000      -0.00057174
C        2.47345052       1.45392495       3.68437247       0.01004102      -0.00346106      -0.00157282
S        1.15001768       3.55616999       2.45334214      -0.01004846       0.00893396       0.00483622
C       -0.05544888       5.74066534       3.65037040      -0.00268183       0.00463033       0.00420402
C       -1.24921061       7.85069617       3.95275892      -0.00242181       0.00329796      -0.00682016
C       -2.47240308       9.99008060       3.94597855      -0.00090186       0.00430370       0.00561168
C        4.94192985       1.43444239       3.92282857      -0.00012626      -0.00601571      -0.00505881
N        3.78768621       3.55401420       3.78060665       0.00585943       0.00391183      -0.00382937
C        1.20724825       7.77937238       3.75019488      -0.00396508      -0.00033492       0.00053400
C        0.00134928       9.95914181       3.93953435       0.00229885       0.00160552       0.00072988
C        7.41701428       1.40410803       3.98857530       0.00067186      -0.00098933      -0.00499587
C        6.20155475       3.53114753       3.94945433      -0.00739410      -0.00927724      -0.00211298
C        5.01471164       5.63402996       3.50415523       0.00570672      -0.00083663       0.00292923
C        3.69714783       7.87791341       3.43656224       0.00041397       0.00025911      -0.00389463
C        2.46644930       9.94480853       3.84455210       0.00178450      -0.00282150      -0.00150572
C        9.88430429       1.42041545       3.85188924      -0.00090061      -0.00275198      -0.00244971
C        8.64618634       3.55207248       3.99256692      -0.00746454       0.00429785      -0.00221038
C        7.40713508       5.69028844       3.95022790      -0.00254241       0.00889667      -0.00773367
C        6.17219625       7.83244884       3.73857939      -0.00281610       0.00165600       0.00356983
C        4.93591390       9.96926408       3.78013372       0.00201715      -0.00479757      -0.00628679
Cu       2.48074501       4.97922480       3.61988394       0.00021717      -0.00367827      -0.00302641
