49
Lattice="12.336457 0.0 0.0 -6.168228499999997 10.683685154694365 0.0 0.0 0.0 15.0" Properties=species:S:1:pos:R:3:forces:R:3 energy=-430.02644717029864 free_energy=-430.02644717029864 stress="-0.004772098711093938 0.00036528259216141233 6.1385725577240356e-06 0.00036528259216141233 -0.0012285897083954259 -1.283667593245244e-05 6.1385725577240356e-06 -1.283667593245244e-05 -6.365842895203033e-07" pbc="T T T"
C        0.00351310       0.01260183       3.69557065       0.00345189      -0.01470131      -0.00349444
C       -1.24537725       2.12791734       3.80134099       0.00021244      -0.00374162       0.00033979
C       -2.48278974       4.27347528       3.84134731      -0.00230057       0.00185702       0.00636676
C       -3.69840598       6.41661109       3.74130691      -0.00534294       0.00280238      -0.00325980
C       -4.94017357       8.55570021       3.63113685      -0.00360085       0.00451263       0.00282244
C        2.46597075       0.04613299       3.75032778      -0.00180574       0.01074523      -0.00741882
C        1.21137472       2.18279999       3.84966131      -0.01017743       0.00036724       0.00010439
C       -0.06396852       4.21899559       4.12388274       0.00982876      -0.00485522       0.00398849
C       -1.25597135       6.40556052       4.10756884       0.00370290       0.00180174       0.00034758
C       -2.47112934       8.55876001       3.87086700       0.00014428       0.00251667       0.00694000
C        4.92911235       0.01106272       3.79688705       0.00105288       0.00391926       0.00549937
C        3.72167556       2.18726339       3.66002059       0.00706618      -0.00526903      -0.00511831
P        1.36334989       6.36966238       5.04447648      -0.00098140       0.01183104      -0.00508401
C       -0.00225637       8.55548235       4.03755559       0.00116452       0.00146333       0.00985053
C        7.39893849       0.00024803       3.79403161      -0.00649830      -0.00511959      -0.00111072
C        6.18174287       2.12116429       3.65388156       0.00457508       0.01005435       0.00562459
C        5.00074343       4.22236847       3.38306933      -0.00153013      -0.00172008      -0.00014679
S        3.56513592       6.36027519       2.59656043       0.00268436      -0.01130276      -0.00347465
C        2.46687827       8.56143527       3.78298472      -0.00300146       0.00248578       0.00314622
C        9.87094425      -0.00034265       3.69865867       0.00349096       0.00096892      -0.00108567
C        8.63765543       2.13323045       3.72010068      -0.01003483      -0.00426951       0.00283985
C        7.42363726       4.27270800       3.60789001      -0.00247873      -0.00607169      -0.00133518
C        6.18371288       6.40513474       3.40603751       0.00954181      -0.00058853      -0.00432214
C        4.93082349       8.54837577       3.49362828      -0.00103192       0.00164806      -0.00967698
C       -0.00631857       1.43503102       3.78391602      -0.00546308      -0.01516139       0.00731979
C       -1.27430112       3.53561013       3.91752007       0.00346592      -0.00279178       0.01358029
C       -2.48032747       5.69923998       3.89472335      -0.00322415       0.00757681       0.00551909
C       -3.70289015       7.84469981       3.74829542      -0.00476384       0.00481064      -0.00502892
C       -4.93201764       9.99280790       3.69190540       0.00433380       0.00065929       0.00511641
C        2.46688994       1.48374875       3.75453894      -0.00530373       0.00819157      -0.00684972
N        1.12173356       3.53916019       4.04339863       0.01189962       0.00422831      -0.00393708
C       -0.08273760       5.63547751       4.34052679      -0.00401938      -0.00701758      -0.00731251
C       -1.24547379       7.84231620       4.04269812       0.00603473       0.00163991      -0.00360372
C       -2.47453894       9.99261138       3.80669611      -0.00233026       0.00722335      -0.00201757
C        4.93985801       1.43332979       3.69349147       0.01228641       0.00343247      -0.00145636
N        3.80784241       3.55123241       3.50888990       0.00207864      -0.00362643       0.01937285
C        1.25390500       7.88718200       4.13601752      -0.00347150       0.00026525      -0.00514742
C       -0.00481762       9.97855946       3.86779758      -0.00364104      -0.00393251      -0.00835893
C        7.40724230       1.41744643       3.71902753      -0.00847614      -0.00313058       0.00235128
C        6.21506965       3.53174838       3.54003798      -0.00281441       0.00492908       0.00224319
C        5.02578007       5.63022371       3.18796988       0.01585221      -0.00523553      -0.00214971
C        3.67454646       7.89619574       3.40551137      -0.00312004       0.01395591      -0.00782293
C        2.46825458       9.98226066       3.75810027      -0.00042917       0.00064888      -0.00347746
C        9.86667227       1.42041424       3.73547038      -0.00323683       0.00077062       0.00883636
C        8.63979118       3.55692534       3.71808084      -0.00407976      -0.00400114       0.00166650
C        7.41879840       5.69774852       3.58282983       0.00155983      -0.00713393       0.00258168
C        6.16915622       7.83889161       3.47376175       0.00072143       0.00222072      -0.00282157
C        4.93669006       9.97684159       3.64141170       0.00316580      -0.00420424      -0.01161419
Cu       2.47344955       4.83222314       3.87330986      -0.00515682      -0.00365200       0.00066815
