49
Lattice="12.336457 0.0 0.0 -6.168228499999997 10.683685154694365 0.0 0.0 0.0 15.0" Properties=species:S:1:pos:R:3:forces:R:3 energy=-428.56390949612194 free_energy=-428.56390949612194 stress="-0.0029576101660217474 0.0007980889723303939 9.84962050627738e-06 0.0007980889723303939 -0.009940529237733137 3.5594375799453686e-06 9.84962050627738e-06 3.5594375799453686e-06 2.500574806997735e-06" pbc="T T T"
C        0.01365159      -0.01366765       3.68686378       0.00954351      -0.00228094       0.01075935
C       -1.21046023       2.13921816       3.57363172      -0.00296882       0.00044033       0.00093169
C       -2.44474102       4.27954661       3.67018558      -0.00581034      -0.00328334      -0.00621187
C       -3.67496642       6.40593235       3.76848713       0.00225711      -0.00330315      -0.01857686
C       -4.92830509       8.52502560       3.72896584      -0.00248550       0.00909293       0.00747604
C        2.48086796      -0.04218977       3.85756615       0.00549695      -0.00058347       0.00795103
C        1.28091977       2.06510666       3.54036231       0.00062838      -0.00797139       0.00845953
C       -0.06220089       4.27157210       3.09401695      -0.00408265       0.00303670      -0.00369968
C       -1.21498363       6.42453137       3.49463880      -0.00028563       0.00245549      -0.00254935
C       -2.44809803       8.53821138       3.76411072      -0.00534858      -0.00185337      -0.00515200
C        4.94856541       0.00211591       3.98766291      -0.00540925       0.00332481       0.00527522
C        3.68418348       2.04812019       4.29276988      -0.00786017      -0.01378357       0.00163736
B        1.31750300       6.48775606       3.17360049      -0.00164236      -0.00532177      -0.00112007
C       -0.00022145       8.59774580       3.62103692       0.00776742       0.00282824       0.00617831
C        7.41056823       0.04469324       3.88571477       0.00479720      -0.00516309       0.00643727
C        6.19470763       2.14124678       4.23675090       0.00756026       0.00167163       0.00054902
C        5.03963612       4.31771280       4.41230266       0.00052889       0.00619117      -0.00326253
P        3.42540690       6.19576093       3.28478193       0.00905815       0.00188873       0.00130987
C        2.46889342       8.65261173       3.54836152      -0.00283227      -0.00148849       0.00406742
C        9.89473980       0.03299522       3.74535989       0.00179645       0.00809041       0.00436271
C        8.66489830       2.15450471       3.91628046      -0.00696283       0.00729218       0.00288933
C        7.44696572       4.27962908       4.03714504       0.00599126      -0.00570954      -0.00769390
C        6.19043072       6.40026961       3.80462237       0.00519861      -0.00833849      -0.00804847
C        4.94033880       8.54693488       3.62381037      -0.00850521      -0.00526354      -0.00369284
C        0.02057563       1.41224499       3.58107312       0.00333886      -0.00172982       0.01663227
C       -1.23398844       3.55287955       3.44618432      -0.00373826      -0.00134587       0.00432600
C       -2.44138674       5.70218214       3.65262348       0.00099223      -0.00344235       0.00254160
C       -3.68489569       7.82505792       3.75280435      -0.00786513       0.00084546      -0.01196956
C       -4.92465522       9.94436880       3.74251531       0.00990211       0.00794883       0.00306899
C        2.48767110       1.37165891       3.91050815      -0.00353372      -0.00920614       0.00194795
P        1.38807997       3.43702774       2.39856133       0.00908009       0.01006589      -0.00809395
C       -0.00985400       5.71553012       3.21034832      -0.00173514       0.00135151      -0.00474202
C       -1.21796001       7.84716566       3.63067891       0.00168234       0.00360151      -0.00072376
C       -2.44716834       9.95355142       3.88567346      -0.00118694      -0.00293191       0.00143010
C        4.94835157       1.41726860       4.21147524      -0.00245103       0.00439497       0.00430432
P        3.52593688       3.63875906       5.06253423      -0.00769077       0.00365963      -0.00885508
C        1.24121869       7.96407832       3.42255928       0.00514404      -0.00936294       0.00830505
C        0.00741092      10.00861211       3.84473420      -0.00085120       0.00530248       0.00395372
C        7.42230105       1.45196198       4.03972293       0.00274291      -0.00290638      -0.00221701
C        6.22690688       3.56395883       4.28313067       0.00758641       0.00136172       0.00490597
C        4.99256480       5.63715187       3.91267892      -0.01017919       0.00927690      -0.00593080
C        3.68190241       7.91693076       3.49678816      -0.01000495       0.00444949      -0.00792739
C        2.47981709      10.04655346       3.74408111       0.00480350      -0.00021374      -0.00309353
C        9.89686520       1.44845712       3.76178683      -0.00891015       0.01110145       0.00145714
C        8.67110644       3.57343751       3.89629351      -0.00059624       0.00123497       0.00167801
C        7.43315346       5.69654330       3.88373535       0.01142474      -0.01115763      -0.01111819
C        6.17314688       7.81755923       3.68650544      -0.00053520      -0.00437395       0.00517958
C        4.94879923       9.97858224       3.68257226       0.00363690      -0.00102579       0.00549881
Fe       1.87319347       4.76164374       4.06612161      -0.00748680       0.00113326      -0.00883480
