49
Lattice="12.336457 0.0 0.0 -6.168228499999997 10.683685154694365 0.0 0.0 0.0 15.0" Properties=species:S:1:pos:R:3:forces:R:3 energy=-431.3790693000028 free_energy=-431.3790693000028 stress="-0.00481001564207302 -0.0016451846640388632 1.550616658032127e-05 -0.0016451846640388632 -0.004720237553672336 5.535708160868842e-07 1.550616658032127e-05 5.535708160868842e-07 -2.2092556505152397e-07" pbc="T T T"
C       -0.00268870      -0.00851308       3.81525705       0.00551720      -0.00744435       0.01012553
C       -1.25439066       2.11516067       4.04059753       0.00409085       0.00078172      -0.00618148
C       -2.50503137       4.25961463       3.97572999      -0.00515967       0.00422881      -0.01058350
C       -3.70401322       6.40480586       3.77321385      -0.01722807       0.00154201       0.00685915
C       -4.92718233       8.54426268       3.71391867      -0.00140567      -0.00128306      -0.00143229
C        2.47030602      -0.02787609       3.70122210      -0.00339092       0.00536942      -0.00108495
C        1.25609403       2.08028359       4.03727386      -0.00794472       0.00447348       0.00318666
C       -0.12233517       4.27181330       4.46472025       0.00748456      -0.00655976       0.00762207
C       -1.27571593       6.41277193       4.05488653       0.00554373      -0.00219132      -0.00216648
C       -2.46261361       8.53437925       3.77412374       0.00320938       0.00190356       0.00201519
C        4.93436196      -0.01296466       3.60915889       0.00180211       0.00199464      -0.00620327
C        3.67004903       2.05816399       3.31270090       0.01128154      -0.00785803      -0.00452183
B        1.19208018       6.42035992       4.20280674      -0.00322021       0.00379704       0.00422261
C       -0.00231631       8.54506444       3.84606712       0.00068288       0.00532155      -0.00344612
C        7.40014260      -0.00764547       3.66059773      -0.00395300       0.00421993      -0.00518281
C        6.15800919       2.13393538       3.43000634       0.00817449       0.00281238       0.00334327
C        5.00697248       4.33863196       3.16467899       0.01269705       0.00298326      -0.00009966
N        3.78289503       6.43045794       3.54218795       0.00326496      -0.01177065      -0.00068306
C        2.49099877       8.53563080       3.76080614      -0.00342524      -0.00256802       0.00316281
C        9.86841326      -0.00710776       3.75662025       0.00143175       0.00579244      -0.00271055
C        8.62363586       2.12844951       3.73333607      -0.00182644      -0.00053986       0.00212205
C        7.40097534       4.27377338       3.59523198      -0.00616201      -0.01041710       0.00718160
C        6.19536007       6.43494990       3.54749846       0.00456013      -0.00031765      -0.00382921
C        4.94535903       8.53825149       3.67389836       0.00101341       0.00016514       0.00054394
C       -0.00155214       1.41447249       3.98901130      -0.00017958      -0.00688400      -0.00386230
C       -1.29033530       3.53050232       4.19212759       0.00401122       0.00396834      -0.01243800
C       -2.49711848       5.68751771       3.93963962      -0.01099767       0.00799035       0.00560042
C       -3.69653349       7.82775751       3.75366317      -0.00321106       0.00268329      -0.00043107
C       -4.93627440       9.96200935       3.75246741       0.00238012      -0.00427014       0.00474115
C        2.46443855       1.39543583       3.68595693      -0.00139590       0.00677703      -0.00039280
P        1.42716957       3.58366288       4.96219422      -0.01031923      -0.00186817      -0.01031420
C       -0.09717005       5.68257605       4.30726983       0.00750675      -0.00365616       0.00509841
C       -1.23558481       7.82769860       3.89071000       0.00644540       0.00018756       0.00244994
C       -2.46261754       9.95404166       3.68006902      -0.00109606       0.00430587      -0.00411032
C        4.92556860       1.41402837       3.42816108       0.01356966       0.00024820       0.00239276
S        3.57904946       3.58588375       2.46575081       0.00280973       0.00286298      -0.00859492
C        1.25272700       7.86431091       3.92308292      -0.00455282       0.00126652       0.00491168
C       -0.00179863       9.96541389       3.69252578      -0.00202385       0.00389961      -0.00346860
C        7.38679957       1.42316680       3.59567651       0.00030277       0.00290564      -0.00275835
C        6.16778871       3.56710842       3.38478472       0.00255071      -0.00163690       0.00510521
C        4.98401420       5.75055009       3.37634074       0.00853211      -0.00194002       0.00193161
C        3.72792122       7.80434011       3.67246177       0.00014297      -0.00696343      -0.00639762
C        2.47498374       9.96410971       3.70908140      -0.00285152       0.00339295       0.01038634
C        9.85910778       1.41543427       3.84268470       0.00108892       0.00508160       0.00463015
C        8.61836210       3.55277591       3.76628593      -0.00515370      -0.00425721       0.00070860
C        7.40959435       5.69647095       3.63316147      -0.01034666      -0.01096930       0.00080099
C        6.17955909       7.84479608       3.64806108       0.00117117      -0.00151982       0.00944893
C        4.93444685       9.96357029       3.75371492       0.00359776       0.00208642      -0.00479362
Fe       2.56548181       5.10426161       3.72329715      -0.01901933       0.00187322      -0.00290404
