49
Lattice="12.336457 0.0 0.0 -6.168228499999997 10.683685154694365 0.0 0.0 0.0 15.0" Properties=species:S:1:pos:R:3:forces:R:3 energy=-433.79265596695694 free_energy=-433.79265596695694 stress="-0.00824750227673358 0.001163115852613121 -7.414684758272589e-07 0.001163115852613121 0.00018440090285540682 3.8829200746255655e-06 -7.414684758272589e-07 3.8829200746255655e-06 1.367138903006082e-06" pbc="T T T"
C       -0.00147817       0.00650862       3.74564254       0.00888940       0.00038551      -0.00050414
C       -1.24311228       2.12992855       3.65142873       0.00680203      -0.00180349       0.00018914
C       -2.46837952       4.27897844       3.61826423      -0.00337754      -0.00473820      -0.01682965
C       -3.69491540       6.41919948       3.68285326      -0.00886756      -0.00319785      -0.00331945
C       -4.93486398       8.56311697       3.76201023       0.00040220       0.00088608      -0.00648596
C        2.45567044       0.04442646       3.75632686      -0.00769339       0.00860077      -0.00268100
C        1.20353441       2.13750637       3.74241498      -0.00383894       0.00064167      -0.00777602
C       -0.07048439       4.29140043       3.63198087       0.01441070       0.00722047       0.00418891
C       -1.25172637       6.42148499       3.61594922      -0.00942675      -0.00106479       0.00738363
C       -2.47442581       8.56689246       3.68694113       0.00721953      -0.00695213      -0.00252223
C        4.93203843       0.01321021       3.72647489      -0.01134685      -0.00249281       0.00055713
C        3.71101026       2.19299821       3.86735158      -0.00435838      -0.00128974      -0.00357630
O        1.14213796       6.43651473       3.66459305      -0.00684577       0.00537483      -0.00290644
C       -0.01582138       8.53655091       3.68633228       0.01033086       0.00740830      -0.00002142
C        7.40246518      -0.02538266       3.69719588       0.00241020      -0.00404989       0.01096561
C        6.19459460       2.11212888       3.74143517       0.00407086       0.00023282       0.00218358
C        5.01666955       4.23248115       3.92992931       0.00708918      -0.00159303       0.00651643
B        3.76775349       6.37808619       4.10136790       0.00214878       0.00243528      -0.00463513
C        2.43201991       8.50552855       3.80421756      -0.00558192      -0.00358121      -0.00125137
C        9.86150231      -0.02401952       3.72495363      -0.00127849       0.00190382      -0.01161830
C        8.64313894       2.11868040       3.65828453      -0.00522059       0.01186269      -0.00277847
C        7.43780541       4.26493100       3.71644280      -0.00832746       0.00160698       0.00326505
C        6.20792060       6.41360506       3.84792101       0.00688853      -0.00812255       0.00620904
C        4.93131712       8.53671071       3.85095491      -0.00389777      -0.00012533       0.00065824
C       -0.00588035       1.43775933       3.70421873       0.00111270      -0.00319155       0.00714926
C       -1.24706149       3.55765266       3.61383913       0.01240064       0.00292975      -0.00290784
C       -2.47063180       5.69748070       3.62508167      -0.01307580      -0.00526286      -0.00112631
C       -3.70623608       7.85010176       3.70747934      -0.00002787      -0.00011866      -0.00009458
C       -4.93537290       9.99658825       3.75499704       0.00301010       0.00471793       0.00506181
C        2.44311660       1.48284201       3.79791500      -0.00885342       0.00523909       0.00332766
O        1.13902602       3.54032721       3.66784498       0.01843726      -0.00030592      -0.00283420
C       -0.06918210       5.68977267       3.63067674      -0.00258006       0.00848045      -0.00122038
C       -1.25489605       7.84593600       3.65269545       0.01463306      -0.00100758      -0.00405136
C       -2.47941015      10.00042980       3.72605962      -0.01239276      -0.00440580       0.00083430
C        4.94191145       1.43625374       3.77817867      -0.00109027      -0.00277329       0.00338756
C        3.79446164       3.56715597       4.01667494       0.01013545      -0.00314203      -0.00506797
C        1.19162879       7.83574289       3.73847686      -0.00007386       0.00012455       0.00053437
C       -0.00457771       9.96627606       3.70026428      -0.00114669       0.00386935       0.00696508
C        7.41855442       1.39959689       3.68753050       0.00322949       0.00065413       0.00420014
C        6.22915089       3.52703588       3.78483373       0.00244166      -0.00028049       0.01459781
C        5.02884635       5.65898622       3.96490851       0.00395229      -0.00115404       0.00938295
C        3.68591663       7.83126529       3.92089835      -0.00992237       0.00142701      -0.00419642
C        2.45419725       9.94005258       3.73366027      -0.00154242      -0.00892183      -0.00611366
C        9.87446504       1.40828965       3.66659148      -0.00407029       0.00583296       0.00437677
C        8.65159233       3.54942496       3.65042090      -0.01164977       0.00825997       0.00095757
C        7.43333147       5.69618120       3.74241861       0.00129006      -0.00875154      -0.00092035
C        6.17494987       7.84033823       3.82876215       0.00095310      -0.00726580       0.00186889
C        4.93436359       9.96547032       3.76976306       0.00635429       0.00288381       0.00110089
Fe       2.47075831       4.90612229       4.17926304      -0.00212538      -0.00738581      -0.01042287
