49
Lattice="12.336457 0.0 0.0 -6.168228499999997 10.683685154694365 0.0 0.0 0.0 15.0" Properties=species:S:1:pos:R:3:forces:R:3 energy=-436.26049890151114 free_energy=-436.26049890151114 stress="-0.0031679620612020455 0.0012770245415383524 -2.8101115508241827e-06 0.0012770245415383524 -0.006945515648661781 -1.984659382460532e-06 -2.8101115508241827e-06 -1.984659382460532e-06 1.0553708187583256e-06" pbc="T T T"
C       -0.00470007      -0.00600845       3.72130236      -0.00280892       0.00018449      -0.00387639
C       -1.23183655       2.14243859       3.71578295       0.00549854       0.01002322       0.00741975
C       -2.48479731       4.28436116       3.65058857       0.00018490       0.00139910       0.00539795
C       -3.71483828       6.41133049       3.65843918      -0.00870801      -0.01164706      -0.00803039
C       -4.94715923       8.53929084       3.69249898       0.01073763      -0.00597122       0.00328166
C        2.47391164      -0.01077700       3.75237903      -0.00195949       0.00701851       0.00154288
C        1.24746625       2.09294859       3.89173503       0.00848089       0.00950198       0.00878109
C       -0.05570713       4.29889717       3.82341118       0.00734044      -0.00825767       0.00373877
C       -1.23050203       6.42320874       3.70895158       0.00957561      -0.00124684       0.00646536
C       -2.47072803       8.54529710       3.69368546      -0.01210331       0.00271196       0.01341980
C        4.93445756       0.00463999       3.72364789       0.01055841      -0.01100011      -0.00619661
C        3.72195586       2.14993886       3.83918300       0.00118313       0.00115963      -0.00005054
B        1.39820516       6.36523194       3.90747318       0.00381855       0.00472916      -0.00962657
C        0.00206108       8.55360633       3.74824542      -0.00380766       0.00025687      -0.00710848
C        7.39721129       0.02054195       3.68818872       0.00148024       0.00152338      -0.00111088
C        6.16934294       2.13462062       3.68600464      -0.01043823      -0.00259971       0.00111331
C        4.94694584       4.22637506       3.76962479       0.00378337       0.00095779      -0.01620054
B        3.53454004       6.37250120       3.83267048       0.00267815      -0.00313250      -0.00215590
C        2.46262483       8.60195005       3.74915524      -0.00265654       0.00449426      -0.00258396
C        9.87264960       0.02203266       3.67469019      -0.00463892       0.00306210       0.00362343
C        8.63633640       2.14937775       3.64059848      -0.00856812      -0.00857755      -0.00683389
C        7.39423013       4.27746229       3.64529982       0.00353048       0.00068937       0.00121815
C        6.13101542       6.39667077       3.70782112      -0.00858170       0.00991774      -0.00246437
C        4.92355496       8.54893992       3.70997168       0.00102340      -0.00363120       0.00103006
C       -0.00351494       1.41954859       3.77387195       0.00786676       0.00881624       0.01073926
C       -1.25289813       3.56487339       3.71470352       0.00299522       0.00688112       0.00272702
C       -2.47751964       5.70711265       3.65964759       0.00113372       0.00072965       0.01283322
C       -3.70908393       7.83405126       3.67662217      -0.00090998      -0.01384651       0.00677857
C       -4.93762184       9.96402030       3.72145861      -0.00062869      -0.00220548       0.00075190
C        2.48711111       1.41335142       3.83988145       0.00406058       0.00770230      -0.00220397
B        1.21284993       3.55258483       4.06446757      -0.00599809      -0.00298961       0.00131246
C       -0.00055323       5.70575345       3.79512404       0.01388795      -0.00874070      -0.00193402
C       -1.23667651       7.84222981       3.71676300      -0.00961574       0.00355664      -0.00273103
C       -2.46533958       9.96714205       3.72100267      -0.00111646       0.00476444       0.00528755
C        4.94090019       1.43137814       3.74070752      -0.00404018      -0.00989466      -0.00602609
N        3.76832167       3.52063299       3.91599039       0.00313014       0.00428154       0.00037801
C        1.24877557       7.87650554       3.79963531      -0.00250473       0.00268421      -0.00313292
C       -0.00112132       9.98299270       3.71605295       0.01245070      -0.00459484      -0.00866904
C        7.40352288       1.43745877       3.66002912      -0.01426318      -0.00273167      -0.00645352
C        6.16846904       3.54612700       3.67738905       0.00441457      -0.00125742      -0.00458977
C        4.89938064       5.65792140       3.76904323      -0.00061936       0.00164703       0.00130064
C        3.67534390       7.87772260       3.74872039      -0.00315743      -0.00157368       0.00652789
C        2.46606061      10.01493918       3.69436584      -0.00266941       0.00599185      -0.01022061
C        9.87202533       1.44068801       3.66048899       0.00098036       0.00204300       0.01564060
C        8.62815788       3.57057963       3.63149281       0.00095937      -0.00683065      -0.00344987
C        7.38425651       5.69711146       3.66462768      -0.01281782       0.00281098      -0.00509988
C        6.15165945       7.82722428       3.70378101       0.00738471       0.00565743      -0.00502395
C        4.93115140       9.97952765       3.69219135      -0.00579844      -0.00380576       0.00531759
Fe       2.61749597       4.80219541       4.56531238      -0.00072743      -0.00066117      -0.00085377
