49
Lattice="12.336457 0.0 0.0 -6.168228499999997 10.683685154694365 0.0 0.0 0.0 15.0" Properties=species:S:1:pos:R:3:forces:R:3 energy=-437.4208502172798 free_energy=-437.4208502172798 stress="-0.005779777592198053 -1.9208815199729037e-05 -1.2416487166697056e-07 -1.9208815199729037e-05 -0.001999146337970226 4.315336595080651e-07 -1.2416487166697056e-07 4.315336595080651e-07 1.8334794171755436e-06" pbc="T T T"
C        0.00379283       0.00779146       3.74907633       0.00316734      -0.00865824       0.01143844
C       -1.24328065       2.12331552       3.74003603       0.00287543      -0.00352984       0.00324733
C       -2.48359352       4.27004790       3.72578636      -0.00469806       0.01037126       0.01108567
C       -3.70300685       6.41483347       3.73545314      -0.00988390       0.00003816      -0.00923243
C       -4.92588790       8.56238574       3.74854267      -0.00220389      -0.00674590       0.00047161
C        2.47080404       0.03942544       3.75642645       0.00420485      -0.00593631      -0.00225139
C        1.21691776       2.18540517       3.77746825      -0.00440732      -0.00118273      -0.00456571
C       -0.04736528       4.22486446       3.75521364      -0.01308650       0.00075476       0.00358677
C       -1.24367725       6.40494520       3.72844489       0.00437582       0.00124307       0.00607738
C       -2.46951062       8.55646627       3.73525783       0.00374526       0.00479165      -0.00147312
C        4.92875504       0.00425082       3.74419696       0.01222350       0.00124407       0.00344053
C        3.72902784       2.11377531       3.77044671       0.00247960      -0.00657376      -0.00861339
B        1.25143987       6.40498559       3.76428085      -0.00605851       0.00443556      -0.00219542
C       -0.01052183       8.55608839       3.73568534       0.00052274       0.00979720       0.00242027
C        7.40216769      -0.00204419       3.74709163       0.00858241      -0.00623592      -0.00805804
C        6.17466076       2.13062845       3.74996297       0.00668743      -0.00075090      -0.00165489
C        4.99514286       4.26419849       3.76396651       0.00227167       0.00077349       0.00047570
C        3.70112888       6.37891754       3.79693527      -0.00342050       0.00442605      -0.01566520
C        2.47580691       8.55237555       3.76218850      -0.00136886      -0.00108659      -0.00192617
C        9.87300725      -0.00621577       3.74858194      -0.00492483      -0.00641591      -0.00100652
C        8.63337397       2.13171407       3.73995929       0.00327103       0.00313790      -0.00301874
C        7.40712292       4.27929062       3.74208106      -0.00289014      -0.00173604      -0.00491681
C        6.17719681       6.41446094       3.75578326      -0.00461376       0.00000556      -0.00139406
C        4.94152330       8.53481387       3.76220568      -0.00441866       0.00379515      -0.00017130
C        0.00272114       1.43756531       3.75249557       0.00178956      -0.00496073       0.00518168
C       -1.26259112       3.53496763       3.73388346      -0.01102323      -0.00136641       0.00049095
C       -2.48213851       5.69539072       3.72601004      -0.00227856       0.01050720       0.00141406
C       -3.70094544       7.84347814       3.73925327      -0.00210197       0.00267979      -0.00180898
C       -4.92621944       9.99169337       3.75105714       0.00011121      -0.00481606       0.00531009
C        2.48009631       1.48411498       3.77292512      -0.00111387      -0.00250096      -0.00726593
N        1.15183119       3.55123556       3.80109414      -0.00676672       0.00838103      -0.01487913
C       -0.04133932       5.65280067       3.74534196      -0.00309860      -0.00139935       0.00280341
C       -1.24015043       7.83918671       3.72862155       0.00171701      -0.00006090       0.01736463
C       -2.47369422       9.99185266       3.74543235       0.01022330       0.00471440      -0.00489768
C        4.93660852       1.43173041       3.75393676       0.00970122      -0.00126150       0.00654749
O        3.80252255       3.51718393       3.76002382       0.00634176       0.00056968       0.00771431
C        1.23769068       7.87882112       3.74949090      -0.00413088       0.00457071       0.00390364
C       -0.00574149       9.97859583       3.73864694       0.01012930       0.00727423       0.01393664
C        7.39671753       1.42343298       3.74734025       0.00513832      -0.00289596      -0.01457313
C        6.17839929       3.55253840       3.75105545      -0.00141916      -0.00173537       0.00235168
C        4.93433618       5.68514445       3.77010800      -0.00421362       0.00060276       0.00347627
C        3.69891700       7.78548169       3.77556856      -0.00174386       0.00920564       0.00273493
C        2.47298164       9.97245405       3.75281566      -0.00038817      -0.00771815      -0.00246128
C        9.86437212       1.41466533       3.74027932       0.00354336      -0.00874430       0.00152555
C        8.62738749       3.55804549       3.73319437      -0.00125507       0.00592515       0.00285591
C        7.40044409       5.69992509       3.74340075      -0.00408032      -0.00290516      -0.00192942
C        6.17752446       7.83909194       3.75733159      -0.00454039      -0.00324741      -0.01021398
C        4.93829501       9.96284834       3.75072148      -0.00001612      -0.00182928       0.01096002
Fe       2.45434325       4.90958403       3.89961954       0.00704334      -0.00495078      -0.00664224
