50
Lattice="12.336457 0.0 0.0 -6.168228499999997 10.683685154694365 0.0 0.0 0.0 15.0" Properties=species:S:1:pos:R:3:forces:R:3 energy=-448.2197632428166 free_energy=-448.2197632428166 stress="-0.006944302616695392 -0.0025036068757532553 -8.057879244672926e-06 -0.0025036068757532553 -0.004072705651762495 1.876917961265011e-07 -8.057879244672926e-06 1.876917961265011e-07 4.6691151730834605e-06" pbc="T T T"
C       -0.00098344      -0.00578957       3.59192500      -0.00970791       0.00262077      -0.00362643
C       -1.26195300       2.11006675       3.52507934       0.00686540      -0.00058333       0.00135675
C       -2.50307415       4.25958366       3.52414699       0.00671026       0.00311653       0.00693633
C       -3.70493710       6.40874301       3.59261775       0.00119383       0.00134463      -0.00015807
C       -4.92077634       8.55281019       3.63270291      -0.00390358      -0.00045493       0.00652920
C        2.47245782       0.00660173       3.68921215      -0.00062866      -0.01113682      -0.00661272
C        1.21430224       2.12245650       3.67980696       0.00115787      -0.00709268       0.00253970
C       -0.06757397       4.23239889       3.65897435      -0.00677648      -0.00162603       0.00636119
C       -1.25359260       6.39789082       3.68052098      -0.01318655       0.00189004       0.00065745
C       -2.45780982       8.54521276       3.68999943       0.00423075       0.00627399      -0.00659310
C        4.93609317      -0.00050928       3.75244915       0.00205613      -0.00423008      -0.00070814
C        3.69706635       2.14812567       3.82429313      -0.00429402      -0.00028840      -0.00839818
B        2.40108117       4.28667789       4.06884439       0.00152587       0.01664234       0.00895120
B        1.21405769       6.34352379       4.06608975       0.00886925       0.00207714       0.00438592
C        0.00983011       8.53535788       3.82414143      -0.00730352       0.00036944      -0.00573235
C        7.39822103      -0.00791827       3.71852060       0.00359796      -0.00686609      -0.00304576
C        6.16066025       2.13634187       3.71785702      -0.00344954      -0.01358542      -0.00138968
C        4.94252692       4.29381162       3.86817363       0.00205416       0.01340458      -0.00423274
N        3.84936564       6.49453623       4.18259269      -0.00388929      -0.00047670      -0.00616638
C        2.49082922       8.54201421       3.86842113       0.00664583      -0.00751332      -0.00950380
C        9.86431142      -0.01384106       3.62055507      -0.00224807       0.00397813       0.00258342
C        8.61624658       2.12365323       3.57122624       0.00615850       0.01109222      -0.00563922
C        7.38886485       4.27347554       3.61971594      -0.00009148      -0.00226958       0.00576084
C        6.18001339       6.42579971       3.71515896       0.00293469       0.00105995      -0.00013400
C        4.95582274       8.54689011       3.71371114       0.00076259       0.00104378       0.00367624
C       -0.01873126       1.40764826       3.57633568       0.00360533       0.00389083       0.00448632
C       -1.28681714       3.52880156       3.52512655      -0.00789584      -0.01007392       0.00764859
C       -2.48931537       5.68732220       3.57700496      -0.00065229       0.00020333       0.00087948
C       -3.69117390       7.83541595       3.63128680       0.00184961       0.00549399       0.00280930
C       -4.92667928       9.97646290       3.63008416      -0.00885581      -0.00014085       0.00635808
C        2.46428812       1.43031408       3.74305347      -0.00012822      -0.00968084      -0.00622305
C        1.15427793       3.52798783       3.76104197      -0.00200583       0.00567336       0.01625012
C       -0.06642904       5.64280459       3.76088631      -0.00356484      -0.00137008       0.01296571
C       -1.22837960       7.82666447       3.74354649      -0.00706829      -0.00074026      -0.00616146
C       -2.46307579       9.97213817       3.71838894       0.00589812       0.00041210      -0.00970821
C        4.93233272       1.42530494       3.76967325      -0.00883679      -0.00593671      -0.00223511
C        3.72200442       3.57477453       3.93907562       0.00743144       0.01682231       0.00516091
C        1.25824143       7.84371477       3.93858524       0.00748603       0.00384298       0.00457571
C        0.00050246       9.96682565       3.77002879       0.00027022      -0.00613279      -0.00263853
C        7.38939859       1.41613861       3.65893220       0.00787480       0.00189265      -0.00015564
C        6.16296914       3.56718662       3.72233289       0.00192367      -0.00940181      -0.00680185
C        4.97106265       5.73422833       3.90699972      -0.00672918       0.01097391      -0.00389974
C        3.75253859       7.84601540       3.90602720      -0.00479435      -0.00906557      -0.00075580
C        2.47073144       9.96236251       3.72286441       0.00335387      -0.00433437      -0.00406458
C        9.84712024       1.40455566       3.54840645       0.00335591       0.00682190      -0.00185148
C        8.60872052       3.54907779       3.54715486       0.00686708       0.00869616       0.00127793
C        7.39967912       5.69814179       3.62237670       0.00131411      -0.00369514       0.00243142
C        6.18567797       7.84295648       3.68227892      -0.00171750      -0.00588929      -0.01069788
C        4.93560782       9.96694442       3.62158635      -0.00758388      -0.00183684       0.00525126
Fe       2.61267723       5.78300458       5.29084520       0.00931864      -0.00521522      -0.00269912
