49
Lattice="12.336457 0.0 0.0 -6.168228499999997 10.683685154694365 0.0 0.0 0.0 15.0" Properties=species:S:1:pos:R:3:forces:R:3 energy=-425.340514110298 free_energy=-425.340514110298 stress="-0.005808927392359431 -0.0009604766247561913 -3.260920416799304e-06 -0.0009604766247561913 -0.008453250191426995 3.8014351641085365e-06 -3.260920416799304e-06 3.8014351641085365e-06 9.97066355462611e-07" pbc="T T T"
C        0.00965890      -0.00564936       3.71442530       0.00102977       0.00825521      -0.00126861
C       -1.23193191       2.13464284       3.55110637       0.00689128      -0.00498755       0.00487430
C       -2.47179541       4.27474763       3.67879350       0.00165488      -0.00824967      -0.00315210
C       -3.68194796       6.41233876       3.82845610      -0.00061164       0.00266433      -0.00150458
C       -4.93010373       8.53526234       3.77367823       0.00564238       0.00895360       0.00092932
C        2.47589797      -0.02596117       3.83542979      -0.00103782      -0.00438209      -0.00326772
C        1.25747475       2.06583160       3.44778164       0.00058099       0.00349865      -0.00242697
C       -0.12214791       4.27190614       3.05028523      -0.00465070       0.00279923      -0.00860954
C       -1.24583692       6.41602869       3.57376333      -0.00058219       0.00290360      -0.00243826
C       -2.45313027       8.54071905       3.82106512       0.00520249       0.00287634      -0.00407205
C        4.93901887       0.00419347       3.98085526       0.00345738      -0.00619204       0.00728734
C        3.67263155       2.07647953       4.20425036      -0.00523951      -0.00744606       0.00132967
B        1.20618698       6.45012211       3.48690688      -0.00337401       0.00872291      -0.00765507
C        0.00214045       8.57003585       3.75238853       0.00030679       0.00124124      -0.00594670
C        7.40593488       0.02412559       3.92156762       0.00315114      -0.00115678       0.00994424
C        6.17461558       2.14504471       4.19351993       0.00150167       0.00192588       0.00029598
C        5.01920662       4.33189744       4.31790727      -0.01158313      -0.00849277      -0.00021364
S        3.69175116       6.27455718       2.87401818      -0.00529542      -0.00008804       0.00066992
C        2.48648039       8.60180409       3.62346325      -0.00449950      -0.00223659      -0.00154657
C        9.88443039       0.02056947       3.77042179      -0.00202530       0.00505843       0.00610086
C        8.64703266       2.14757461       3.90787883       0.00081684      -0.00044786       0.00107283
C        7.43416936       4.28045253       4.04081520      -0.00370246      -0.00411708       0.00051316
C        6.20349182       6.41982144       3.84217680       0.00246902      -0.00582030      -0.00345542
C        4.94805397       8.55001499       3.63266749      -0.00098506       0.00057306       0.00724494
C        0.00583017       1.42103495       3.57335271       0.00606832       0.00348498       0.00327397
C       -1.26597327       3.54446933       3.41251881       0.00719013      -0.00737654       0.00574256
C       -2.46551452       5.69733773       3.70233739      -0.00161909      -0.00336237      -0.00346878
C       -3.68763593       7.83148933       3.81014180       0.00469595       0.00653790      -0.00640288
C       -4.92829005       9.95950838       3.76268959      -0.00048775       0.00805245      -0.00594367
C        2.47314884       1.40503434       3.82477970      -0.00567076      -0.00715880       0.00415131
S        1.26409501       3.43606323       2.34583539      -0.00862267       0.00228264      -0.00043293
C       -0.06206091       5.67392339       3.28554692       0.00183839       0.00407581      -0.00041437
C       -1.22163217       7.83596769       3.73076966       0.00243306       0.00363648      -0.00710240
C       -2.45445140       9.96250852       3.89494320       0.00125399      -0.00226984       0.00758613
C        4.93263971       1.43138735       4.15161144      -0.00080448      -0.00273640      -0.00349558
S        3.56444355       3.61621155       5.00863607      -0.00129976       0.01101523      -0.00860825
C        1.25223909       7.90535236       3.61640763      -0.00361320       0.00157305       0.00519746
C        0.00385526       9.99224599       3.90124548       0.00441169      -0.00315651      -0.00480488
C        7.40429474       1.44369548       4.02862968       0.00398122       0.00020348       0.01576320
C        6.20597038       3.56640950       4.23544631      -0.00625124      -0.00003184      -0.00435367
C        5.01433227       5.65664387       3.86182534      -0.00016857      -0.01077443       0.00029370
C        3.70601694       7.90983811       3.44791999      -0.00449090      -0.00487793       0.00364500
C        2.48014943      10.01652833       3.79564590      -0.00116353      -0.00148648      -0.00491420
C        9.88317456       1.44263400       3.76138667       0.00175496       0.00277896       0.00023260
C        8.65276559       3.56480488       3.89764612      -0.00264262      -0.00330952      -0.00096663
C        7.43342886       5.70069740       3.93131109       0.00179667      -0.00454085       0.00460317
C        6.17837394       7.83133497       3.71116505       0.00627431       0.00185334      -0.00063503
C        4.94275868       9.98021803       3.71518214      -0.00009876       0.00643214       0.01080391
Fe       2.24415238       4.83665087       3.72412350       0.00611670       0.00329941      -0.00445506
