49
Lattice="12.336457 0.0 0.0 -6.168228499999997 10.683685154694365 0.0 0.0 0.0 15.0" Properties=species:S:1:pos:R:3:forces:R:3 energy=-426.68686195531023 free_energy=-426.68686195531023 stress="-0.0029105403173962235 0.00010368102549185603 1.3397350148728567e-05 0.00010368102549185603 -0.007001424183699006 -5.88419177294719e-06 1.3397350148728567e-05 -5.88419177294719e-06 3.0601989655130283e-06" pbc="T T T"
C        0.00913178      -0.01763367       3.73147761       0.00264854       0.00355951       0.00794408
C       -1.22178287       2.12725744       3.56622453      -0.00796437       0.00328721      -0.00372479
C       -2.46645023       4.26821004       3.66301465       0.00353251      -0.00182062       0.00798139
C       -3.68671030       6.40137763       3.80940952       0.00393760      -0.00272476       0.00813621
C       -4.92537912       8.52723401       3.82608649       0.00500537       0.00395849       0.00341843
C        2.47594989      -0.03925335       3.80554854       0.00610528      -0.00370641       0.00109329
C        1.26545809       2.04514675       3.42182475      -0.00134286      -0.00453591      -0.00174690
C       -0.11921154       4.27348766       3.01416489       0.00425282      -0.00093194       0.00005947
C       -1.25157046       6.41936696       3.40139124      -0.00087435       0.00510387      -0.00516984
C       -2.44755622       8.53043884       3.71480816      -0.00309673       0.00088842       0.00396199
C        4.94249492      -0.00637602       3.90957818      -0.00225112      -0.00158971      -0.00914336
C        3.67612504       2.07278892       4.16029684      -0.00949118      -0.00656471      -0.00252736
S        1.31946946       6.48792096       2.35420478       0.01126637      -0.00694304       0.00069125
C        0.00386403       8.56698098       3.52530601      -0.00152927       0.00492388      -0.00174016
C        7.40524736       0.01582622       3.86030204       0.00546781      -0.00172767       0.00343406
C        6.18279743       2.12768285       4.17112269       0.00304922      -0.00529842       0.00323830
C        5.02920642       4.29585863       4.46299717      -0.00027145       0.00232183      -0.00586509
B        3.67841998       6.39132828       4.00223744       0.00085363      -0.00067924      -0.00154980
C        2.46823019       8.58483594       3.64885309      -0.00767343       0.00033831       0.00318791
C        9.88446176       0.01023309       3.80503073       0.00347778       0.00191027      -0.00598244
C        8.65073898       2.13827282       3.89873093      -0.00270910       0.00734454       0.00301660
C        7.43576766       4.26780737       4.06493425       0.00484937       0.00545992      -0.00517216
C        6.20115253       6.41166984       4.03390683      -0.00259625       0.00500547       0.00232011
C        4.94074098       8.54022009       3.85300321      -0.00676985      -0.01034486      -0.00276344
C        0.01140809       1.40778045       3.56337723      -0.00539285       0.00384399      -0.00371009
C       -1.25170481       3.54301412       3.42842339      -0.00023190       0.00011010      -0.00174617
C       -2.46539748       5.69168024       3.64020984       0.00425952      -0.00360077       0.00420062
C       -3.68822494       7.82102223       3.78264633       0.00115001      -0.00221801       0.00468036
C       -4.92802136       9.94609359       3.77286877       0.00637174       0.00446065       0.00730608
C        2.47509099       1.38497500       3.80885200       0.00024369      -0.00973998      -0.01178973
S        1.35047883       3.47685061       2.42952873      -0.00080304      -0.00232983       0.00343070
C       -0.11620580       5.68339342       3.00722028       0.00704319       0.00467093       0.00483956
C       -1.22270107       7.83708032       3.52565538      -0.00428753       0.00706263      -0.00569350
C       -2.45099276       9.95160295       3.82329704       0.00089654      -0.00260184      -0.00136545
C        4.93529850       1.41583119       4.11775293      -0.00592328      -0.00345291      -0.00254227
P        3.48886872       3.62200503       5.00388786      -0.00704777       0.00492151       0.00404732
C        1.25074194       7.94073511       3.31172012      -0.00314528       0.00009566       0.00268839
C        0.00540982       9.98263713       3.78822882       0.00153385       0.00232189       0.00025424
C        7.41162427       1.43214126       3.99693337       0.00400274      -0.00174595       0.00268844
C        6.21273726       3.54665704       4.27448652       0.00989542      -0.00209617       0.00681607
C        4.99540003       5.68879857       4.21165828      -0.00685733       0.00524546      -0.00391175
C        3.68658199       7.86229340       3.80619653      -0.01253522      -0.00705893      -0.00638219
C        2.47093554      10.00375084       3.79061105       0.00409459       0.00082204      -0.00400610
C        9.89004241       1.43285316       3.76947865      -0.00600148       0.00569274      -0.00504556
C        8.65330186       3.55812354       3.89327151       0.00070867       0.00574572      -0.00019334
C        7.43254657       5.69100896       3.98482572      -0.00028325       0.00563963       0.00317608
C        6.17696383       7.82414739       3.90131406       0.00083415       0.00045385      -0.00363172
C        4.94467901       9.96955594       3.79472855       0.00263446      -0.00566441       0.00564722
Fe       2.15793614       5.02383533       3.82309204       0.00096404      -0.00781243      -0.00285496
