49
Lattice="12.336457 0.0 0.0 -6.168228499999997 10.683685154694365 0.0 0.0 0.0 15.0" Properties=species:S:1:pos:R:3:forces:R:3 energy=-434.71986795045234 free_energy=-434.71986795045234 stress="-0.006334448781166705 -0.0005045880458940618 -2.8600928876912395e-06 -0.0005045880458940618 -0.0016982605585224768 -1.0957398697011576e-06 -2.8600928876912395e-06 -1.0957398697011576e-06 -2.4256541179187858e-06" pbc="T T T"
C       -0.00617061      -0.00862717       3.68398791       0.00584201       0.00344842      -0.00431356
C       -1.25305920       2.12085770       3.79055583      -0.00093439       0.00129866       0.00116373
C       -2.49006711       4.26503287       3.49730648      -0.01292628      -0.00600319      -0.00077858
C       -3.70895347       6.41125783       3.34047558      -0.00228986      -0.00680551       0.00056386
C       -4.93441180       8.55859360       3.43887305      -0.00140344       0.00163087       0.00048488
C        2.46417036      -0.00653414       3.71874979       0.00116485       0.00003405       0.00264859
C        1.21026840       2.04582777       4.23834907      -0.00153885      -0.00052186       0.00268303
C       -0.12271720       4.31777109       4.00824117      -0.00049416      -0.00814141      -0.00845743
C       -1.27478911       6.42404335       3.48312582       0.00033804       0.00044276       0.00026629
C       -2.47939453       8.55772031       3.43278911       0.00026499       0.00582380      -0.00781094
C        4.93478638      -0.01447910       3.67225068       0.00552556       0.00200687      -0.00194145
C        3.72410593       2.03886803       4.25260735      -0.00479077      -0.00790864      -0.00223726
C        1.14505890       6.41322731       3.93589951      -0.00206138       0.00015514       0.01186560
C       -0.00829460       8.52960551       3.57694698       0.00317855      -0.00084783       0.01264992
C        7.40305970      -0.02678663       3.63398119      -0.00436036       0.00290133      -0.00183663
C        6.17418419       2.12222998       3.77611038      -0.00132467      -0.00107316       0.00891296
C        5.03121323       4.33084719       4.02499941       0.00837701      -0.00765300      -0.00194814
N        3.81570971       6.43873390       3.93910434       0.00981712       0.01279095       0.00489823
C        2.47975217       8.50261525       3.71290481      -0.00417691       0.01194031       0.00177548
C        9.86194448      -0.02366328       3.64185727       0.01235182      -0.00242777      -0.00596767
C        8.62888825       2.12021045       3.57996218      -0.00387155      -0.01046019      -0.00697399
C        7.40270904       4.26756510       3.48985500      -0.00598355      -0.00034849      -0.00120769
C        6.18800155       6.42869444       3.50213005      -0.00264039       0.00361104       0.00188127
C        4.94236111       8.53397906       3.59544776       0.00265547       0.00522432      -0.00519866
C       -0.01407882       1.40600425       3.90723126      -0.00006859       0.00255759      -0.00343652
C       -1.27625016       3.55196811       3.75113411      -0.00881280       0.00079731       0.00416573
C       -2.48864651       5.69282621       3.40401230      -0.00090144      -0.00618814      -0.01410572
C       -3.70612367       7.84203625       3.36989567      -0.00111081      -0.00183885      -0.00007127
C       -4.93627470       9.97654643       3.59124976       0.00089579       0.00174927       0.01833238
C        2.46674761       1.38000578       4.08694404      -0.00140416      -0.00187958       0.00477278
P        1.10189020       3.62060699       5.06662649       0.00374166      -0.01017100      -0.00214159
C       -0.07029970       5.73193559       3.78314698       0.00249557      -0.00529386       0.00049974
C       -1.24981745       7.84283075       3.46112253       0.00247790       0.00439728      -0.00028730
C       -2.47352559       9.97272708       3.58760620       0.00419136       0.00661673      -0.00535793
C        4.94207481       1.40028990       3.89736336       0.00022508      -0.00198985       0.00974253
P        3.88066248       3.57783113       5.15930449      -0.00892262       0.01565447       0.00071618
C        1.22669429       7.78345378       3.73183560       0.00192810      -0.00136165      -0.00112167
C       -0.00125414       9.95097950       3.60815387       0.00176140      -0.00150655      -0.00896579
C        7.39674587       1.40508497       3.64116717      -0.00679205      -0.00141367      -0.00476676
C        6.18628847       3.55949110       3.74304375       0.00209300      -0.00429905       0.00335612
C        5.00551407       5.74978019       3.80527218       0.00242762      -0.00287073       0.00128708
C        3.73158300       7.80079136       3.74330499      -0.00173015       0.01236336      -0.01307790
C        2.46826008       9.93120387       3.64315133       0.00137911       0.01138382       0.00749776
C        9.86159419       1.40679794       3.64967955       0.00467536      -0.00537773      -0.00015831
C        8.62578012       3.54770654       3.48525925      -0.01236319      -0.00840123       0.00658461
C        7.40624099       5.69310207       3.40350312      -0.00606934       0.00022806       0.00536558
C        6.17512443       7.84557342       3.48152445      -0.00116490       0.00330728      -0.01353570
C        4.93022758       9.95862177       3.62110643       0.01202620      -0.00184452       0.00827634
Fe       2.55988007       5.20276372       4.36556997       0.00830304      -0.00373627      -0.00469220
