49
Lattice="12.336457 0.0 0.0 -6.168228499999997 10.683685154694365 0.0 0.0 0.0 15.0" Properties=species:S:1:pos:R:3:forces:R:3 energy=-436.36927569313195 free_energy=-436.36927569313195 stress="-0.005813659214917538 0.0007224742966205067 -3.6915065803619456e-07 0.0007224742966205067 0.003224974648488646 7.386636163867933e-08 -3.6915065803619456e-07 7.386636163867933e-08 9.734679712609633e-07" pbc="T T T"
C        0.00472338       0.01714802       3.75034936      -0.00032461      -0.00550053       0.00628448
C       -1.24201095       2.12930282       3.74327235       0.00667710      -0.00115591       0.00292271
C       -2.47577558       4.27160739       3.73126337       0.00108131       0.00521200       0.00522922
C       -3.69758843       6.41767602       3.73395109      -0.00145547       0.00308624       0.00036440
C       -4.92191587       8.57315050       3.74548697      -0.00213299      -0.00510004       0.00410790
C        2.47187226       0.05662522       3.75269949      -0.00211794      -0.00042622       0.00181870
C        1.21699742       2.21097210       3.76402920      -0.00285545       0.00083980      -0.00161452
C       -0.04177595       4.27537577       3.74978194      -0.00487364       0.00059589       0.00021799
C       -1.25457863       6.41767836       3.73277587      -0.00218513       0.00177368      -0.00070049
C       -2.46802726       8.56348439       3.73810733       0.00112887       0.00069686      -0.00419115
C        4.93409083       0.00311439       3.74884878       0.00364978      -0.00415927      -0.00057340
C        3.73376279       2.12683666       3.77057086       0.00520844      -0.00719669      -0.00877885
O        1.13183245       6.42070782       3.75910289      -0.00514224      -0.00564103       0.00252305
C       -0.00765612       8.53009043       3.74549235      -0.00316588       0.00953303       0.00201889
C        7.40658783      -0.03139701       3.74975916       0.00143155      -0.00743921      -0.00634949
C        6.18439244       2.12038016       3.75202850      -0.00186633       0.00137553       0.00518412
C        5.00542580       4.26158995       3.78139421       0.00051875       0.00002430      -0.00463208
C        3.77859130       6.38712358       3.80200103       0.00162727      -0.00325797      -0.01741135
C        2.44117693       8.48145572       3.76813427       0.00282803      -0.00138583      -0.00634246
C        9.86385642      -0.02936857       3.74975329      -0.00543545      -0.00332669       0.00351749
C        8.63683679       2.11979809       3.73899122      -0.00378406      -0.00501576       0.00450576
C        7.41577696       4.27136664       3.74411321       0.00182312       0.00175346      -0.00198797
C        6.20389697       6.41902360       3.76036311       0.00670673       0.00224818       0.00168283
C        4.94194818       8.53279418       3.76391122       0.00006718       0.00948781      -0.00109282
C        0.00445501       1.44970167       3.75248780       0.00367251      -0.00477076      -0.00283776
C       -1.25592294       3.55157716       3.73934258      -0.00064205      -0.00051925      -0.00551405
C       -2.48094722       5.69304358       3.72991982      -0.00296769       0.00682117      -0.00205209
C       -3.70101052       7.84997359       3.73688756      -0.00030689       0.00050291       0.00581666
C       -4.92451273      10.00432361       3.74896737      -0.00329168      -0.00433664       0.00197739
C        2.48195854       1.50217161       3.76467181       0.00020358       0.00333097      -0.00306780
N        1.15942775       3.57813307       3.77083057      -0.00438781       0.00426687      -0.00943617
C       -0.07791501       5.69101098       3.74468985      -0.00694125      -0.00216623      -0.00047055
C       -1.25114561       7.84565322       3.73521417      -0.00004755       0.00072139       0.00970934
C       -2.47373911      10.00312549       3.74722724       0.00069818       0.00136759      -0.00511335
C        4.93922378       1.43349452       3.75654707       0.00542972      -0.00544476       0.00549516
O        3.79858495       3.53582869       3.79333509       0.00369802      -0.00216736      -0.00005223
C        1.19840247       7.83434575       3.76003880      -0.00353509       0.00729184      -0.00557088
C        0.00157583       9.96116644       3.74643899       0.00204099       0.00634245       0.01023300
C        7.40323070       1.40656511       3.74572919      -0.00693206      -0.00699925      -0.00124155
C        6.18622867       3.54412074       3.75795958      -0.00090605       0.00136938       0.00327826
C        4.96478186       5.68246363       3.78340764       0.00676220      -0.00066990      -0.00254798
C        3.70751971       7.75762901       3.77936016       0.00722335       0.00475194       0.00084576
C        2.46093475       9.92117458       3.75542799      -0.00180473      -0.00480620      -0.00073128
C        9.86591261       1.40157981       3.74140646       0.00267661      -0.00536496       0.00395874
C        8.63320941       3.55030162       3.73511503       0.00162668       0.00116506       0.00161788
C        7.41446523       5.69681749       3.74385789       0.00625527       0.00212827       0.00418912
C        6.18569442       7.84385576       3.75681514      -0.00259344       0.00192042      -0.00413476
C        4.93844324       9.96100374       3.75288349      -0.00207748       0.00544932       0.00768995
Fe       2.43609758       4.93295204       3.79997720      -0.00126231       0.00279410       0.00125621
