49
Lattice="12.336457 0.0 0.0 -6.168228499999997 10.683685154694365 0.0 0.0 0.0 15.0" Properties=species:S:1:pos:R:3:forces:R:3 energy=-429.6287481773763 free_energy=-429.6287481773763 stress="-0.006525196874081332 -0.0004777278802576787 -8.225256063856218e-06 -0.0004777278802576787 -0.006942586891308475 -4.669378171894075e-06 -8.225256063856218e-06 -4.669378171894075e-06 -2.8284171780631654e-07" pbc="T T T"
C       -0.00617930      -0.01063186       3.78963937      -0.00519275       0.00039135       0.00376090
C       -1.24306333       2.12866730       3.68255509       0.00333931       0.00115816       0.00157671
C       -2.48326987       4.26881054       3.79973324       0.00210199      -0.00530420      -0.00264861
C       -3.70625011       6.40413415       3.87508085       0.00187162       0.00259005       0.00130543
C       -4.94964233       8.53202496       3.81149830      -0.00232810       0.00410157      -0.00497276
C        2.45779956      -0.03598746       3.97010582       0.00005618       0.00042549       0.01220763
C        1.25041642       2.07108037       3.65516977      -0.00669167      -0.00507836      -0.00561347
C       -0.09137857       4.30790281       3.38860091      -0.00363798      -0.00590360      -0.00581703
C       -1.26737583       6.42221983       3.75566457      -0.00019411      -0.00142659      -0.00411215
C       -2.47960715       8.53646893       3.92674049      -0.00006728       0.00184056       0.00267933
C        4.93554896      -0.02502770       4.03017300       0.00152690      -0.00053579       0.00096978
C        3.68406555       2.06211378       4.24078704       0.01222948      -0.00591010      -0.00649660
C        1.18361025       6.42030707       3.46340568       0.00269161      -0.00227944       0.01122196
C       -0.00463822       8.53267295       3.78131369      -0.00422552       0.00854752      -0.00210284
C        7.39827529      -0.01069426       3.88925570      -0.00369007       0.00477901      -0.00028038
C        6.16910508       2.12247455       4.09429308      -0.00041434       0.00085672       0.00246027
C        4.97344821       4.30459149       3.90248559      -0.00302684      -0.00512665       0.00022588
S        3.81276803       6.40710054       2.38569678      -0.00417224       0.00899693      -0.00234267
C        2.46586094       8.55587064       3.50398088       0.00415356      -0.00028248      -0.00012978
C        9.86170880      -0.00251238       3.74937795       0.00173849       0.00130117       0.00545988
C        8.63107017       2.12759723       3.89490015       0.00137734      -0.00550091       0.00262409
C        7.40881577       4.26530396       3.92141844      -0.00467140       0.00033661       0.00355740
C        6.19072118       6.41349955       3.64707989       0.00223584       0.00037636      -0.00206109
C        4.93946454       8.55541194       3.53744396       0.00554546      -0.00008401       0.00109609
C       -0.00530582       1.41459948       3.70750982      -0.00423292      -0.00262102      -0.00683033
C       -1.25874031       3.55481470       3.62951460       0.00281976      -0.00380288      -0.00152612
C       -2.48178465       5.69217568       3.83153438       0.00132171      -0.00286313      -0.00333840
C       -3.71065417       7.82475780       3.88272452      -0.00162105       0.00319704      -0.00113185
C       -4.94556036       9.95391644       3.85868772      -0.00427440       0.00328985       0.00252132
C        2.46118453       1.38306579       3.98051145       0.00268112       0.00075382       0.00148543
P        1.33614190       3.54616070       2.67413575      -0.00960221       0.00369885      -0.00072412
C       -0.04529297       5.73176010       3.52868614      -0.00124667      -0.00791846       0.00082194
C       -1.24573726       7.83440491       3.84227525      -0.00087030       0.00304185      -0.00121090
C       -2.47174013       9.95004686       3.99521048       0.00271373       0.00114234       0.00087565
C        4.93394607       1.40222755       4.14954266       0.00701572      -0.00424224      -0.00411417
P        3.60010047       3.72223582       4.88959376       0.00098177       0.01544095      -0.00195201
C        1.22821536       7.80343382       3.56562016      -0.00125710       0.00237080       0.00310633
C       -0.00135504       9.95284146       3.90815537      -0.00265885       0.00622639       0.00111788
C        7.39772687       1.41322224       3.97951817      -0.00316081       0.00063880       0.00256392
C        6.17965456       3.54731202       4.00146112      -0.00490649      -0.00394262      -0.00458195
C        5.02583611       5.66009544       3.44306733       0.00639398      -0.00872647       0.00308679
C        3.70514804       7.92848331       3.24084304       0.00771984      -0.00554526       0.00234805
C        2.46080519       9.97054383       3.73185471      -0.00083371       0.00282745      -0.00353390
C        9.86469084       1.42228946       3.79163670       0.00612978       0.00071579       0.00146627
C        8.63369040       3.55247837       3.89491765      -0.00226032      -0.00375994       0.00342255
C        7.41072740       5.68903615       3.84405737       0.00083683       0.00326726      -0.00081178
C        6.16683483       7.83333054       3.62963042       0.00244943       0.00281324      -0.00671155
C        4.92935939       9.97318818       3.70973534      -0.00094741      -0.00077045       0.00401745
Fe       2.57822801       5.06872951       3.54789544      -0.00374691      -0.00350131      -0.00293450
