49
Lattice="12.336457 0.0 0.0 -6.168228499999997 10.683685154694365 0.0 0.0 0.0 15.0" Properties=species:S:1:pos:R:3:forces:R:3 energy=-434.83974858377405 free_energy=-434.83974858377405 stress="-0.004472203351837083 -0.0004496956262918717 -2.947371751936124e-06 -0.0004496956262918717 -0.002694676521736176 -1.3054749590184332e-05 -2.947371751936124e-06 -1.3054749590184332e-05 -2.1017544114926016e-06" pbc="T T T"
C       -0.00232726       0.00419372       3.95584306      -0.00449629      -0.00345791       0.00156536
C       -1.24411859       2.12199542       3.99086080      -0.00146428       0.00455577      -0.00434129
C       -2.47451727       4.26867480       3.99369636      -0.00458893       0.00403388       0.00038505
C       -3.69112855       6.41339292       3.98099810      -0.00204121      -0.00521437      -0.00415501
C       -4.92394949       8.56006756       3.97605355       0.00377211       0.00250316       0.00467519
C        2.46219351       0.01474640       3.86002071      -0.00090046       0.00134531      -0.00034020
C        1.20588894       2.16744022       3.76728067       0.00873806      -0.01096295       0.00292546
C       -0.04377396       4.22075891       3.73695548       0.00020996      -0.00410380      -0.00387039
C       -1.23978293       6.40131525       3.74795194      -0.00568120      -0.00011340       0.00486990
C       -2.46206921       8.54958508       3.86861355       0.00085088       0.00108981       0.01014673
C        4.92983032       0.00315660       3.79852821       0.00108988       0.01089000       0.00585587
C        3.68961005       2.09039339       3.44807835       0.00366135      -0.00061608      -0.00693772
P        1.22725546       6.38719195       2.53442596      -0.00745392      -0.00095502      -0.00697520
C       -0.00947615       8.55709729       3.66378102      -0.00270908       0.00475473      -0.00482517
C        7.39847961      -0.00122545       3.85922822       0.00455824       0.00735954       0.00567587
C        6.17216337       2.13520231       3.73227332      -0.00800066       0.00471884       0.00272659
C        5.02685295       4.31186388       3.44092484       0.00749409      -0.01168154       0.00552503
C        3.73191977       6.39947524       3.57103962       0.00215000      -0.00446347       0.00539483
C        2.46694580       8.55348689       3.68262116      -0.00006465       0.00053940      -0.00924626
C        9.86384830      -0.01000190       3.95804008       0.00688095       0.00015591       0.00517398
C        8.62918487       2.13094204       3.98063467      -0.01426917       0.00763416       0.00052489
C        7.41305835       4.27735389       3.91895627       0.00261360       0.00144045       0.00302665
C        6.19474355       6.43075653       3.87926107       0.00383308      -0.00125871      -0.00360636
C        4.93606386       8.53780014       3.88746910       0.00422936      -0.00848634      -0.01121663
C       -0.00602521       1.43293653       3.92279917       0.00105325      -0.00328393      -0.00409295
C       -1.24962514       3.53674008       3.95061278      -0.00355119       0.00550588      -0.00454753
C       -2.46865556       5.69300021       3.94007610      -0.00321102      -0.00045540       0.00459727
C       -3.69454597       7.84144617       3.95643401       0.00164526      -0.00446407       0.00437491
C       -4.93195341       9.98324504       3.94733861      -0.00252223       0.00235075       0.00048015
C        2.45249567       1.43947468       3.69182256       0.00619063      -0.00741935      -0.00676826
N        1.16323628       3.54452531       3.67792560       0.00566330      -0.00830553       0.00990724
C       -0.06321481       5.64196109       3.52827171      -0.00413340       0.00246390       0.00924735
C       -1.23745896       7.83534619       3.73723806      -0.00169839       0.00090066      -0.00444722
C       -2.47203294       9.97914630       3.84874921       0.00129277       0.00520480      -0.00166942
C        4.93264610       1.42541321       3.66661785      -0.00126855       0.00778444      -0.01041685
P        3.77798803       3.55222376       2.43367348      -0.00292301      -0.01169067       0.00076060
C        1.23248991       7.90697331       3.44448687      -0.00602891      -0.00337026       0.00092129
C       -0.00558952       9.97805389       3.79845370       0.00347066       0.00939677       0.00462583
C        7.39529573       1.42441604       3.88283585      -0.01296532       0.00732799      -0.00034255
C        6.19139895       3.56338455       3.71139254       0.01184131      -0.00288530       0.00045712
C        4.97374024       5.73731593       3.63591417       0.00316894      -0.00636848       0.01128793
C        3.70206695       7.79622749       3.71456365       0.00068096      -0.00272060      -0.00675545
C        2.46406241       9.96723112       3.86629471       0.00759163       0.00125728       0.00019369
C        9.86030935       1.41223551       4.00727293      -0.00689034       0.00719272       0.00419907
C        8.63119503       3.55773894       3.99814069      -0.00382195       0.00643916      -0.00291337
C        7.41504757       5.70366068       3.95358378      -0.00078114      -0.00214384      -0.01192821
C        6.17931303       7.84778549       3.94221565       0.00651022      -0.00158800      -0.00803983
C        4.93241472       9.96246084       3.95005934       0.00165579      -0.01030601       0.00670385
Fe       2.44589955       4.88994369       3.51441045       0.00061902       0.00946973       0.00120818
