49
Lattice="12.336457 0.0 0.0 -6.168228499999997 10.683685154694365 0.0 0.0 0.0 15.0" Properties=species:S:1:pos:R:3:forces:R:3 energy=-436.56703270988385 free_energy=-436.56703270988385 stress="-0.006855436283900452 0.0006217046762501328 4.4362561734617945e-07 0.0006217046762501328 0.0029928005370479537 -7.982582097538312e-07 4.4362561734617945e-07 -7.982582097538312e-07 1.559821292761007e-06" pbc="T T T"
C        0.00276699       0.00720384       3.74574828       0.00010542       0.00865943       0.00548989
C       -1.24301230       2.12972230       3.73962088      -0.00898795      -0.00982133      -0.00463701
C       -2.47602761       4.27592503       3.73125990       0.00151206      -0.00828624      -0.00703216
C       -3.70016848       6.41959147       3.73610126       0.00635799      -0.00336859      -0.00718638
C       -4.92377002       8.57068831       3.74478295       0.00758257       0.01172443      -0.00013821
C        2.46432819       0.05605182       3.75317409       0.00169668       0.00273741      -0.00639940
C        1.20828032       2.14239855       3.76009964      -0.00024420       0.00624729      -0.00277063
C       -0.07555562       4.29454679       3.73832060       0.00010692      -0.00260392       0.00102152
C       -1.26288262       6.41956850       3.72919637       0.00140444       0.00234483      -0.00055105
C       -2.46942291       8.56722415       3.73836184      -0.00159405       0.00306132       0.00270416
C        4.93342151       0.01216376       3.74573362      -0.00677021       0.01468837       0.01007923
C        3.72908088       2.19109492       3.77833606      -0.01151870       0.00497657      -0.00316282
O        1.12829949       6.42202265       3.74323619       0.00978758      -0.00184076       0.00276084
C       -0.01024377       8.53446678       3.74145670       0.00384500      -0.01472063       0.00503595
C        7.40761664      -0.03244864       3.74666752      -0.01004766       0.00843558       0.00503606
C        6.18642828       2.12064724       3.74983622       0.00881978      -0.00429070       0.00635873
C        4.98687016       4.24096577       3.78842938       0.00134762      -0.00231256      -0.00907636
C        3.78616804       6.38454797       3.81948784       0.00440124       0.00725127      -0.00961854
C        2.43971342       8.48072606       3.76778143      -0.00653937      -0.00325758       0.00271068
C        9.86387527      -0.03173048       3.75048814      -0.00316761       0.00277749      -0.00203506
C        8.64022791       2.11793779       3.74043736       0.00445483       0.00918181      -0.00731695
C        7.42076408       4.26834201       3.74004245      -0.00311299      -0.00442488       0.00875528
C        6.20585500       6.42147563       3.75653414      -0.00021052      -0.00021954       0.01092987
C        4.94014213       8.52895083       3.76285801       0.00198656      -0.01482261       0.00381814
C        0.00319287       1.44229663       3.74505049      -0.00335821       0.00529473       0.01293899
C       -1.25183328       3.55626863       3.73353267      -0.00129581      -0.00969559      -0.00109187
C       -2.48107438       5.69495908       3.73065948       0.00864815      -0.00884661      -0.00545152
C       -3.70191018       7.85171999       3.73987767       0.00242707       0.00107801      -0.00839662
C       -4.92735416      10.00381443       3.74678380       0.00533693       0.00806015       0.00501188
C        2.45615372       1.50234677       3.76693689      -0.00787978      -0.00357791      -0.00478358
O        1.14470939       3.56217982       3.76001593       0.01216844      -0.00517223       0.00150940
C       -0.08398343       5.68744449       3.73286106       0.00557681       0.00349415       0.00714991
C       -1.25344324       7.84540729       3.73471550      -0.00018331       0.00198484      -0.00521560
C       -2.47621797      10.00438679       3.74588023      -0.00051283       0.00349233       0.00022222
C        4.93871016       1.44092548       3.75605345      -0.00575216       0.01326393       0.00664173
N        3.80446973       3.55650736       3.81032958       0.00398721      -0.00193323      -0.00899418
C        1.19529600       7.83268353       3.75369903       0.00485400      -0.01613539       0.00256542
C        0.00063048       9.96450690       3.74415578      -0.01001014      -0.00977968      -0.00292305
C        7.41236745       1.40092851       3.74421405       0.01386442       0.00680693      -0.00326170
C        6.20037488       3.53931997       3.75581397       0.00182192      -0.00522231       0.00638006
C        4.97363358       5.69321598       3.78932768      -0.00569882       0.00277673       0.00048162
C        3.70659742       7.76112179       3.78564913      -0.00974934      -0.00958546      -0.00942371
C        2.46073760       9.91912122       3.75503162      -0.00786888       0.00259160      -0.00518810
C        9.87512115       1.40416718       3.74248185      -0.00931054       0.00619674      -0.00149814
C        8.64058136       3.54923701       3.73427373      -0.00181799       0.00108578       0.00429494
C        7.41879091       5.69817760       3.74108863      -0.00345166      -0.00539719       0.00431474
C        6.18500408       7.84568980       3.75271570       0.01105323       0.00012835       0.00427230
C        4.93677623       9.95653097       3.75065995      -0.00236504      -0.00578612       0.00863184
Fe       2.51730797       4.92350880       3.85492086      -0.00169911       0.01276098      -0.01296274
