49
Lattice="12.336457 0.0 0.0 -6.168228499999997 10.683685154694365 0.0 0.0 0.0 15.0" Properties=species:S:1:pos:R:3:forces:R:3 energy=-435.3981460871132 free_energy=-435.3981460871132 stress="-0.004744482377144321 0.0038889809901897685 -4.382558435510094e-06 0.0038889809901897685 -0.0010361132486352625 1.6524008929779407e-06 -4.382558435510094e-06 1.6524008929779407e-06 2.0694903896832333e-06" pbc="T T T"
C       -0.01406741       0.01322263       3.79046310       0.00428883      -0.00100058       0.00210852
C       -1.22853234       2.14889201       3.94752831      -0.00644537       0.00031518      -0.00561889
C       -2.45427785       4.28182257       3.93147457      -0.00091234      -0.00240331      -0.00000691
C       -3.71394515       6.41394232       3.77214274       0.00338886       0.00092708       0.00254775
C       -4.96360584       8.55274155       3.67952760      -0.00811108      -0.00048678      -0.00584357
C        2.44727549       0.02232244       3.72406733       0.00284647       0.00103309       0.00651430
C        1.23839733       2.20494057       3.83088573       0.00204711       0.00169871       0.00936238
C        0.02503112       4.31596065       4.05993090       0.00424162       0.00334662      -0.00591371
C       -1.27193467       6.43904931       4.01865930      -0.00233609      -0.00122392      -0.00499651
C       -2.49720280       8.56349562       3.84246172      -0.00641710      -0.00396748       0.00057638
C        4.92535337       0.00615756       3.77822290      -0.00728728       0.00453594      -0.00064621
C        3.71860862       2.12057960       3.48762425       0.00181965       0.00224700       0.00025298
O        1.06818618       6.52895088       4.26611367       0.00021440      -0.00273393      -0.00117878
C       -0.04346216       8.56547696       3.96566878       0.00100000       0.00527641      -0.00209931
C        7.40003816      -0.01204185       3.90906347      -0.00205590       0.00656865       0.00449379
C        6.19985870       2.10895009       3.65927975       0.00068373      -0.00319997      -0.00668125
C        5.04157061       4.19407909       3.22462658       0.00211560      -0.00426823      -0.00470705
P        3.51768216       6.33032886       2.60899445      -0.00877542       0.00997293       0.00774472
C        2.42063104       8.51886856       3.84534009       0.00624682       0.00139579       0.00313973
C        9.86059227      -0.01145537       3.89455116       0.00261821      -0.00151563      -0.00547188
C        8.65019311       2.12956928       3.88198683      -0.00393715      -0.00154131      -0.00273284
C        7.44430008       4.26247724       3.64714724       0.00287577      -0.00330558       0.00569140
C        6.18653839       6.40458817       3.42401334       0.00032748      -0.00613255       0.00686427
C        4.89973951       8.53604223       3.60333538       0.00113282       0.00024738       0.00479022
C       -0.00308034       1.44589166       3.86944947      -0.00329433       0.00051628       0.01173101
C       -1.22189315       3.57929992       4.00210486       0.00183776       0.00290319      -0.00952984
C       -2.48467409       5.70458346       3.91378862       0.00015682      -0.00307157       0.00292199
C       -3.72956136       7.84388786       3.76300725      -0.00829795       0.00033254      -0.00248003
C       -4.95455347       9.98287745       3.73370867       0.00328245      -0.00031165      -0.00379332
C        2.46036594       1.44872331       3.67344947       0.00329785       0.00266492       0.00286104
C        1.23642829       3.60749764       3.97047208       0.01279361       0.00235961       0.00708715
C       -0.06612637       5.75198425       4.12035333      -0.00257332       0.00008599       0.00309499
C       -1.27877305       7.85986853       3.96087174      -0.00165241      -0.00063895      -0.00496600
C       -2.48914171       9.98935837       3.77307299      -0.00356072      -0.00311708       0.00554512
C        4.95466654       1.41362501       3.63166379      -0.00099132       0.00185904      -0.00236005
C        3.82218510       3.48141868       3.19713693      -0.00153782       0.00411923      -0.00629641
C        1.15673149       7.87061877       3.98324151       0.00338275       0.00236978      -0.00114708
C       -0.01422418       9.98284006       3.88951601      -0.00543144       0.00925360      -0.00011995
C        7.42046381       1.40872521       3.83410358      -0.00180451       0.00203253      -0.00585138
C        6.24169859       3.51658619       3.49843321       0.00351816      -0.00458529       0.00059384
C        5.02960885       5.63701866       3.16467367       0.00032033      -0.00294421      -0.01489469
C        3.64342375       7.85354829       3.52494797       0.00494910      -0.00339926       0.00366079
C        2.45139949       9.95012382       3.92398145       0.00078589       0.00312661      -0.00352559
C        9.87266743       1.41822801       3.93188038      -0.00622470      -0.00225774      -0.00376937
C        8.65886893       3.55780186       3.83229936      -0.00009375      -0.00421157      -0.00109687
C        7.41701773       5.69134935       3.61396619       0.00731527      -0.00236491       0.00147699
C        6.14639225       7.83226860       3.54348259      -0.00679368      -0.00458015       0.00856155
C        4.92094336       9.96720998       3.78355380       0.00491519      -0.00064868       0.00010265
Fe       2.82959161       4.74425323       4.02845147       0.00613112      -0.00527780       0.00400395
