50
Lattice="12.336457 0.0 0.0 -6.168228499999997 10.683685154694365 0.0 0.0 0.0 15.0" Properties=species:S:1:pos:R:3:forces:R:3 energy=-452.669717208295 free_energy=-452.669717208295 stress="-0.003423754411514983 -5.356682660438807e-07 2.9245474990656647e-07 -5.356682660438807e-07 -0.0034011331801925677 -1.952479012158148e-06 2.9245474990656647e-07 -1.952479012158148e-06 -1.0224650743724528e-06" pbc="T T T"
C       -0.00258707      -0.00522888       3.62390336      -0.00549422       0.00768902      -0.00983743
C       -1.23419833       2.13522143       3.65217289       0.00669942      -0.00150010       0.00794491
C       -2.46721438       4.27176202       3.65204521       0.00615185       0.00165198       0.01271609
C       -3.70158667       6.40709018       3.63717508      -0.00353072      -0.00412733      -0.01733328
C       -4.93536006       8.54242021       3.62680914      -0.00873674      -0.00277485       0.00369964
C        2.46642094      -0.01119534       3.60624800      -0.00120475      -0.00334348       0.01157143
C        1.23225606       2.11616923       3.70932837      -0.00174086      -0.00074791      -0.00471024
C       -0.00236148       4.28542839       3.84153424      -0.01511619       0.00096620       0.01030568
C       -1.24127357       6.41485636       3.72719035      -0.00439605      -0.00241692      -0.00369728
C       -2.46810279       8.54265599       3.62706289       0.00835825      -0.00392349      -0.00519044
C        4.93529935      -0.00487103       3.62435065       0.00477511       0.00747175      -0.01028808
C        3.70033175       2.11656889       3.70932305       0.00334171      -0.00342933       0.00345945
C        2.46624402       4.14389630       4.14787226      -0.00038986      -0.00164036      -0.00731269
N        1.11799533       6.47087156       4.10357485       0.00858761      -0.00061143       0.01112612
C       -0.00549348       8.54366147       3.72685218      -0.00312732       0.00627672      -0.00704154
C        7.40156055      -0.00609906       3.66167384       0.00017282      -0.00796466      -0.00617133
C        6.16681135       2.13575610       3.65371467      -0.00392630      -0.00607930       0.00905980
C        4.93533361       4.28569895       3.84573415       0.01166553       0.00042772       0.00553698
N        3.81435889       6.47128385       4.10661729       0.00085763       0.00081127       0.00568539
C        2.46637046       8.52700493       3.84317715      -0.00216907       0.00636006       0.00762316
C        9.86717183      -0.00653547       3.66161770       0.00556730      -0.00289786      -0.00732656
C        8.63470508       2.13407828       3.62463422      -0.00345355       0.00454196       0.00379112
C        7.40013115       4.27188617       3.65386346      -0.00479341       0.00381686       0.01546928
C        6.17427063       6.41485423       3.73203384       0.00455796      -0.00033783      -0.01036331
C        4.93837713       8.54367876       3.72760040       0.00147096       0.00162628      -0.00640625
C       -0.00274946       1.41782938       3.64692232       0.00387736       0.00577211       0.00289076
C       -1.22680359       3.56791642       3.69808713       0.00040697      -0.00510992       0.01266230
C       -2.46980254       5.69415940       3.65960281      -0.00175197      -0.00084063       0.00159148
C       -3.70162266       7.82993000       3.62440240      -0.00237192      -0.00166056      -0.01002667
C       -4.93626008       9.96607973       3.60943010      -0.01016920       0.00231329      -0.00423985
C        2.46633078       1.41124781       3.66059781       0.00101151       0.00125461       0.01162366
C        1.23740266       3.54268282       3.88654864      -0.01482223      -0.00294339      -0.00490197
C       -0.02377558       5.71831563       3.88741756      -0.00430632       0.00228827       0.00047084
C       -1.23802855       7.83306444       3.69106865       0.00520951      -0.00577916      -0.01287060
C       -2.46729892       9.96635545       3.60887642       0.00812687      -0.00033302       0.00270549
C        4.93533762       1.41826390       3.64853328      -0.00033338       0.00364287      -0.00410743
C        3.69550762       3.54291745       3.88819803       0.00955909      -0.00522333      -0.00478726
C        1.20478500       7.83734972       3.88854582      -0.00336559       0.00484206      -0.00638530
C        0.00091194       9.96993577       3.65928596      -0.00084815       0.00306253      -0.00553106
C        7.39947233       1.42184768       3.63278060      -0.00608959      -0.00431636       0.00313445
C        6.15964313       3.56826738       3.70094741       0.00077161      -0.00400446       0.01262999
C        4.95645694       5.71850652       3.89208607       0.00997694       0.00457927       0.00185538
C        3.72803178       7.83743059       3.88928238       0.00004061       0.00446114      -0.00283442
C        2.46605593       9.95345474       3.70890092       0.00380656      -0.00320330       0.00041254
C        9.86967176       1.42133318       3.63248910       0.00277424       0.00169681       0.00076890
C        8.63464895       3.55883050       3.62621860       0.00091773       0.00777163       0.01147240
C        7.40296170       5.69431567       3.66255094      -0.00272793      -0.00270005      -0.00072854
C        6.17095817       7.83298496       3.69291965      -0.00386596      -0.00618826      -0.01243561
C        4.93162427       9.96981634       3.65911483       0.00277282      -0.00114563      -0.00517645
Fe       2.46535966       5.74095693       5.02974261      -0.00272668       0.00191853      -0.00050368
