50
Lattice="12.336457 0.0 0.0 -6.168228499999997 10.683685154694365 0.0 0.0 0.0 15.0" Properties=species:S:1:pos:R:3:forces:R:3 energy=-447.9772975433348 free_energy=-447.9772975433348 stress="-0.0030936797985493853 0.0026803937080716106 -1.3651889912286723e-05 0.0026803937080716106 -0.006181125870737134 -3.5322541765214918e-06 -1.3651889912286723e-05 -3.5322541765214918e-06 6.658754649868438e-07" pbc="T T T"
C       -0.01931042      -0.01261236       3.83632136       0.00641508       0.00661096       0.00141272
C       -1.23769928       2.13588716       3.90958144      -0.00295489      -0.00612679       0.00314658
C       -2.46868222       4.26783523       3.90945760      -0.00418788       0.00127529       0.00335154
C       -3.71994477       6.39731383       3.83758690       0.00635152       0.00095005      -0.00254846
C       -4.96802895       8.52595777       3.77305229      -0.00099459      -0.00009341       0.00985763
C        2.44112974      -0.02759458       3.84362587      -0.00131728      -0.00956645      -0.00078001
C        1.22878960       2.11614355       3.90777449       0.00308900       0.00516902      -0.00286395
C        0.00767264       4.27633372       3.96592033      -0.00302190      -0.00347341      -0.01236912
C       -1.25249786       6.41378973       3.90664398       0.00505677       0.00045716       0.00007835
C       -2.50299510       8.53548609       3.84274978      -0.00602729       0.00615979       0.00390047
C        4.91112727      -0.01528909       3.80205623       0.00160427       0.00340933      -0.00039836
C        3.68459456       2.09271457       3.79023686      -0.01266191       0.00359873      -0.01002925
C        2.48794823       4.22612616       3.87620448      -0.00303619      -0.00785032      -0.00991366
C        1.20407656       6.44951904       3.87544617      -0.00397940      -0.00110326      -0.00882457
C       -0.04507853       8.55232828       3.78917142      -0.00241790      -0.01178995      -0.00818349
C        7.37824192       0.00078916       3.76951081      -0.00297967       0.00192251       0.01679511
C        6.15846567       2.11340520       3.76942823       0.00315986      -0.00473046       0.00987283
C        4.94128617       4.22003844       3.56309513       0.00610319       0.00126370       0.00760105
S        3.82863095       6.48162278       2.06556522      -0.01287048      -0.00540421      -0.00230750
C        2.42586908       8.57681425       3.56409988       0.00560789       0.00616482       0.00831215
C        9.85593277       0.00652786       3.78040151      -0.00201414       0.00139543      -0.01475239
C        8.62888512       2.13117489       3.84535376       0.00759585       0.00461587      -0.00382162
C        7.40257424       4.25623922       3.77906812      -0.00179828      -0.00582778      -0.01145653
C        6.15063453       6.39214036       3.60281688      -0.00073497       0.00116517       0.00781671
C        4.91163590       8.53780440       3.60284001      -0.00147045       0.00203449       0.00681893
C       -0.00930697       1.41427157       3.89692503       0.00455968       0.00600968       0.00554796
C       -1.22877698       3.56243666       3.94375785      -0.00709613      -0.00605696      -0.00148295
C       -2.47930398       5.69246524       3.89676103       0.00679879       0.00110693       0.00708126
C       -3.73203013       7.81873608       3.82398747      -0.00187653       0.00345215      -0.00260303
C       -4.96244012       9.95005721       3.82341878       0.00139846      -0.00385647      -0.00029242
C        2.44811301       1.39531629       3.85458187      -0.00898090      -0.00879840       0.00274209
C        1.25430886       3.56161104       3.93730012       0.00647739       0.00670264      -0.00135987
C        0.01206373       5.71330953       3.93670550       0.00547325      -0.00054645      -0.00291249
C       -1.26728274       7.83011300       3.85345046      -0.00868406      -0.00158934       0.00132978
C       -2.49442893       9.95404240       3.82824597       0.00272376       0.00327812       0.00135907
C        4.92257666       1.40025763       3.77895732      -0.00740843       0.00659678       0.00678369
C        3.68789942       3.51689174       3.71947573       0.00575278       0.00455527      -0.00489974
C        1.18993236       7.84327006       3.71898026       0.00749158       0.00005758      -0.00463153
C       -0.02546355       9.97065886       3.77860778      -0.00170263      -0.00935644       0.00570427
C        7.38995241       1.41599612       3.80206298       0.00940854       0.00337113       0.00864394
C        6.17222803       3.53559665       3.70856095       0.00443779      -0.00972140       0.00094623
C        4.94372865       5.64544066       3.33854157      -0.00818556       0.00029387      -0.00355813
C        3.66139343       7.86574545       3.33960562      -0.00471282      -0.00137180      -0.00520433
C        2.44848647       9.98499451       3.71113616      -0.00384212       0.00885739      -0.01059868
C        9.86362474       1.42651351       3.85876521      -0.00038399      -0.00264599      -0.00274694
C        8.63598395       3.55280838       3.85843900      -0.00226221       0.00178292      -0.00428163
C        7.38418618       5.68146574       3.76078676       0.00257450      -0.00313711       0.00318033
C        6.13095289       7.81132855       3.64157787       0.00025417       0.00190483       0.00115460
C        4.91279318       9.96164466       3.75984003       0.00222149       0.00498381       0.00992842
Fe       3.02583081       6.01923873       3.93217918       0.01304701       0.00390096      -0.00054500
