49
Lattice="12.336457 0.0 0.0 -6.168228499999997 10.683685154694365 0.0 0.0 0.0 15.0" Properties=species:S:1:pos:R:3:forces:R:3 energy=-429.2965180840042 free_energy=-429.2965180840042 stress="-0.0037610775231069517 -0.0002535671183007837 -5.4059550840402295e-06 -0.0002535671183007837 -0.00980046613760144 4.513567717163833e-06 -5.4059550840402295e-06 4.513567717163833e-06 2.781354049058118e-06" pbc="T T T"
C       -0.01369774      -0.02313292       3.51671557      -0.00361125       0.00300311       0.00462323
C       -1.24497979       2.12434008       3.33359081       0.00352301       0.00270377      -0.00255243
C       -2.49631059       4.26210921       3.46008101      -0.00267703       0.00025520       0.00782658
C       -3.72474722       6.39175528       3.63510275       0.00119391      -0.00776130       0.00494622
C       -4.94655871       8.52145512       3.65128789       0.00241664      -0.00363646      -0.00284533
C        2.45236967      -0.06286468       3.66160150      -0.00504994       0.00433633      -0.00966475
C        1.25019884       2.03835556       3.33303374       0.00161794       0.00314150      -0.00627231
C       -0.06984000       4.29207928       3.23068274      -0.00139005       0.00455674      -0.00327906
C       -1.26384649       6.39541696       3.67831243       0.00495818       0.00139554       0.00322281
C       -2.47318381       8.51391645       3.73265064      -0.00119536      -0.00200776       0.00766222
C        4.92203351      -0.02678976       3.80217291       0.00646969      -0.00921096      -0.00039867
C        3.65298453       2.04292768       3.96744162      -0.00288082       0.01071467      -0.01421349
P        1.39295151       6.22961179       4.38044590      -0.01122716      -0.00986385      -0.01286444
C       -0.01505816       8.54160848       3.86935068       0.00184897       0.00135606       0.00631603
C        7.38538416       0.00918342       3.74766891       0.00301913       0.00423000      -0.00714626
C        6.14570993       2.12858597       3.85596656      -0.00352092      -0.00415313       0.00251113
C        4.97725840       4.29950216       4.11531960       0.01663126       0.00151551      -0.00219139
C        3.69465478       6.46048586       4.17350631      -0.00239893      -0.00100807      -0.00551238
C        2.47145033       8.59698347       3.90032073      -0.00451646       0.00101607       0.01532810
C        9.86138927       0.01126013       3.59681176       0.00330552      -0.00529279      -0.00171177
C        8.61499489       2.13448635       3.57248586       0.00246262      -0.00005178      -0.00273237
C        7.38420644       4.26590689       3.69957000      -0.00065410       0.01064018       0.00271850
C        6.14942708       6.41050760       3.78802042      -0.00779694       0.00825108       0.00070962
C        4.92796296       8.54838825       3.75089134       0.00040107      -0.00070693       0.00423191
C       -0.00882205       1.40324166       3.36933501       0.00119097       0.00145552      -0.00514885
C       -1.26158594       3.54290988       3.29835636      -0.00227835       0.00593225      -0.00452660
C       -2.49530646       5.68204720       3.57336484       0.00575878      -0.00191967       0.00452239
C       -3.71428022       7.81130188       3.67095446       0.00264563      -0.00970655      -0.00187748
C       -4.95289108       9.93518531       3.59491989      -0.00534533      -0.00011327       0.00166470
C        2.44554331       1.34843729       3.66639169      -0.00056768       0.00889586       0.00364314
S        1.44869283       3.64074601       2.72933488      -0.00438921      -0.01164338       0.00562493
C       -0.05503579       5.64696463       3.61699113       0.00046828      -0.00920785       0.00570875
C       -1.24059722       7.81118217       3.79280377       0.00057080       0.00117795       0.01240532
C       -2.47462209       9.93068913       3.74870966      -0.00163706      -0.00039774      -0.01468714
C        4.91849163       1.39850791       3.89403905      -0.00420421      -0.00791239       0.00240648
P        3.55005305       3.55485518       4.78195626      -0.00728793      -0.00038357       0.01284235
C        1.24391200       7.90568643       4.00616884      -0.00397114      -0.00116959      -0.00229182
C       -0.01238735       9.96577910       3.80597829       0.01069627      -0.00168133      -0.00102595
C        7.37928911       1.42954478       3.71719391      -0.00389783       0.00302398      -0.01274619
C        6.15416250       3.55416566       3.87961318       0.00633806       0.00253522      -0.00113906
C        4.92460150       5.72674929       4.03589753       0.00288323      -0.00015021      -0.00673294
C        3.69626282       7.85518082       3.94054290      -0.00246179       0.00026314       0.00322255
C        2.46006072      10.00245837       3.73256195      -0.00077575       0.00034627       0.00146932
C        9.85924098       1.42851680       3.47996786       0.00700981      -0.00337951       0.00327843
C        8.60892444       3.55447339       3.55891114      -0.00303634       0.00254862       0.00190465
C        7.37797096       5.68562636       3.69032644      -0.00836514       0.01029900       0.00774913
C        6.15425639       7.82608871       3.71704631      -0.00124423       0.00538024      -0.00044757
C        4.92192778       9.96755900       3.60774000       0.00089730      -0.00273271      -0.00199251
Fe       2.91477770       5.46457355       5.59258254       0.01007387      -0.00488301      -0.00253773
