49
Lattice="12.336457 0.0 0.0 -6.168228499999997 10.683685154694365 0.0 0.0 0.0 15.0" Properties=species:S:1:pos:R:3:forces:R:3 energy=-438.11231516209796 free_energy=-438.11231516209796 stress="-0.00629336974491082 0.0001225524752181684 -1.1679696262814898e-05 0.0001225524752181684 0.00016285721961216683 -6.28030646948041e-06 -1.1679696262814898e-05 -6.28030646948041e-06 2.5052271010482174e-07" pbc="T T T"
C       -0.00125475      -0.00957721       3.73873471       0.00039529      -0.00607228      -0.00234310
C       -1.23967231       2.12235460       3.56795837      -0.01129153       0.01203963       0.00255099
C       -2.48489043       4.26981095       3.78351346      -0.00460017      -0.00012639       0.00933351
C       -3.70845885       6.41347325       3.96000102       0.01047462      -0.00019071      -0.00216221
C       -4.93154377       8.55658510       3.93181675      -0.00397305      -0.00786039      -0.00093137
C        2.46671520       0.01668026       3.79787529      -0.00374420       0.00401395       0.00221950
C        1.23636365       2.05728162       3.31091350      -0.00599559      -0.00264802       0.00052301
C       -0.11613636       4.31832387       3.28306352       0.00925713      -0.01095102      -0.00075125
C       -1.28326466       6.43321715       3.77333714      -0.00130315      -0.00579876      -0.00656006
C       -2.47979390       8.56600433       3.91821646       0.00147723       0.00064328      -0.00349372
C        4.93625104       0.01009725       3.85677536      -0.01359739      -0.00458074      -0.00195307
C        3.70427172       2.19382053       3.70901804       0.01236060      -0.00150157       0.00756297
C        1.15865228       6.40683505       3.52470590      -0.00386398      -0.00261690      -0.00521791
C       -0.01297705       8.53879312       3.81023030       0.00685091       0.00398082       0.00874403
C        7.41119137      -0.02670478       3.83979331       0.00663651       0.00088954       0.00600438
C        6.18384118       2.12159668       3.89794982      -0.00218005      -0.00096397       0.00270502
C        4.95014757       4.26588957       3.88709952      -0.00002078       0.00629096       0.00312787
N        3.79292518       6.40905716       3.80420791       0.00372224       0.00670250       0.00388040
C        2.48227210       8.49525244       3.77828521       0.00986962      -0.00454537       0.00019083
C        9.87088213      -0.02724774       3.77617110       0.00739772      -0.00128549       0.00891322
C        8.64292285       2.11867207       3.83726540       0.00353946      -0.00170605      -0.01201711
C        7.41188654       4.26391434       3.96553327       0.00215433       0.00289367      -0.01111338
C        6.18615007       6.41905898       3.98058328      -0.00228719       0.00684015       0.01456360
C        4.94462102       8.52587157       3.86931313      -0.01072771       0.00539559      -0.00170470
C       -0.00782653       1.40858838       3.53250464      -0.01275606       0.00116272       0.00434299
C       -1.26243076       3.55354363       3.54806232      -0.00802633       0.00959909       0.00227893
C       -2.48939028       5.69800894       3.85306129       0.00183742      -0.00765843       0.00825854
C       -3.70419432       7.84374909       3.95509444       0.00482666       0.00004698       0.00072387
C       -4.93237033       9.98111378       3.83002015       0.00143769      -0.00585139      -0.00346059
C        2.46635103       1.43822375       3.61037306       0.00733135       0.00580113      -0.00032729
S        1.22026441       3.57233686       2.44327523      -0.01569639      -0.00392068       0.00046597
C       -0.06180775       5.72859596       3.51612255       0.00029248      -0.00992415      -0.01014172
C       -1.25284098       7.84969676       3.85759936       0.00277759      -0.00032594      -0.01709026
C       -2.46966992       9.98757831       3.87675094      -0.01257630      -0.00152735      -0.00154640
C        4.94140834       1.43699878       3.83490393       0.00208636      -0.00964201       0.00060575
C        3.74458593       3.58810951       3.72724101       0.00298851       0.00007677       0.00578186
C        1.22658287       7.78047350       3.71543661       0.00785637      -0.00069845       0.00131171
C        0.00027679       9.96113790       3.84766947      -0.00288277       0.00581297       0.01237476
C        7.41730232       1.39782032       3.87568134       0.00247962       0.00378769      -0.01591513
C        6.19351089       3.54269754       3.94377118      -0.00277873       0.00412593      -0.00339733
C        4.97193355       5.71817649       3.91541208       0.00052060       0.00616390       0.00379600
C        3.72696312       7.78446579       3.82018549       0.00161372       0.00292690      -0.01061498
C        2.47558058       9.92680123       3.80711812       0.01018037      -0.00566031       0.00163482
C        9.87710742       1.40704114       3.73324930       0.00130790      -0.00084393       0.00817377
C        8.63794395       3.54783294       3.88242104      -0.00089874      -0.00387108      -0.00709033
C        7.40967532       5.69221473       3.98967663       0.00706374       0.00607532      -0.00476167
C        6.17859696       7.83855088       3.94004748      -0.01455072       0.00386588       0.01014435
C        4.93397020       9.95107802       3.79978246       0.00228138      -0.00237795      -0.00355508
Fe       2.51476867       5.08465474       3.49689771       0.00273341       0.00401396      -0.00406398
