49
Lattice="12.336457 0.0 0.0 -6.168228499999997 10.683685154694365 0.0 0.0 0.0 15.0" Properties=species:S:1:pos:R:3:forces:R:3 energy=-434.9615165151301 free_energy=-434.9615165151301 stress="-0.005573419907975849 -6.582164127319953e-05 -1.5835149222561075e-06 -6.582164127319953e-05 -0.0021596470337001904 7.197410440692677e-06 -1.5835149222561075e-06 7.197410440692677e-06 -2.5900633850438382e-06" pbc="T T T"
C       -0.00386939      -0.00406046       3.89878825       0.00517363       0.00477524      -0.00549045
C       -1.25090701       2.12707504       4.05641122      -0.00281907       0.00189272       0.00634697
C       -2.49871563       4.27411702       3.83959681       0.00218574      -0.00024817       0.00372903
C       -3.71309021       6.41400371       3.67473416       0.00625969       0.00201840       0.00243422
C       -4.93093302       8.55715601       3.71425795      -0.00775244       0.00554674      -0.00251077
C        2.47190350       0.01218390       3.80575202       0.00181776      -0.00258424       0.00565761
C        1.24459437       2.08036128       4.25846238       0.00371739      -0.01015894       0.00052042
C       -0.09372544       4.30925980       4.13121471      -0.00732977       0.01112330      -0.00512179
C       -1.26325719       6.41562241       3.60384950      -0.00398595       0.00153426       0.00293831
C       -2.47078089       8.55528191       3.59576278      -0.00010610       0.00533695      -0.00164263
C        4.92985069       0.01043828       3.66244417      -0.00149366       0.00198149       0.00190939
C        3.71887585       2.16670104       3.86591695       0.00018928      -0.00693987      -0.00338275
P        1.33660649       6.21031668       2.74393510       0.00644190      -0.00342157      -0.00623925
C       -0.00689532       8.55565672       3.44147273       0.00185137       0.00418500      -0.00323589
C        7.39892240       0.00048128       3.65853612      -0.00838603       0.00546804      -0.00154783
C        6.16743853       2.13159832       3.72248608      -0.00428387      -0.00464373      -0.00391603
C        4.95123098       4.24636410       3.69612491       0.00061745       0.00029142       0.00544409
C        3.72564422       6.40547169       3.56700700       0.00249157       0.00094642       0.01116047
C        2.46911833       8.56052428       3.50667385      -0.00154066       0.00079373      -0.00318163
C        9.86564227      -0.00194146       3.79960490      -0.00068901      -0.00760196       0.00261229
C        8.62942069       2.13257146       3.81388094      -0.00533831       0.00289699      -0.00479752
C        7.39461885       4.27370283       3.71671012       0.00064026      -0.00469588      -0.00593590
C        6.17013535       6.41524937       3.66100806       0.01289834       0.00059384      -0.00795880
C        4.93726486       8.54393584       3.69556941      -0.00062269      -0.00399500      -0.01379534
C       -0.00637318       1.41423797       4.08903187       0.00001667       0.00288282       0.00319394
C       -1.28260595       3.55353169       4.03831443       0.00016359       0.00263995       0.00453572
C       -2.49391061       5.69847535       3.71018180       0.00238345      -0.00026014       0.00684863
C       -3.70484410       7.84199759       3.65359818      -0.00374721       0.00587823      -0.00104859
C       -4.93268986       9.97936519       3.80537424       0.00054792       0.00456518      -0.00491731
C        2.47760253       1.43583665       3.98510992       0.00181052      -0.00808448       0.00006506
P        1.23300427       3.64685064       5.09842366       0.00650483      -0.00747917       0.00280646
C       -0.06661012       5.66481863       3.68429409      -0.01528148      -0.01213173       0.00405397
C       -1.24566624       7.84010363       3.49969875       0.00170558       0.00360159       0.00075116
C       -2.47244980       9.98321020       3.66760109       0.00254904       0.00239216       0.00559760
C        4.93268891       1.43869322       3.74471589      -0.00195860      -0.00358267      -0.00748488
N        3.76118041       3.54589772       3.82039641       0.00345476      -0.00765805      -0.00810123
C        1.24183511       7.89464266       3.29953718       0.00033720       0.00379900       0.01109201
C       -0.00586180       9.98023149       3.57884939      -0.00431066       0.00551374       0.00305572
C        7.39995393       1.42195441       3.73238746      -0.00587084       0.00294054      -0.00550584
C        6.16594819       3.55042321       3.70583004      -0.00055192      -0.00563979      -0.00052439
C        4.93776811       5.69527476       3.63211441       0.00662696       0.00575036       0.00883301
C        3.70363612       7.81075143       3.57426473      -0.00214581      -0.00037172       0.00516576
C        2.46818387       9.97784021       3.66126797      -0.00736019       0.00132807      -0.00045954
C        9.86386848       1.41941432       3.89713233      -0.00551926      -0.00303240       0.00356079
C        8.62013786       3.55819518       3.79153590      -0.00089105       0.00258847       0.00470387
C        7.39428492       5.69796809       3.68674430       0.01125379      -0.00261051      -0.00334353
C        6.17139697       7.84212852       3.69467012      -0.00108907       0.00005972      -0.00308032
C        4.93288267       9.96756310       3.80043515       0.00645043      -0.00436968      -0.00677623
Fe       2.60493936       4.92707221       3.97301016       0.00498453       0.00618532       0.00298194
