49
Lattice="12.336457 0.0 0.0 -6.168228499999997 10.683685154694365 0.0 0.0 0.0 15.0" Properties=species:S:1:pos:R:3:forces:R:3 energy=-434.7437395351267 free_energy=-434.7437395351267 stress="-0.0028924385315524928 -3.6606149220089054e-07 -1.312205513137904e-05 -3.6606149220089054e-07 0.0007304053552309939 -8.923202204564921e-07 -1.312205513137904e-05 -8.923202204564921e-07 -3.1570275805747636e-06" pbc="T T T"
C        0.00156478       0.01265779       3.91101037      -0.01086722       0.00525336       0.00845328
C       -1.23650040       2.12981336       4.01058291      -0.00491930      -0.00184225       0.00126804
C       -2.46882763       4.27151595       4.04825303       0.00548044      -0.00245402       0.00231524
C       -3.69637546       6.41240186       3.95958696      -0.00117675      -0.00600347      -0.00617556
C       -4.93544355       8.55436877       3.86797454       0.00806137       0.00309943       0.00207156
C        2.45976465       0.01901069       3.89893098       0.00492772      -0.00397294      -0.00421224
C        1.21406065       2.18595158       3.81537939       0.00609807       0.00007610       0.00171080
C       -0.02206006       4.26080421       3.97339549      -0.00143708       0.00009755      -0.00808204
C       -1.23571393       6.41369624       4.04789399       0.00148892       0.00554585      -0.00839073
C       -2.47025588       8.55417750       3.99571821      -0.00042812      -0.00018436      -0.00012340
C        4.93683073      -0.00645915       3.86171379       0.00240755      -0.00865274       0.01077029
C        3.69176616       2.07813359       3.45702928       0.00250041      -0.00538765       0.00649161
N        1.17260176       6.39520872       3.79045355       0.00865412      -0.00477729       0.00048310
C        0.00177867       8.51940242       3.93534293      -0.00529701       0.00249566       0.00717078
C        7.40039747      -0.01796694       3.91195087       0.01228337      -0.00216162       0.00488484
C        6.18435205       2.12056823       3.67087411      -0.00590226      -0.00762608       0.00273968
C        5.09325360       4.27365039       3.10290787       0.00616831       0.00536446      -0.00702713
P        3.66396434       6.46783892       2.40752588      -0.00248439      -0.00205823      -0.00177618
C        2.45422992       8.52234610       3.73734892      -0.00739618       0.00103466       0.00201272
C        9.86497880      -0.01497398       3.93174720       0.00236573       0.00275388      -0.00654540
C        8.63472565       2.12510770       3.95710151      -0.00044315       0.00620932      -0.00587951
C        7.42862754       4.26742799       3.77992107      -0.00045480       0.00857976       0.00246603
C        6.22291849       6.42416564       3.52971281      -0.01182059       0.00624266      -0.00482526
C        4.94026531       8.55581766       3.65673181       0.00048589      -0.00146827       0.00144167
C        0.00183597       1.44697510       3.93458707      -0.00117185       0.00421714       0.01073248
C       -1.23546717       3.55265075       4.04830089       0.00005053      -0.00496014      -0.01048189
C       -2.46888334       5.69462271       4.04910876       0.00417077      -0.00221087      -0.00267204
C       -3.70215943       7.84074611       3.95770521       0.00677213      -0.00640377      -0.00725330
C       -4.93520330       9.98405005       3.91189345      -0.00349601       0.00717651       0.00102454
C        2.45350464       1.44493037       3.73858379       0.00597117      -0.00596918      -0.00378721
N        1.17270664       3.57208490       3.78881221       0.00199839       0.00092819       0.00538262
C       -0.02222160       5.70593861       3.97340391       0.00290211       0.00186244      -0.00676171
C       -1.23673342       7.83639453       4.00941163      -0.00593223       0.00674872       0.00688625
C       -2.47183998       9.98152021       3.93025426       0.00334151      -0.00551969      -0.00246185
C        4.93996179       1.41147332       3.65780922      -0.00453480      -0.01100362       0.00192054
P        3.66405953       3.49825333       2.40826352      -0.01481446       0.00292164      -0.00342768
C        1.21477660       7.78126404       3.81671919      -0.00792044      -0.00425748      -0.00371591
C        0.00038570       9.95365622       3.91156543       0.00789803       0.00127380       0.00203366
C        7.40121725       1.41160096       3.86781983       0.00103863      -0.00195758       0.00158566
C        6.22253903       3.54155480       3.52921230      -0.00145635      -0.00028761      -0.00435514
C        5.09327536       5.69244576       3.10358972       0.00026154      -0.00139165      -0.01436291
C        3.69233441       7.88969199       3.45386347      -0.00278123       0.00400835       0.01464442
C        2.45967106       9.94785368       3.89908147       0.00976737       0.00062007      -0.00432399
C        9.86659725       1.41199331       3.99703436      -0.00290815       0.00293547      -0.00236850
C        8.64026211       3.55326130       3.95772347       0.00186318       0.00796331       0.00092700
C        7.42888035       5.69763925       3.78073232      -0.01208890       0.00868320      -0.00010079
C        6.18415301       7.84566131       3.67063411       0.00405234       0.00350322       0.00451188
C        4.93764056       9.97344981       3.86257245      -0.00652655      -0.00196372       0.00420199
Fe       2.27519663       4.98417142       3.43695003       0.00524824      -0.00708053       0.01097973
