49
Lattice="12.336457 0.0 0.0 -6.168228499999997 10.683685154694365 0.0 0.0 0.0 15.0" Properties=species:S:1:pos:R:3:forces:R:3 energy=-429.00826181558955 free_energy=-429.00826181558955 stress="-0.0024820385799953566 -0.0016682547143146468 -5.984143094581044e-06 -0.0016682547143146468 -0.003188481874688807 5.2788861294916064e-06 -5.984143094581044e-06 5.2788861294916064e-06 -2.985390572309947e-06" pbc="T T T"
C        0.00359172      -0.01937029       3.74722269       0.00057746      -0.00212666       0.00198769
C       -1.23989099       2.11719600       3.56194024       0.00425700      -0.00240818      -0.00241550
C       -2.49175927       4.26047667       3.63855889      -0.00019390      -0.00062015      -0.00412484
C       -3.69658719       6.40221301       3.80502885       0.00241134       0.00576872      -0.00539986
C       -4.91821957       8.53610371       3.84109915      -0.00208794      -0.00096336      -0.00235156
C        2.47671112      -0.03427822       3.82334901      -0.00306581       0.00004310       0.00172711
C        1.25634678       2.04869396       3.44680655      -0.00509787       0.00296426       0.01144759
C       -0.15046550       4.27442319       2.99677292       0.00188298       0.00499811      -0.00114487
C       -1.27214525       6.41339677       3.38611325       0.00303583      -0.00038274      -0.00911238
C       -2.44424867       8.52867365       3.73319151       0.00180646       0.00255453      -0.00482821
C        4.94397076      -0.01385667       3.92616168       0.00899351       0.00404886      -0.00608984
C        3.67258261       2.08140494       4.15099244       0.00805458       0.00132091       0.00086273
S        1.28556604       6.47790815       2.33312144      -0.00188069      -0.01644862       0.00647317
C        0.01481469       8.54656260       3.57265524      -0.01026694       0.00257628      -0.00845462
C        7.41000674      -0.00887465       3.90087020      -0.00465838      -0.00045091      -0.00031206
C        6.16866997       2.13311727       4.14205238      -0.00118805       0.00083358      -0.00131965
C        4.98995941       4.33760680       4.35436391      -0.00257481      -0.00315071       0.00351678
N        3.76967197       6.42288702       3.99783434      -0.00357299      -0.00320832       0.00416291
C        2.48781673       8.52742034       3.69912456       0.00316221       0.00217831      -0.00251679
C        9.87713032      -0.01137920       3.82915373      -0.00250138       0.00271954       0.00297385
C        8.63590424       2.12896006       3.88763778      -0.00944616      -0.00379891       0.00271484
C        7.40942473       4.27212018       4.01676944      -0.00398110      -0.00191837       0.00222736
C        6.19755453       6.43158794       4.02041702       0.00200688      -0.00204608      -0.00278881
C        4.94491386       8.52669323       3.87201609       0.00955802       0.00592875       0.00040205
C        0.00130366       1.40575790       3.57299722       0.00138642      -0.00520512       0.00277059
C       -1.27698586       3.53390125       3.40806450       0.00442920      -0.00002455      -0.00678595
C       -2.48558012       5.68555098       3.62393951       0.00579407       0.00332473       0.00468589
C       -3.68583726       7.82260530       3.79384328       0.00034190       0.00543022       0.00265005
C       -4.92756434       9.95415017       3.79197031      -0.00342023      -0.00442819       0.00347825
C        2.46919887       1.38855511       3.82575088      -0.00181225       0.00157131      -0.00540536
S        1.37195276       3.51969585       2.53923320      -0.00812732       0.00880179      -0.00978573
C       -0.15256278       5.67207294       2.97005225       0.00799388       0.00742269       0.00194754
C       -1.22270316       7.83065546       3.54373761      -0.00253427      -0.00640060      -0.00329599
C       -2.44976515       9.95070537       3.84029101       0.00541152       0.00469210       0.01162647
C        4.93037369       1.41470521       4.10825665       0.00914243       0.00208967      -0.00348234
P        3.49561180       3.63528094       4.98909306       0.00191900      -0.00672853       0.00532295
C        1.26350436       7.90623340       3.35221119      -0.00961433       0.00867746       0.01257227
C        0.01044885       9.96456183       3.82917686      -0.00055333      -0.00104254       0.00102779
C        7.40137824       1.42128439       3.99970505      -0.00931743      -0.00278355      -0.00074062
C        6.17585980       3.56775853       4.19733143      -0.00103699      -0.00376142       0.00160330
C        4.97390278       5.75607232       4.16035670       0.00030526      -0.00055937      -0.00620687
C        3.72948348       7.79189081       3.83799131       0.00948083      -0.00108342       0.00012766
C        2.47779449       9.95945694       3.84137471      -0.00268308       0.00139260       0.00007161
C        9.87570941       1.41743108       3.76988120      -0.00238194       0.00193077       0.00775879
C        8.62797611       3.55309566       3.86373758      -0.00636513      -0.00243705      -0.00219963
C        7.41597602       5.69494007       3.96237687       0.00108796      -0.00052071      -0.00744796
C        6.18754011       7.83607489       3.91016599       0.00321020      -0.00169703      -0.00009901
C        4.93836485       9.95507771       3.81390246       0.00093725       0.00738992      -0.00075686
Fe       2.40069293       5.16134854       3.72602543       0.00117614      -0.01446314       0.00292607
