49
Lattice="12.336457 0.0 0.0 -6.168228499999997 10.683685154694365 0.0 0.0 0.0 15.0" Properties=species:S:1:pos:R:3:forces:R:3 energy=-428.50261121625994 free_energy=-428.50261121625994 stress="-0.006382818578392902 0.0013721045746694525 7.350445707314067e-06 0.0013721045746694525 -0.004991788475370595 -1.3210587441378716e-05 7.350445707314067e-06 -1.3210587441378716e-05 2.491517519859193e-06" pbc="T T T"
C       -0.00420875      -0.01083325       3.97921333       0.00259285       0.00577117      -0.01074695
C       -1.23696860       2.13039550       4.05366034      -0.00766915       0.00077709      -0.00393614
C       -2.49826806       4.26481406       3.99794899      -0.00462576       0.00466395       0.00016959
C       -3.72601806       6.40495863       3.99219076       0.00040469       0.00695258       0.00089342
C       -4.94458899       8.53774673       3.96875962       0.00321358       0.00045952       0.00084609
C        2.46712365      -0.03094249       3.89111984       0.00288790      -0.01230282       0.01474074
C        1.26262939       2.09953524       3.98022761       0.00062576       0.00074358      -0.00049121
C       -0.08329650       4.31995682       3.74826305       0.00094332       0.00196663      -0.00105911
C       -1.30597626       6.41629832       3.67789752      -0.00279953      -0.00550675      -0.00966262
C       -2.47223019       8.53010933       3.89196848      -0.00286391      -0.00435362      -0.00511164
C        4.93622440      -0.02431725       3.85381357       0.00470334       0.00341826       0.00663321
C        3.71250129       2.03425625       3.45817201      -0.00297074       0.00083394       0.00051981
S        1.05099971       6.46786409       2.36956825       0.00586464      -0.00092664       0.01001483
C       -0.01074057       8.53786531       3.67138545      -0.00230494      -0.01169553      -0.01576807
C        7.40534337      -0.02071756       3.87124998      -0.00369526       0.00592757       0.00450488
C        6.17159607       2.12064361       3.75494217       0.00601225      -0.00251402       0.00406738
C        5.03426035       4.30843471       3.37755627       0.00562979       0.00012012       0.00217667
N        3.78027228       6.43084431       3.44829933      -0.01105309      -0.00476558       0.01270309
C        2.47046586       8.52650788       3.59218654       0.00086779       0.00658727      -0.00271480
C        9.86688992      -0.01655835       3.94043048      -0.00728599       0.00153372       0.00176841
C        8.62929475       2.12242188       3.99936933       0.00537260      -0.00482308      -0.00702866
C        7.39148892       4.26551060       3.93683097      -0.00151001      -0.00462687       0.00434132
C        6.16950008       6.41710657       3.84398969      -0.00083473       0.01117562       0.00454656
C        4.92815947       8.52698480       3.81686721      -0.00214263       0.01278143      -0.00114337
C        0.00888950       1.42502967       4.02487133      -0.00410593       0.00571031      -0.00210858
C       -1.26546220       3.55344190       3.97324901      -0.00573322       0.00373638      -0.00167229
C       -2.51009885       5.68926634       3.93252123      -0.00245584       0.00537049      -0.01024398
C       -3.71399167       7.82488013       3.96434704       0.00022696       0.00278093       0.01019284
C       -4.94222819       9.95863768       3.96046124       0.00109014      -0.00584709       0.00079439
C        2.47595462       1.39052446       3.77428821      -0.00340219      -0.00906375      -0.00125460
P        1.46329259       3.80687195       4.42532606       0.01371769      -0.00028130      -0.00904403
C       -0.17536916       5.66715592       3.34199881       0.00086530      -0.00814441      -0.00018374
C       -1.25508659       7.83174791       3.72316095      -0.00637382      -0.00940802      -0.00950133
C       -2.46837143       9.95226531       3.88612044       0.00573160      -0.00581593       0.00848392
C        4.94557559       1.39816945       3.70884487       0.00359655       0.00462744      -0.00711535
S        3.80297604       3.45415239       2.44201755       0.00901484      -0.00609131      -0.00927654
C        1.21922877       7.90543362       3.35191950       0.00815998      -0.00636167      -0.00715280
C        0.00314855       9.95531029       3.83983678       0.00083413      -0.00632092      -0.00269107
C        7.39397242       1.41268573       3.90596549       0.00688794       0.00219880      -0.00496257
C        6.17357860       3.55048607       3.72125402      -0.00159547      -0.00633857       0.01042471
C        4.97798981       5.72499488       3.55183441      -0.00134022       0.00191535       0.00316905
C        3.72039371       7.79977382       3.60658863      -0.00283564       0.00099947       0.00925999
C        2.47146053       9.94948765       3.83003324      -0.00747127       0.00770235       0.00278103
C        9.86755941       1.41163554       4.02602905      -0.00169983      -0.00547003      -0.00266038
C        8.61760359       3.54729905       4.01589416      -0.00010046      -0.00507162       0.00580941
C        7.38539086       5.68815443       3.95983824       0.00137508       0.00393321       0.00453861
C        6.16025796       7.83112733       3.89975297      -0.00003880       0.01421428      -0.00139140
C        4.92970379       9.95689943       3.92096062      -0.00233371       0.01207100       0.00703786
Fe       2.59657152       5.13423246       3.05169490      -0.00137660      -0.00324293      -0.00349657
