49
Lattice="12.336457 0.0 0.0 -6.168228499999997 10.683685154694365 0.0 0.0 0.0 15.0" Properties=species:S:1:pos:R:3:forces:R:3 energy=-434.9441322390217 free_energy=-434.9441322390217 stress="-0.004428749809810203 -0.00010728714548545611 -4.862608835672569e-08 -0.00010728714548545611 -0.002977123523755141 6.011762601418087e-06 -4.862608835672569e-08 6.011762601418087e-06 -1.509338612995336e-06" pbc="T T T"
C        0.00552039       0.01485514       3.83940494       0.00361631      -0.00864625      -0.00329555
C       -1.24091012       2.13132327       3.72480567      -0.00464039      -0.00546177       0.01144977
C       -2.48104475       4.27564955       3.66173617      -0.01230949      -0.00156234      -0.00755544
C       -3.70149055       6.41619741       3.75252562       0.00015593       0.01217768       0.00240214
C       -4.93384293       8.55717275       3.88007761       0.00306306       0.00539768       0.00115312
C        2.46737885       0.03569023       3.75488031      -0.00560982      -0.00840111      -0.00215376
C        1.21734014       2.17402708       3.70990887       0.00654098      -0.00703615      -0.00996506
C       -0.05641862       4.22038846       3.46039468       0.00559638       0.00020140       0.01192796
C       -1.24909189       6.40758383       3.44043327      -0.00558684      -0.00607651      -0.00610726
C       -2.46804287       8.55743096       3.63139368      -0.00640341       0.00128480      -0.00782024
C        4.92910493       0.01472588       3.66497683      -0.00985709      -0.00413612       0.00401145
C        3.71605384       2.17330160       3.79746230      -0.01148732       0.01063341       0.00549178
P        1.42420357       6.32680713       2.62371602       0.00948296       0.01028356      -0.00478356
C       -0.00093006       8.55870614       3.48066459       0.00119859      -0.01032588       0.00804778
C        7.39751852       0.00983609       3.68568412       0.00602110       0.00575721       0.00074616
C        6.17364610       2.13275578       3.76954257       0.00528913      -0.00985070      -0.00575229
C        4.98769667       4.22107234       4.04373749       0.00874832       0.00650627      -0.00181360
P        3.51934121       6.33506253       4.91080676       0.00821279      -0.01104811      -0.00662306
C        2.46714523       8.58223164       3.75916608      -0.00315305       0.00734293       0.00778627
C        9.87265810       0.00947702       3.81625043      -0.00079749       0.00695652       0.00430053
C        8.63458909       2.13867523       3.74594897       0.00260248       0.00803904       0.00048703
C        7.41379676       4.27589888       3.83533419       0.00042720      -0.00086776       0.00113297
C        6.18285129       6.40690505       4.07106265       0.00431553       0.00186725       0.00177915
C        4.93601461       8.55948211       4.03213032      -0.00149313      -0.00111834      -0.00185210
C       -0.00004556       1.44054913       3.75801350       0.00076449      -0.00775730      -0.00839964
C       -1.26097319       3.53945054       3.61786871      -0.00442649      -0.00104583       0.00825521
C       -2.47906622       5.70063839       3.61842626      -0.01147242      -0.00015343      -0.00982529
C       -3.70121551       7.84486717       3.75366493       0.00194186       0.01262635       0.01044941
C       -4.92943675       9.99076002       3.82986706       0.00073005      -0.00608254      -0.00995409
C        2.46680277       1.47210043       3.75335396      -0.00101784      -0.00812522       0.00768400
N        1.15217577       3.54732982       3.57384879       0.01741687      -0.00181256       0.00041786
C       -0.07260013       5.63489319       3.26459156       0.00566182       0.00245218      -0.01402317
C       -1.24083314       7.84324464       3.47928543      -0.00674663      -0.00661446       0.00260983
C       -2.47208992       9.99076947       3.68075341      -0.01193672      -0.00487096       0.00112148
C        4.93379980       1.44054887       3.74272218      -0.00836383       0.00278555       0.00806403
N        3.77928802       3.54610371       3.93975021      -0.01089132       0.01427008      -0.00000592
C        1.25533524       7.89614598       3.43266995       0.01044999      -0.00231011      -0.00213548
C       -0.00560795       9.98475262       3.61112060       0.00047644      -0.00450877       0.01152611
C        7.40184489       1.42729965       3.73065077       0.01306463       0.00391918      -0.00378421
C        6.19260225       3.54106226       3.87742657       0.00427540      -0.00659271      -0.00594769
C        5.00528223       5.63504299       4.24829968       0.00387348       0.00522151       0.01725185
C        3.67951600       7.89875866       4.08983162      -0.00615012      -0.00752555      -0.00572719
C        2.46671530       9.99516878       3.75500260       0.00210882       0.00896227      -0.01015869
C        9.86735359       1.42657884       3.76422960      -0.00672491       0.00292934       0.00023769
C        8.63453260       3.56191177       3.74567220      -0.00606238       0.00071119       0.00872489
C        7.41249774       5.70051954       3.88666915       0.00436134       0.00139233       0.00240196
C        6.17552070       7.84287685       4.03432104       0.00452793       0.00137690      -0.00916583
C        4.94011495       9.98484274       3.89301119       0.00000255      -0.00005751      -0.00140833
Fe       2.46279233       4.75707697       3.78162447       0.00020424      -0.00110663      -0.00120299
