49
Lattice="12.336457 0.0 0.0 -6.168228499999997 10.683685154694365 0.0 0.0 0.0 15.0" Properties=species:S:1:pos:R:3:forces:R:3 energy=-434.65591089489664 free_energy=-434.65591089489664 stress="-0.0034431809500639478 0.001096428147833879 4.4247582453257735e-06 0.001096428147833879 -0.0007188122061172142 -6.251376427752922e-06 4.4247582453257735e-06 -6.251376427752922e-06 1.6469673286657388e-06" pbc="T T T"
C        0.00018271      -0.00199545       3.76521898      -0.00591582      -0.00016947       0.00050705
C       -1.23348243       2.13622261       3.70080454       0.00134792       0.00736431       0.00140163
C       -2.47193404       4.27734055       3.89587460       0.00828133      -0.00310829       0.00775845
C       -3.71159756       6.41208824       3.96041478       0.00301169      -0.00048391       0.00835218
C       -4.94517400       8.54719415       3.85425438       0.00095925      -0.00748739      -0.00623566
C        2.46883124       0.01540462       3.86091649       0.00279709       0.00286646      -0.00013475
C        1.24770619       2.08878494       3.43271584      -0.00589467      -0.00866594       0.00097128
C       -0.06802162       4.33185338       3.48252105      -0.00606658      -0.00276494       0.00535556
C       -1.25680056       6.43478496       3.90507611       0.00508015       0.00150299       0.00432983
C       -2.48046372       8.55878272       3.98716737       0.00208016       0.00172198      -0.00224485
C        4.93350191       0.00506587       3.97419025       0.00460257      -0.00274804      -0.00788824
C        3.72595850       2.17403294       3.78692922       0.00449059       0.01410817      -0.00127687
N        1.16865909       6.41276206       3.70105262      -0.00966734      -0.00739203      -0.00415450
C       -0.00483752       8.53182195       3.92282539      -0.00300439       0.00125524      -0.00620757
C        7.40718808      -0.01791153       3.95933403      -0.00110132      -0.00705380      -0.00591804
C        6.18225386       2.11856493       3.98076754      -0.00545873      -0.00185370      -0.00636768
C        4.97795949       4.21415755       3.72579814       0.00395858       0.01105051      -0.00222123
P        3.74244429       6.37722842       2.48397963       0.00929601      -0.01522265      -0.00568297
C        2.45305635       8.52597986       3.69101276       0.00168642       0.00030922       0.00435142
C        9.86782458      -0.01062412       3.82843159      -0.00160755       0.00723105      -0.01054285
C        8.64588502       2.12718733       3.94449594      -0.00359242      -0.00814073       0.00873854
C        7.41363228       4.26399047       3.95704881      -0.00249972       0.00327393      -0.00041662
C        6.17665320       6.39660132       3.72540925      -0.00739100      -0.00014083      -0.00332829
C        4.93134267       8.54432345       3.63930160       0.00684282       0.00075058       0.00893893
C        0.00240701       1.42217195       3.63257647      -0.00412745       0.00315930       0.00920399
C       -1.24437438       3.56993091       3.70453483       0.00531962       0.00088171       0.00498638
C       -2.48039797       5.70243589       3.94365907       0.00793412       0.00106164       0.01010801
C       -3.71217196       7.83974001       3.94787424       0.00295722      -0.00160836       0.00784278
C       -4.93431676       9.97722031       3.83346523      -0.00310631      -0.00351479      -0.00624492
C        2.48021467       1.44038560       3.69738606       0.00348357       0.00790944      -0.00227485
P        1.19948113       3.58754405       2.47778603      -0.00203221       0.00357713       0.00043171
C       -0.04532984       5.75223736       3.70310463      -0.00645331      -0.00778234       0.00578567
C       -1.24836665       7.84757832       3.96796840      -0.00007110       0.00350366      -0.00315492
C       -2.47356951       9.98448230       3.96111852       0.00423026       0.00106890      -0.00593013
C        4.93860157       1.43441752       3.93384887      -0.00140527       0.00063911      -0.01132522
N        3.76456505       3.55321118       3.71602854       0.00312603       0.01431511      -0.00719400
C        1.20745191       7.79193773       3.77556695      -0.00675839      -0.00585176      -0.00385522
C        0.00012470       9.96126286       3.97123708       0.00148418      -0.00242271      -0.00956067
C        7.41461440       1.40784582       3.99100105      -0.00800877      -0.01025776      -0.00686827
C        6.19000668       3.53149062       3.92408805      -0.00691033       0.00412151       0.00741736
C        4.99997247       5.63472600       3.50434025       0.00025747       0.00246409       0.00249978
C        3.68698785       7.87770695       3.43444156       0.00985991       0.01018884       0.00623656
C        2.46445297       9.95097553       3.85590784       0.00036442       0.00244885      -0.00165360
C        9.87828482       1.41955129       3.84389948       0.00367129       0.00561025       0.00352243
C        8.64508479       3.55468257       3.95891245       0.00122499      -0.00370237       0.00710221
C        7.40493867       5.68912868       3.91034587      -0.00650883       0.00730871       0.00502512
C        6.16646321       7.83020747       3.71520075       0.00235948      -0.00674695      -0.00033471
C        4.93382517       9.96890255       3.76523867      -0.00335343       0.00318746       0.00154948
Fe       2.46767534       4.98513446       3.61964773       0.00022780      -0.01576144      -0.00139975
