49
Lattice="12.336457 0.0 0.0 -6.168228499999997 10.683685154694365 0.0 0.0 0.0 15.0" Properties=species:S:1:pos:R:3:forces:R:3 energy=-431.52343640944434 free_energy=-431.52343640944434 stress="-0.0016656181478488172 0.001503646952182101 -4.4727940849163e-06 0.001503646952182101 0.0031408394995747083 -7.276820264042121e-07 -4.4727940849163e-06 -7.276820264042121e-07 8.564272068817786e-07" pbc="T T T"
C        0.00048221       0.00746420       3.78939464      -0.00790172      -0.00359579      -0.00740035
C       -1.23871468       2.13375357       3.92011551       0.01098177      -0.00194085      -0.00039117
C       -2.46891667       4.27609497       3.93487806       0.00247476       0.00555390       0.00142405
C       -3.70986336       6.41167164       3.82741412      -0.00809329       0.00059041      -0.00412541
C       -4.95236012       8.54731623       3.70942789       0.00067002       0.00755364       0.01192893
C        2.45732475       0.04394789       3.80948008       0.00114573       0.00309002      -0.00129949
C        1.20463325       2.14318585       3.88485811       0.00408449      -0.00235348       0.00297834
C       -0.04701176       4.27960550       3.98383952      -0.00452989       0.00125245       0.00425408
C       -1.25052870       6.41390528       3.92262735       0.00210432      -0.00381944       0.00217749
C       -2.48656070       8.55591334       3.84236652       0.00248787      -0.00700433      -0.00183248
C        4.92378476      -0.00337175       3.84319275       0.00362368      -0.00305159      -0.00416926
C        3.73107923       2.12852011       3.77034102      -0.00157582       0.00435370      -0.00620173
N        1.17084500       6.41604225       3.87478239       0.00798482      -0.00041867      -0.00140693
C       -0.01331601       8.52364078       3.83734614       0.00001881       0.00110629      -0.00212165
C        7.39857940      -0.02490583       3.84848584       0.00541982      -0.00012526       0.00128605
C        6.18107282       2.11460474       3.81897895      -0.00292496      -0.00377104      -0.00557040
C        5.02279933       4.22543666       3.48737269      -0.00041528      -0.01181755      -0.01138283
S        3.73702920       6.42645557       2.31680578      -0.00028543       0.00436204       0.00010182
C        2.45146899       8.51217064       3.62423479      -0.00796161       0.00240468      -0.00055637
C        9.86408010      -0.01673243       3.80066117      -0.00654676       0.00427686       0.00284709
C        8.63812543       2.12448767       3.89228724      -0.00108899       0.00494187       0.00341327
C        7.41706699       4.26683053       3.80033758       0.00435261      -0.00402466      -0.00200878
C        6.17269364       6.39238835       3.53937607       0.00062315      -0.00690276      -0.00553609
C        4.92547174       8.54378202       3.52981874      -0.00064231       0.00049911      -0.00410053
C        0.00759473       1.44451836       3.87463719       0.00809539      -0.00768783       0.00253545
C       -1.23475431       3.55927301       3.96527088      -0.00038241      -0.00077479       0.00738353
C       -2.47473827       5.69626883       3.91150226      -0.00493068       0.00481126      -0.00458375
C       -3.71624557       7.83811704       3.79419141      -0.00276751       0.00125577       0.00475409
C       -4.93688930       9.99170330       3.76518442      -0.00375891       0.00851565      -0.00012514
C        2.46223034       1.50270312       3.82378848       0.00566204       0.00398384      -0.00203981
O        1.14829988       3.54252323       3.99622319      -0.01098430      -0.00164210      -0.01488575
C       -0.01803699       5.70086463       3.94873904       0.00488177       0.00047044       0.00484675
C       -1.25424786       7.83513722       3.87638520       0.00323268      -0.00629334       0.00144631
C       -2.48642795       9.99298888       3.82878343       0.00169222      -0.00448063       0.00082049
C        4.92794057       1.42939069       3.81525663      -0.00411658      -0.00026892      -0.00315115
O        3.79836175       3.51720389       3.54602233      -0.01160204       0.00350950       0.00540917
C        1.20194779       7.77855555       3.76471983      -0.00367393       0.00236488       0.00348049
C       -0.00780741       9.95472240       3.84253564       0.00732970       0.00159456       0.00199682
C        7.40076170       1.40573208       3.86698706      -0.00154850      -0.00007213       0.00257112
C        6.19819337       3.52993849       3.72838619       0.00296684      -0.00540138      -0.00545504
C        5.01072226       5.61745364       3.28027661       0.00192204      -0.01391629       0.00774213
C        3.68220634       7.88605948       3.30161465      -0.00564665       0.00752560       0.00744836
C        2.46026881       9.94360934       3.78065657      -0.00088811      -0.00069167       0.00293374
C        9.87505421       1.41629068       3.88553092       0.00215642       0.00517811       0.00451138
C        8.64291029       3.55309082       3.89297485       0.00494543       0.00436610       0.00471288
C        7.40237480       5.68815741       3.74395168      -0.00155333      -0.00606764      -0.00948709
C        6.15971899       7.82640404       3.56007311       0.00465211      -0.00115736      -0.00078978
C        4.93157223       9.96958727       3.72414263      -0.00984450      -0.00072373      -0.00134488
Fe       2.56711804       5.11604792       3.82846242       0.01015503       0.01444258       0.00696198
