49
Lattice="12.336457 0.0 0.0 -6.168228499999997 10.683685154694365 0.0 0.0 0.0 15.0" Properties=species:S:1:pos:R:3:forces:R:3 energy=-426.0551151856551 free_energy=-426.0551151856551 stress="-0.004796136924665978 0.002173130732617884 -3.1151823745104365e-06 0.002173130732617884 -0.007083478250094908 -1.1652958816574354e-05 -3.1151823745104365e-06 -1.1652958816574354e-05 -2.4353696487724102e-06" pbc="T T T"
C        0.01115256       0.00520393       3.73510501      -0.00353450      -0.00132260       0.00167032
C       -1.20414869       2.16444655       3.68230529       0.00236684      -0.00123885       0.00566344
C       -2.42902425       4.29900786       3.75290654       0.00480742      -0.00083473       0.00882018
C       -3.67776294       6.42544879       3.75556218      -0.00097913       0.00652665      -0.00049373
C       -4.93485162       8.54410885       3.69012897      -0.00618504      -0.00734809      -0.00064221
C        2.47665143      -0.04265143       3.97571627      -0.00260784      -0.00297476      -0.00051035
C        1.27943975       2.12543205       3.85646928      -0.00285023      -0.00546289       0.00004493
C        0.03118204       4.37683049       3.58198995      -0.00674569       0.01139993      -0.00081366
C       -1.22070566       6.45425948       3.80676086      -0.00131995      -0.00094415       0.00663103
C       -2.45196093       8.55137138       3.87535240       0.00963988       0.00311274      -0.00409925
C        4.96147667      -0.00221991       4.02412846       0.00181850       0.00769329      -0.00382418
C        3.71796775       2.05157759       4.24042345       0.00237922       0.01168105       0.00185312
O        1.16412140       6.52446870       3.61288838       0.00690446      -0.00111825      -0.00573308
C        0.01194955       8.57213319       3.79568055      -0.00395976      -0.00183082      -0.00811641
C        7.42402876       0.01658885       3.85723529       0.00255739      -0.00525459      -0.00230415
C        6.20114337       2.15449564       4.02775281      -0.00231928      -0.00493408       0.00826263
C        5.00855522       4.34163501       3.79855955      -0.00044441      -0.00020808       0.00705730
S        3.70939111       6.35874253       2.48320328       0.00012809      -0.00997676      -0.00146817
C        2.45438348       8.56106903       3.51363000      -0.00415716      -0.00142714       0.00065006
C        9.88049291       0.01598368       3.68416454       0.00533023      -0.00175609      -0.00209492
C        8.66318732       2.15426843       3.81857476      -0.00140921      -0.00092314      -0.00144039
C        7.44187458       4.28617223       3.79998788      -0.00285073       0.00077940       0.00242517
C        6.21944280       6.42869553       3.47370351      -0.00326260      -0.00301362      -0.00067529
C        4.93714610       8.56071193       3.44795692       0.00434012       0.00386572       0.00538905
C        0.01042351       1.42997780       3.74565013       0.00059081      -0.00098978      -0.00052483
C       -1.19867579       3.60003544       3.66818999       0.00347522      -0.00175278       0.00526974
C       -2.44670661       5.71831115       3.79137676      -0.00200984       0.00037889       0.00487242
C       -3.69244835       7.84238928       3.77563304       0.00539404       0.00660368      -0.00465819
C       -4.93197080       9.95715672       3.79981102      -0.00969514      -0.00793745       0.00366985
C        2.50035268       1.35160578       4.07606172       0.00268544       0.00016872      -0.00057778
P        1.57843620       3.59822443       2.81144626      -0.00577196      -0.01006612      -0.00798126
C       -0.01010170       5.80314286       3.71487739       0.00001535       0.01175697      -0.00129827
C       -1.22373837       7.86352486       3.84207586       0.00295803      -0.00428125       0.00246841
C       -2.44230181       9.96182027       3.97470772       0.00506626       0.00395377      -0.00945813
C        4.97518759       1.42130659       4.12683693      -0.00114832       0.00591104       0.00397424
P        3.50541305       3.77979884       4.47523259       0.00488219      -0.00081756      -0.00507219
C        1.20241348       7.89150152       3.60711005      -0.00736906      -0.00216904      -0.01684409
C        0.02621835       9.99260438       3.90074007      -0.00097611       0.00043880      -0.00567903
C        7.42732542       1.44603495       3.91670869      -0.00160014      -0.00571898      -0.00059058
C        6.20992429       3.57748972       3.90828639      -0.00367220      -0.00490163       0.00351923
C        5.04553427       5.67452436       3.32389528       0.00036630       0.00341533       0.00233515
C        3.69718639       7.91139529       3.23490150       0.00650816       0.01299251      -0.00471530
C        2.47364938       9.98199564       3.69744179       0.00456366      -0.00285493       0.00054433
C        9.88978870       1.44477177       3.72963635       0.00114960      -0.00129198       0.00227507
C        8.67061049       3.57701357       3.80324421       0.00154975       0.00221926       0.00774196
C        7.43900904       5.70874019       3.68611548      -0.00197079       0.00252006      -0.00291046
C        6.17959938       7.84473498       3.48651154      -0.00459278      -0.00741084       0.00579355
C        4.94071841       9.98499598       3.62709064       0.00424986       0.00266990       0.00400614
Fe       1.37641342       3.88767235       4.94095202      -0.00229496       0.00267328      -0.00241140
