49
Lattice="12.336457 0.0 0.0 -6.168228499999997 10.683685154694365 0.0 0.0 0.0 15.0" Properties=species:S:1:pos:R:3:forces:R:3 energy=-425.7088049956572 free_energy=-425.7088049956572 stress="-0.003577887402189606 -0.0017551686061063106 -5.824900185582269e-07 -0.0017551686061063106 -0.003817218828685818 8.009024207022258e-06 -5.824900185582269e-07 8.009024207022258e-06 6.61209495597005e-06" pbc="T T T"
C       -0.03274183       0.00499443       3.97988417      -0.00174374      -0.00286366      -0.00105974
C       -1.28006782       2.14309948       4.14543634       0.00364758       0.01210327      -0.00616138
C       -2.51380606       4.28663746       3.97102442       0.00056105       0.00567775      -0.00297027
C       -3.72291776       6.42961032       3.82098580       0.00568354       0.00370536      -0.00347973
C       -4.95626085       8.56162294       3.83189382       0.00423372      -0.00459285      -0.00880853
C        2.44818187      -0.01133324       3.88937246       0.00365803       0.00283135      -0.01367815
C        1.21506411       2.06670380       4.30431134      -0.00373157       0.00035343       0.00858330
C       -0.09343347       4.33474027       4.22811841       0.00406262      -0.00600533      -0.00535313
C       -1.27521346       6.42963446       3.73719566      -0.00218603      -0.00395294       0.00897045
C       -2.47930924       8.55605832       3.72124374      -0.00508878      -0.00928087       0.00586277
C        4.91572066       0.01707916       3.68494905       0.00749008      -0.01090841      -0.00769695
C        3.64679814       2.14198992       3.67250508      -0.00511064       0.00087176       0.00039449
P        1.18739718       6.23033589       2.70193471      -0.00700019       0.01370696       0.00308752
C       -0.01089446       8.55529698       3.50009103       0.00278641      -0.00415639       0.00646053
C        7.38503376       0.01318763       3.63299800       0.00348589      -0.00130960       0.00513266
C        6.13371457       2.16769624       3.59534253      -0.00173799      -0.00677541      -0.01283800
C        4.97006314       4.37519458       3.26626780      -0.01292761      -0.00541520      -0.00561596
O        3.82018364       6.53410347       3.16853288       0.00137411       0.00783977       0.00574433
C        2.48009368       8.55238568       3.42834910      -0.00322056       0.00376122       0.00562008
C        9.84017805       0.01257597       3.80189457      -0.00865898      -0.00326298       0.00450486
C        8.60218759       2.15238100       3.83229633       0.00195690      -0.00479955       0.00018598
C        7.36884164       4.30013176       3.73713139       0.00119435       0.01035863      -0.00124037
C        6.15620870       6.45180290       3.71450596       0.00002259       0.00436468       0.01650228
C        4.92253019       8.57346293       3.67439402      -0.00398035      -0.00330413       0.00576313
C       -0.04414640       1.41945565       4.17500311      -0.00112244       0.00262012       0.00466344
C       -1.29109456       3.57136641       4.15840705       0.00163559       0.00956717      -0.00166281
C       -2.50094259       5.71383458       3.86298938       0.00015809       0.00075132      -0.00081078
C       -3.71526379       7.85135886       3.79589587      -0.00174290      -0.00589542       0.00469528
C       -4.96386376       9.97833298       3.91042452       0.00435786      -0.00286783      -0.00249702
C        2.42852703       1.39576423       3.98987070      -0.00286576       0.00255532      -0.00791835
P        1.32499464       3.68012966       5.00640525      -0.00862189       0.00326814      -0.00768682
C       -0.05737403       5.68762473       3.78110805      -0.00152562       0.00186557       0.01056189
C       -1.25117025       7.84332947       3.61143065      -0.00207823      -0.00405495       0.01110232
C       -2.48321450       9.97630232       3.75062992       0.00428713      -0.00876908       0.01215109
C        4.91262080       1.44796208       3.65471829      -0.00581594      -0.00847604      -0.01550829
S        3.51293140       3.54704560       2.52509909       0.00714883       0.00976880      -0.01378578
C        1.22531577       7.87017471       3.31036437       0.00528364      -0.00048793       0.00646709
C       -0.01519202       9.98671586       3.59964675       0.01094283      -0.00546871      -0.00609706
C        7.37367379       1.44453823       3.68639076       0.00097261      -0.00556877       0.00270178
C        6.14418592       3.60192285       3.54744721      -0.00158257      -0.00236236      -0.00074288
C        4.95903309       5.79624663       3.50263553       0.00318240      -0.00029875      -0.00147305
C        3.73856395       7.88899664       3.42598974      -0.00342692       0.00417477      -0.00236731
C        2.45898061       9.97610470       3.62527580      -0.00563547      -0.00010124      -0.00188369
C        9.83500958       1.43895697       3.93986642       0.00305692      -0.00057262       0.00967619
C        8.59960193       3.57628363       3.86396840       0.00219383       0.00103549      -0.00452286
C        7.38058589       5.71935842       3.78002220       0.00706586       0.01439780       0.00810954
C        6.15577206       7.86727320       3.75793131       0.00160867       0.00349649      -0.00619138
C        4.90529294       9.99256568       3.82630520      -0.00847913      -0.00457061       0.00489468
Fe       3.51701387       4.02751268       4.82623539       0.00623218      -0.00295356      -0.00978539
