49
Lattice="12.336457 0.0 0.0 -6.168228499999997 10.683685154694365 0.0 0.0 0.0 15.0" Properties=species:S:1:pos:R:3:forces:R:3 energy=-425.5280638491106 free_energy=-425.5280638491106 stress="-0.002046889487033554 -0.0026951893106314613 2.1726932357803954e-05 -0.0026951893106314613 -0.001951239822813847 -3.934024101271853e-06 2.1726932357803954e-05 -3.934024101271853e-06 4.435269695141758e-06" pbc="T T T"
C        0.02579021       0.01249167       3.91613584      -0.00269275      -0.00312959      -0.00008292
C       -1.24047960       2.12534108       3.68002649      -0.00277020      -0.00224033      -0.00234471
C       -2.47821127       4.27535170       3.84933565      -0.01032598      -0.00614652      -0.00353440
C       -3.66548326       6.42158719       4.09335161      -0.00407449      -0.00904975      -0.00211409
C       -4.89077429       8.56506964       4.12734279       0.00210054       0.00034008      -0.00239240
C        2.49483477      -0.01351621       3.77978278      -0.00020037       0.00060502      -0.01101009
C        1.21125151       2.02650282       3.20220126       0.00831136       0.00016273      -0.00644626
C       -0.24968817       4.25011198       2.90682260       0.00404340      -0.00327924      -0.00280258
C       -1.25315616       6.41305141       3.55277553      -0.00551311       0.00588986      -0.00439923
C       -2.41530877       8.54214573       3.90492905      -0.00882370       0.00806190      -0.00581028
C        4.96565143       0.00114184       3.82719957      -0.00233928      -0.00212539       0.01214118
C        3.72123491       2.07621726       3.43192003      -0.00969820       0.00273414       0.01355986
S        1.31567397       6.46335762       2.51402206       0.01282387       0.00849483       0.00775308
C        0.04666550       8.54007055       3.69977535       0.01394121       0.00012241      -0.00044712
C        7.42701394       0.00216625       3.95244246       0.00787387      -0.00180671       0.00130217
C        6.17274581       2.16520938       3.90103076       0.00557296       0.00411132       0.01324327
C        4.98678352       4.39144040       3.91878667       0.00095856       0.00472425      -0.00929865
O        3.82590548       6.49911036       4.08021149      -0.00367798       0.00685155      -0.00788162
C        2.52704956       8.52972288       3.86703652      -0.00160595      -0.00019443       0.00430584
C        9.89096499       0.00249045       4.01681566      -0.00028934      -0.00289896       0.00466777
C        8.64169736       2.14401804       4.00502285       0.00491572       0.00032874       0.00332098
C        7.41550063       4.29254151       4.13995755       0.01143904       0.00587665       0.00478012
C        6.22002309       6.45513354       4.28886356      -0.00328609       0.00189585      -0.00951312
C        4.97734208       8.56775306       4.14554435      -0.01070464      -0.00500789       0.01116177
C       -0.00098316       1.41444149       3.61840590      -0.00021858      -0.00269024      -0.01012568
C       -1.30168152       3.53677229       3.51616954      -0.00501772       0.00061616       0.00354663
C       -2.46025825       5.70075611       3.86017494      -0.00849788      -0.01002667      -0.00394825
C       -3.65403213       7.84475111       4.06248427      -0.00156707      -0.00537630      -0.00712481
C       -4.90185213       9.98234827       3.95573044       0.00193346       0.00217105      -0.00710349
C        2.48280409       1.37795325       3.44436689       0.00060230      -0.00116762       0.00464940
S        0.98027884       3.30451811       1.95469234       0.00818291      -0.01477367      -0.00234591
C       -0.18948671       5.68347490       2.99016158       0.00741133       0.00864587      -0.00563775
C       -1.19475839       7.83069568       3.70764839      -0.00149371       0.01436376      -0.00305526
C       -2.42899493       9.96947878       3.85443444      -0.00601319       0.00417134      -0.00898552
C        4.95486671       1.43486372       3.73478007      -0.00303372      -0.00112672       0.00431538
P        3.74770620       3.74715053       2.85409686      -0.00732904       0.00433535       0.00527463
C        1.29484087       7.89098401       3.50706440       0.01631785      -0.00934322       0.00204292
C        0.03314932       9.97315293       3.86442025       0.00703753      -0.00199009       0.00260779
C        7.40663762       1.43832962       3.98673025       0.00869991       0.00034888       0.00173971
C        6.17568184       3.59862842       4.01366950       0.01067631       0.01080338       0.01129064
C        5.00922381       5.78495993       4.13270944      -0.00619221       0.00231753       0.00988590
C        3.78276253       7.86769653       4.01744526      -0.01093014       0.00166026       0.00391665
C        2.49802327       9.96299263       3.98981023       0.00298062      -0.00218811      -0.00268461
C        9.88186850       1.43081558       3.93437525      -0.00107887      -0.00315238      -0.00062054
C        8.63840970       3.56756107       4.03626560       0.00131579      -0.00308804       0.00680117
C        7.43975329       5.71375264       4.21524902      -0.00189645       0.00108001      -0.00287914
C        6.22146816       7.86899673       4.23334290      -0.00363289       0.00108972      -0.01232782
C        4.96121051       9.99182183       4.04974163      -0.00523387      -0.01015442      -0.00186805
Fe       1.82772803       4.51314283       3.61941769      -0.00900110      -0.00084634       0.00447743
