49
Lattice="12.336457 0.0 0.0 -6.168228499999997 10.683685154694365 0.0 0.0 0.0 15.0" Properties=species:S:1:pos:R:3:forces:R:3 energy=-425.8951890410948 free_energy=-425.8951890410948 stress="-0.0007699484042312389 -0.0034789211300717345 1.9720368044206898e-05 -0.0034789211300717345 -0.0024800897524334723 2.426055977423463e-06 1.9720368044206898e-05 2.426055977423463e-06 7.618638364541558e-06" pbc="T T T"
C        0.02014494       0.00561705       3.75406398      -0.00605171      -0.00331689       0.00677679
C       -1.24550924       2.12374867       3.97074121       0.00349963       0.00387760       0.00292876
C       -2.48787473       4.26465563       3.93312169       0.00393595       0.00383992      -0.00328156
C       -3.67204148       6.41154677       3.74623959      -0.01255481      -0.00040759       0.01106192
C       -4.89726634       8.55049911       3.67441136       0.00059927       0.00404337       0.01211672
C        2.50008297      -0.02429506       3.74512809      -0.00500191       0.00869631      -0.00994884
C        1.25919231       2.08525866       4.11463135      -0.00444974       0.00466335      -0.00052308
C       -0.14515464       4.24022688       4.65004862      -0.01671797      -0.00573991      -0.00639393
C       -1.23792799       6.41342302       4.15882575      -0.01816739      -0.00037834       0.00016841
C       -2.41622231       8.53259205       3.79878017       0.00648257      -0.00342641       0.00075580
C        4.95880925      -0.00375347       3.58482300       0.00257391       0.00280066       0.01049537
C        3.66594301       2.07454953       3.37231582      -0.00594467       0.00162863       0.00201906
S        1.38376896       6.45482941       5.00475590      -0.00184091      -0.01156649      -0.00800628
C        0.04761569       8.54317467       3.87212769       0.00168917       0.00631949       0.01122666
C        7.41788855       0.00433103       3.54048694       0.00410782      -0.00793310      -0.00266034
C        6.15540427       2.16377548       3.37699979      -0.00100016       0.00142254       0.00610467
C        4.98555516       4.39058414       3.16061100       0.00158350      -0.00895812      -0.00052852
O        3.83260274       6.51250590       3.28904444      -0.00137509      -0.00184665      -0.00861802
C        2.52215403       8.53456969       3.65168757       0.00569027       0.00738474      -0.00343880
C        9.88523875       0.00827604       3.59942512       0.00067254      -0.00253907       0.01048210
C        8.63126771       2.14445202       3.61911076       0.00232696       0.00433738      -0.00298265
C        7.40413554       4.29067453       3.53534127       0.00735072       0.00237596      -0.00516230
C        6.22236463       6.44968077       3.48378662       0.00675933       0.00373909       0.00339884
C        4.97517500       8.56674963       3.54806528      -0.00149947      -0.00233951       0.00354629
C        0.00373390       1.41923544       3.96228596       0.00089460       0.00044745      -0.01036577
C       -1.29399455       3.52700864       4.17832680      -0.00162479       0.00369842       0.00271262
C       -2.46381879       5.69198929       3.93963470      -0.01306730      -0.00125367      -0.00076361
C       -3.65947286       7.83223758       3.74458100       0.00193767       0.00133265      -0.00150914
C       -4.90850256       9.96929972       3.73876133      -0.00530109       0.00362329       0.00172025
C        2.48799939       1.39660133       3.76961929      -0.00248187       0.01028754      -0.00666568
P        1.28125411       3.35386166       5.37433979       0.00111889      -0.00338612       0.00243279
C       -0.12735817       5.68367197       4.61174271       0.01395210       0.00822671       0.00071197
C       -1.18871155       7.82730300       3.96294948       0.00046348      -0.00599240      -0.00181312
C       -2.42835605       9.95797797       3.69815098      -0.00282968       0.00253252      -0.00142299
C        4.93273444       1.43059382       3.41542626      -0.00394350       0.00317813       0.00186807
S        3.49214746       3.64593046       2.64835802       0.01634571      -0.00772872       0.00523698
C        1.29814594       7.89765258       4.01752470       0.00084068      -0.01243581       0.00246226
C        0.02809860       9.97033098       3.63209532       0.00730907      -0.00235323      -0.00902724
C        7.39263784       1.44394438       3.48871765       0.00199538      -0.00122120      -0.00811958
C        6.15744262       3.60333315       3.34360164       0.00390363       0.00144603      -0.00427305
C        5.01618008       5.78536091       3.30271776       0.00517083      -0.00092605      -0.00001579
C        3.77848336       7.86696185       3.52829081      -0.00041080      -0.00096570       0.00675329
C        2.49353868       9.96928397       3.55547733       0.00398103      -0.00374189       0.00104123
C        9.86933313       1.43048518       3.71456599      -0.00042552      -0.00069224       0.00695793
C        8.62724729       3.56540993       3.68739808       0.00539495       0.00809689      -0.01536212
C        7.43354476       5.70698272       3.58382484       0.00238107      -0.00156033      -0.00666274
C        6.21690306       7.86153765       3.56592521       0.00261787       0.00499856       0.00048579
C        4.95546199       9.99139339       3.62950691      -0.00284543      -0.00565693       0.00578283
Fe       1.71737443       4.61248945       3.67632399      -0.00804478      -0.00663088      -0.00170220
