49
Lattice="12.336457 0.0 0.0 -6.168228499999997 10.683685154694365 0.0 0.0 0.0 15.0" Properties=species:S:1:pos:R:3:forces:R:3 energy=-425.7212539528231 free_energy=-425.7212539528231 stress="-0.0007423335776258658 0.0033136297260566772 -4.694936263068928e-06 0.0033136297260566772 -0.0010344094302548652 -1.333565160778227e-07 -4.694936263068928e-06 -1.333565160778227e-07 3.5762303645743707e-07" pbc="T T T"
C       -0.02772593      -0.00207486       3.89145650      -0.00314652       0.00709185      -0.00703493
C       -1.22559352       2.16453312       4.11784479      -0.00370134      -0.00019519       0.00490884
C       -2.47491839       4.29599066       3.99201389      -0.00232470      -0.00906413       0.00236745
C       -3.73093161       6.41800195       3.77533744      -0.00035062       0.00428629      -0.00145503
C       -4.98158827       8.54113545       3.70357817       0.00095260      -0.00177180      -0.00991499
C        2.43550926      -0.01300706       3.74766430       0.00098142      -0.00212947      -0.00113696
C        1.26225890       2.08687057       4.10877598      -0.00286808      -0.00338097      -0.00725774
C       -0.06335421       4.39350347       4.36895131       0.00629277      -0.00092609      -0.00302983
C       -1.29204398       6.45655501       4.06709737      -0.00532554      -0.00831044       0.00157567
C       -2.50619624       8.55743815       3.85489127       0.00815658       0.00122402      -0.00881012
C        4.91307779       0.01108711       3.78164971       0.00569089       0.00174942       0.00170435
C        3.68760360       2.08691610       3.36866619       0.00294300       0.01227157       0.00169748
O        1.10380649       6.50599745       4.27871055       0.00244757      -0.00287993      -0.00770131
C       -0.04129857       8.56733736       3.99324890      -0.00688694       0.00322201      -0.00143048
C        7.38394022       0.00704005       3.91285417       0.00131276       0.00067635       0.00260114
C        6.17860735       2.12898894       3.54540944       0.00362445      -0.00247292       0.00004413
C        5.12764453       4.23412739       2.78979841       0.00504167       0.00721330      -0.00626481
P        3.49170742       6.41943094       2.48637382      -0.00070004      -0.01143228       0.00420890
C        2.41002839       8.53085541       3.86207428      -0.00210743       0.00008329       0.00455364
C        9.85011336       0.00162538       3.94662107      -0.00254672      -0.00210700       0.00800481
C        8.63683476       2.14754163       3.89526328      -0.00073394      -0.00018030      -0.01480997
C        7.42409268       4.27182135       3.58526624      -0.00748967       0.00515141       0.00343801
C        6.17985699       6.41457241       3.34170872      -0.00068395      -0.00252790      -0.00550100
C        4.88454548       8.54058159       3.61372732       0.00741851       0.00628726      -0.01162164
C       -0.00122577       1.43334636       4.06617375      -0.00631416       0.00111794       0.00174481
C       -1.23118620       3.60479219       4.17223483       0.00574190      -0.00367618       0.01020105
C       -2.50247441       5.71370734       3.95150300      -0.00679676      -0.00837449       0.00644479
C       -3.74252119       7.84044349       3.77488642       0.00491570       0.00502768      -0.00160089
C       -4.97304322       9.96521664       3.79097017      -0.00458689       0.00106062      -0.00247916
C        2.44828357       1.41435730       3.71315760       0.00439045       0.00177487       0.01609897
S        1.42685356       3.64731999       4.86711432       0.00461108       0.00297643      -0.00213925
C       -0.08826600       5.79027666       4.25461058       0.00354361      -0.00650168      -0.00925106
C       -1.28445899       7.86895484       3.97952055       0.00031789      -0.00553176       0.00002515
C       -2.49480192       9.97816204       3.78111257       0.00712949       0.00032988      -0.00246394
C        4.93051402       1.42893209       3.57526336       0.00366868       0.00253583      -0.00295387
S        3.76226140       3.31585893       2.05912695      -0.00428891      -0.00329340      -0.00166811
C        1.15794837       7.85921229       4.01382050      -0.00416831       0.00445416       0.00897255
C       -0.02129551       9.99115853       3.90104409       0.00236801       0.00208980       0.00193649
C        7.39623133       1.43406078       3.80070158       0.00152646      -0.00075099       0.01004859
C        6.22906835       3.53098093       3.32135606       0.00027222      -0.00067279      -0.00847791
C        5.05451632       5.67688125       2.87808482      -0.00925193      -0.00229616       0.00860685
C        3.62923916       7.87106128       3.50209015       0.00710106       0.00700841       0.00559486
C        2.43688685       9.96463121       3.94716444      -0.00235044      -0.00065599       0.00835298
C        9.87493092       1.44149796       4.00893670      -0.00443920      -0.00165234       0.00329822
C        8.64028322       3.56921246       3.83738864      -0.00797741       0.00075728       0.00175925
C        7.39833560       5.69916276       3.57122675      -0.00284556       0.00503172       0.00224136
C        6.12736681       7.83057086       3.53771553       0.00303838      -0.00791332      -0.00414850
C        4.90425614       9.96740259       3.84421656       0.00161703       0.00579408       0.00583475
Fe       3.17371444       4.57447877       3.77631653      -0.00321911      -0.00051791      -0.00511362
