49
Lattice="12.336457 0.0 0.0 -6.168228499999997 10.683685154694365 0.0 0.0 0.0 15.0" Properties=species:S:1:pos:R:3:forces:R:3 energy=-425.16030775644515 free_energy=-425.16030775644515 stress="-0.004323058828513961 -0.00025060181946697353 2.9831649555350615e-06 -0.00025060181946697353 -0.007895116346770396 -3.1183210848992764e-06 2.9831649555350615e-06 -3.1183210848992764e-06 -1.4276795037380801e-06" pbc="T T T"
C        0.00085251      -0.02091150       3.66771691      -0.00059959       0.00927916       0.00770349
C       -1.22298615       2.13192418       3.71716780      -0.00640512       0.00276872       0.00446947
C       -2.46201401       4.27036830       3.61074795       0.00065030      -0.00347865      -0.00306464
C       -3.68895513       6.40171496       3.55252940       0.00084524      -0.00258017      -0.00534191
C       -4.93883095       8.52211116       3.63246952       0.01381176       0.00372199      -0.00119302
C        2.47249223      -0.05885175       3.51862184      -0.00936093       0.00477635       0.00741066
C        1.27412791       2.05333935       3.82089380       0.00045253      -0.00689882      -0.00482606
C       -0.08696522       4.28981797       4.17527418       0.00112767       0.00211283      -0.00582537
C       -1.27295622       6.42434127       3.95107107      -0.00220473       0.01054797       0.01138637
C       -2.45951694       8.52938750       3.64627906      -0.00099265       0.00392326       0.00001353
C        4.94123583      -0.01601797       3.45640778      -0.00794132      -0.00499365       0.00428235
C        3.67693840       2.04534891       3.21421649       0.00498484      -0.00337896       0.00383792
P        1.09356652       6.49792247       5.32398219       0.00625454       0.00530395      -0.00112105
C       -0.01560895       8.58545915       3.97142754       0.00632013      -0.00288930       0.00931184
C        7.40159574       0.01401701       3.59138734      -0.00252296       0.00322460       0.00061684
C        6.17202996       2.12689538       3.21923511       0.00861860       0.00164266      -0.00749293
C        4.99820883       4.30568310       3.13860166       0.00291144      -0.00555290      -0.01207315
P        3.73689989       6.23595627       4.58608232       0.00342883      -0.00211245       0.00637426
C        2.45589995       8.62037812       4.12430518      -0.00507998       0.00883973      -0.00221397
C        9.87227546       0.00952938       3.68396974       0.00394802      -0.00437115      -0.00728857
C        8.64676555       2.13598078       3.44277846       0.00404621      -0.00758350       0.00615309
C        7.42481154       4.26945251       3.32281477       0.00026086      -0.00138643       0.00259873
C        6.20229288       6.40750253       3.58753765      -0.00714184       0.00322857      -0.01464593
C        4.93932806       8.54806562       3.86873569      -0.00276065      -0.00403123      -0.00471022
C        0.00855819       1.40574892       3.74912573      -0.00405918       0.01063779      -0.00524898
C       -1.24074416       3.55191281       3.80116541      -0.00240981      -0.00207863       0.00512736
C       -2.46828210       5.69357670       3.66575232       0.00281745       0.00190355      -0.00054144
C       -3.69701731       7.82025050       3.60095195       0.00840083      -0.00295635       0.00240677
C       -4.93856871       9.93800003       3.61235556      -0.00203896       0.00595619       0.01389335
C        2.47601525       1.35336348       3.51414403       0.00227770      -0.00082805       0.00329995
P        1.42555411       3.54940765       4.66446657      -0.00237762      -0.00896400      -0.00916030
C       -0.13334872       5.68990736       4.33547732      -0.00735430      -0.00114273       0.00527108
C       -1.24243487       7.84536754       3.87671292       0.00190675       0.00992389       0.00270798
C       -2.45479175       9.94261679       3.51957680      -0.01418352       0.00115950       0.00303535
C        4.93514168       1.40899374       3.25720828       0.00427481       0.00164048       0.00563130
S        3.45714554       3.67427058       2.69870650      -0.00536978       0.00646281      -0.01142139
C        1.20532938       7.97856756       4.36342150       0.00636259      -0.00341086       0.00392937
C       -0.00042387       9.98258059       3.64741462      -0.00205920      -0.00518382      -0.00218432
C        7.40294948       1.42747593       3.38368653       0.00365398       0.00070458       0.00181187
C        6.18725423       3.54944425       3.16852915       0.00384609      -0.00388048       0.00344459
C        4.99990050       5.65755872       3.55315459       0.00228602      -0.01687924       0.00913986
C        3.70119054       7.91645969       4.15933486      -0.01158200       0.00120899      -0.00788568
C        2.46360770      10.00619522       3.77872037      -0.00043038       0.00440382      -0.00959013
C        9.88053323       1.42941925       3.58848906       0.00031461      -0.00591336       0.00687859
C        8.65390168       3.55868041       3.42327120       0.00103078      -0.00748958      -0.00303836
C        7.42484422       5.69004993       3.44903260      -0.00563505       0.00199708      -0.00193517
C        6.16714096       7.82029036       3.73118774       0.00709173       0.00541616      -0.01048276
C        4.93564962       9.97031919       3.73319693       0.00386040      -0.00162622       0.00242698
Fe       2.56680082       4.98867725       5.85538361      -0.00327516      -0.00117408      -0.00187758
