50
Lattice="12.336457 0.0 0.0 -6.168228499999997 10.683685154694365 0.0 0.0 0.0 15.0" Properties=species:S:1:pos:R:3:forces:R:3 energy=-439.81952093990486 free_energy=-439.81952093990486 stress="-0.006132515973028557 4.049507940006617e-05 3.0498056419943307e-06 4.049507940006617e-05 -0.003854275127642432 -1.1913930302893036e-05 3.0498056419943307e-06 -1.1913930302893036e-05 6.958371206326944e-06" pbc="T T T"
C       -0.00299104      -0.02333451       4.00944208       0.00608548      -0.00765248      -0.00161230
C       -1.24322875       2.10533941       4.06151077       0.00518075       0.00225281       0.00130900
C       -2.47844330       4.25035335       4.10396360      -0.00946705       0.00151994       0.00105726
C       -3.70065242       6.39328549       4.08207422      -0.00494225      -0.00017461       0.01238976
C       -4.93571742       8.53011992       3.99333878       0.00397430      -0.00672079      -0.00020291
C        2.46554939      -0.01102437       3.97906158      -0.00000714       0.00078204       0.00798503
C        1.21639327       2.10172549       3.77343506       0.00158519       0.00518570       0.01154102
C       -0.08267534       4.22160377       3.60175882       0.00176102       0.00195365      -0.00293994
C       -1.26880375       6.38960059       3.75082517      -0.00774536      -0.00168124       0.00048856
C       -2.46910431       8.53047871       3.99107981      -0.00394915       0.00219673      -0.00469751
C        4.93356652      -0.02251280       4.01293312       0.00775033      -0.00364815      -0.00346533
C        3.71605935       2.10264562       3.77875603      -0.00266132       0.00482706       0.00628624
P        2.46761061       4.28997799       2.71200794       0.00052445      -0.00783979       0.01076507
P        0.86811842       6.48791117       2.08943590       0.00509175      -0.00509083       0.00078269
C       -0.01951638       8.54326868       3.67597089      -0.00019330      -0.00396431       0.00742994
C        7.39823704      -0.02260483       3.98563562       0.00355896       0.00972367      -0.01459668
C        6.17586029       2.10547075       4.06988726      -0.00318005       0.00439647      -0.00352590
C        5.01826026       4.22050106       3.60113418       0.00024482       0.00372936       0.00104692
P        4.06199964       6.48766756       2.09245065      -0.00704623      -0.00552658       0.00093434
C        2.46558001       8.62474975       3.36546230       0.00207430      -0.00089492       0.00090796
C        9.87003270      -0.02264933       3.98314335      -0.00620364      -0.00011041      -0.00922998
C        8.63473358       2.10685855       4.17783690       0.00470907      -0.00274514       0.00434515
C        7.41445498       4.25012820       4.10498025      -0.00855895      -0.00461998       0.00771460
C        6.20353086       6.38760351       3.75208172       0.00715004       0.00734725      -0.00291241
C        4.94993205       8.53968406       3.68442701       0.00198132       0.00796430      -0.00316111
C       -0.01034003       1.39450367       3.97993268       0.00647354      -0.00351532       0.00887569
C       -1.26325056       3.52776414       3.97586235      -0.00350251       0.00532048      -0.00529827
C       -2.47683737       5.67742627       4.03391917      -0.00872158       0.00125984      -0.00258361
C       -3.70202856       7.81980446       4.04205403       0.00048620      -0.00306060       0.00072469
C       -4.93478056       9.95500440       4.00697902       0.00619028      -0.01014792      -0.00257665
C        2.46615988       1.40694246       3.82801702      -0.00287351       0.00540148       0.01104988
C        1.12586022       3.48545453       3.48275043       0.00897610       0.00115787      -0.00582348
C       -0.13206215       5.63999358       3.35508099      -0.01065329      -0.00219021      -0.01060128
C       -1.24462323       7.82084209       3.80128910      -0.00458447      -0.00132828       0.00681402
C       -2.47085129       9.95509671       4.00761212       0.00143864       0.00265710      -0.00324180
C        4.94194382       1.39531404       3.98829031      -0.00069454      -0.00023735       0.00248105
C        3.80819755       3.48561188       3.48497482      -0.00558327       0.00109122      -0.00531334
C        1.20187377       7.91260345       3.23779944      -0.00012460      -0.00378056       0.00161697
C       -0.00247591       9.94915294       3.92975146       0.00931118      -0.00283089       0.00564958
C        7.40259214       1.39284262       4.12942469       0.00090623       0.00868887      -0.00690853
C        6.19809761       3.52768117       3.98047692      -0.00449800      -0.00036135      -0.01405470
C        5.07042477       5.63723915       3.34880177       0.00630019       0.00573076       0.01405598
C        3.72844606       7.90921307       3.24497460       0.00782251      -0.00322579      -0.00285481
C        2.46578538       9.96823687       3.80958108      -0.00380097       0.00009288       0.00072668
C        9.86629142       1.39320972       4.12375045       0.00559273      -0.00299089       0.00037989
C        8.63612064       3.53439447       4.18785010      -0.00776278      -0.00449612      -0.00066240
C        7.41266240       5.67685986       4.03477038      -0.00050107      -0.00308254      -0.00482191
C        6.17638922       7.81874535       3.80815467       0.00210237       0.00734515      -0.00974548
C        4.93329467       9.94727197       3.93102038      -0.00264303       0.00355473       0.00198740
Fe       2.46260303       6.37664929       3.52490824       0.00262629      -0.00226230      -0.00851501
