50
Lattice="12.336457 0.0 0.0 -6.168228499999997 10.683685154694365 0.0 0.0 0.0 15.0" Properties=species:S:1:pos:R:3:forces:R:3 energy=-437.8810643062874 free_energy=-437.8810643062874 stress="-0.004313482717706923 0.0007122699554245661 1.5097598167695888e-06 0.0007122699554245661 -0.004831621650694379 1.5562657525600073e-05 1.5097598167695888e-06 1.5562657525600073e-05 1.4954942127103052e-06" pbc="T T T"
C        0.01490910       0.01597528       3.99879936      -0.00246114      -0.00073461      -0.00419370
C       -1.22245732       2.14535663       3.96579786      -0.00399683      -0.00754176      -0.00840011
C       -2.45500422       4.28238246       3.99657750       0.00172124       0.00213509      -0.00612743
C       -3.68288707       6.42185070       4.05212359      -0.00524701      -0.00692302       0.00814755
C       -4.93298712       8.55148380       3.99310523      -0.00527935       0.01060141       0.00878161
C        2.47569174       0.01267092       3.97620903       0.00310478      -0.00692017      -0.00373727
C        1.23895352       2.13403844       3.67474408       0.00577430       0.00623466       0.00289819
C       -0.08049010       4.24274261       3.34064658      -0.00706299       0.01046598       0.00629909
C       -1.24934259       6.42429627       3.69115389       0.00546814       0.00039791      -0.00159923
C       -2.45223693       8.55393983       3.96798891      -0.00614738      -0.00481899       0.01516187
C        4.94103256       0.01139600       4.03823600       0.00686905       0.00386071       0.00766211
C        3.72444532       2.13431801       3.76240041      -0.00272659       0.00189528      -0.00904127
P        2.60640204       3.89127175       2.06191461       0.01233481      -0.00239911       0.00278133
S        0.97371367       6.61780490       2.17256557      -0.00821128       0.00407383       0.00518329
C       -0.00011895       8.57727352       3.72198992       0.00112995      -0.00999592       0.00308735
C        7.41017896       0.01783921       4.05010342       0.00526183       0.00004218      -0.00098334
C        6.18863765       2.13573906       4.09291220      -0.00100118      -0.00090893      -0.00660432
C        5.01130397       4.23877950       3.64664756      -0.00133196       0.00862788       0.00281149
S        3.74031585       6.39264484       2.79450833      -0.00618910       0.00214408      -0.00564559
C        2.46587917       8.62317106       3.55303928       0.00762852       0.00291257       0.00153594
C        9.88337875       0.01892137       4.02869151       0.00287945      -0.00017865       0.00162327
C        8.65411721       2.14724473       4.15565776      -0.00471486       0.00371016       0.00702141
C        7.42725120       4.28063439       4.10674094       0.00219265      -0.01403906      -0.00254792
C        6.20330577       6.41581955       3.85570155      -0.00183062       0.00114935       0.00005192
C        4.94837703       8.57163295       3.79422311       0.00191103      -0.00224271       0.00068872
C        0.01266851       1.43986686       3.91311358       0.00375778      -0.00226595       0.00093780
C       -1.24199234       3.56105794       3.80564415      -0.00713026      -0.00428210      -0.00747988
C       -2.45589271       5.70563451       3.95757718       0.00319024       0.00193325      -0.00585526
C       -3.69027487       7.84300900       4.01582429      -0.01178779      -0.00085988       0.00502826
C       -4.92515542       9.98153045       3.99959533      -0.00249344       0.00618881      -0.00768900
C        2.47661283       1.43510253       3.80583918       0.00400828      -0.00700449      -0.00558998
C        1.18288573       3.51326307       3.23069678      -0.01023915       0.00263514      -0.01253074
C       -0.14149341       5.67603955       3.20558598       0.00181168       0.00298477      -0.00631651
C       -1.22805876       7.84572045       3.77899569      -0.00232315      -0.00557663       0.00239438
C       -2.45968154       9.98206371       4.00750137       0.00566170      -0.00192207       0.00442552
C        4.94827143       1.43219081       4.01209357      -0.00241424       0.00578438       0.00614496
C        3.79274679       3.51409803       3.39089357      -0.00081979       0.00917005      -0.00486713
C        1.21355869       7.97017510       3.32608422       0.00537036      -0.00328437       0.00570329
C        0.00704927       9.99072224       3.98200472       0.00641765      -0.00704417       0.01079261
C        7.41929307       1.43451886       4.15092110      -0.00160436       0.00061401       0.01206303
C        6.20820135       3.55258952       4.00724237      -0.00054055      -0.00419839      -0.00584938
C        5.06936537       5.63969554       3.55581563      -0.00243191       0.00905213       0.00187008
C        3.71578464       7.96392443       3.47398674       0.00572435       0.00222689       0.01334177
C        2.47497925      10.00876419       3.92590875       0.00579878       0.00001214       0.00182298
C        9.88650489       1.43893135       4.09549140      -0.00702263       0.00034243       0.00026843
C        8.65730780       3.57089946       4.13835864       0.00428762      -0.00137451      -0.01180231
C        7.43007839       5.70368189       4.05011541      -0.00188771      -0.01429878      -0.01142658
C        6.17531459       7.84114412       3.86630417       0.00355748       0.00379995      -0.00092510
C        4.94865441       9.99545374       3.97220584       0.00022024      -0.00163864      -0.00572683
Fe       2.00918201       5.27540084       3.55038143       0.00081337       0.00745787      -0.00358935
