49
Lattice="12.336457 0.0 0.0 -6.168228499999997 10.683685154694365 0.0 0.0 0.0 15.0" Properties=species:S:1:pos:R:3:forces:R:3 energy=-433.6696363453758 free_energy=-433.6696363453758 stress="-0.004669655722413742 -0.0024259348394533057 7.193661193531605e-06 -0.0024259348394533057 -0.008585421320868427 8.70666336841177e-06 7.193661193531605e-06 8.70666336841177e-06 -1.1346356346557113e-06" pbc="T T T"
C       -0.02342782      -0.02790213       3.82762330       0.01070392      -0.00142978      -0.00709201
C       -1.27519128       2.11350702       4.05061282      -0.00190188      -0.00080958      -0.01168150
C       -2.50686117       4.26289306       3.87201196      -0.00181396      -0.00008305      -0.00981530
C       -3.69451343       6.40055615       3.60674796      -0.00224450      -0.01012007      -0.00277877
C       -4.93348696       8.53707953       3.58329955       0.00507151      -0.00072695       0.00798135
C        2.45767760      -0.06331881       3.82862549      -0.00557638       0.00776173       0.00000830
C        1.21685748       1.98914360       4.30271489       0.00305229      -0.00698648       0.00560290
C       -0.14348096       4.30400970       4.40793607      -0.00733766      -0.00525590      -0.00062015
C       -1.25493041       6.40678485       3.92657413      -0.00290575      -0.00024909       0.00345091
C       -2.46610311       8.52230623       3.71760013      -0.00050390       0.01177945      -0.00851631
C        4.92323300      -0.01696933       3.68680557      -0.00634249      -0.00566623      -0.00026589
C        3.64308918       2.05094051       3.68043072       0.00883512      -0.00785314       0.00747730
B        1.31143009       6.38990166       4.24179478       0.00716413       0.01251004      -0.00129709
C       -0.00388052       8.53840871       3.80875434       0.00015895       0.00211010       0.00416523
C        7.38219261       0.00521572       3.65028678      -0.00921037       0.00512078       0.01325943
C        6.13169277       2.14088953       3.50230616      -0.00740299       0.00605311      -0.00805852
C        4.98235273       4.32509927       3.20504610       0.01131581       0.00579651       0.00253929
C        3.75292263       6.45241361       3.34188862      -0.00852751      -0.00817469       0.00254339
C        2.45715777       8.55919339       3.66722545       0.00804379      -0.00776727       0.00809089
C        9.85103828       0.00495323       3.69723185       0.00062025      -0.00903036       0.00078316
C        8.60795984       2.13603722       3.69943638       0.00111463      -0.00130417      -0.00121751
C        7.39559447       4.27434880       3.48419421       0.01323455      -0.00683189       0.00479499
C        6.21562629       6.44331336       3.26745537      -0.00161211       0.00888911      -0.01294931
C        4.93593613       8.56249630       3.47127236      -0.00260081       0.00437990       0.00210487
C       -0.03961960       1.37573209       4.09196037       0.00343630      -0.00265276      -0.00190098
C       -1.30709866       3.53667111       4.13774585      -0.00861970       0.00116200      -0.01577407
C       -2.48278689       5.68734918       3.80092405      -0.00472630      -0.00537801       0.00358587
C       -3.69867624       7.82160881       3.62574036       0.00577042      -0.00273090      -0.00116226
C       -4.95279359       9.93892316       3.75791877       0.00531343      -0.00091537      -0.00154003
C        2.44580992       1.34088037       3.98682428       0.00791216      -0.00114128       0.01161923
P        1.34070690       3.58232021       5.00070058      -0.00091777      -0.00234701       0.01626502
C       -0.05049410       5.69522006       4.19910911       0.00070593       0.00091092      -0.00437065
C       -1.23527702       7.82018059       3.81471605      -0.00160271       0.00299764      -0.00630821
C       -2.46934271       9.93879699       3.73115046      -0.01113607       0.01240841      -0.00000599
C        4.90405538       1.41717724       3.60094253       0.00124746      -0.01178372       0.00067242
S        3.41515890       3.62228935       2.93068720      -0.00578577       0.01168838      -0.00251918
C        1.24808578       7.85417671       3.88713044       0.00070398       0.00825279      -0.00018598
C       -0.01117817       9.96366799       3.69767578      -0.00577910      -0.00115798       0.00145084
C        7.36851863       1.43208834       3.60360725      -0.01092354       0.01189628       0.00212846
C        6.15872813       3.55798194       3.36921935       0.00891416       0.00749562       0.00931907
C        4.97094214       5.75647286       3.14476866       0.00187345       0.00388498      -0.00575866
C        3.69247625       7.85168391       3.48814961       0.00330981      -0.00659735      -0.00798428
C        2.45235254       9.98678208       3.64514122      -0.00575839      -0.00817386       0.00923324
C        9.84273011       1.42182049       3.81621984      -0.00056912      -0.00701822       0.00163578
C        8.60968058       3.55859636       3.68424375       0.01089140      -0.00618745      -0.00322353
C        7.41688065       5.70044732       3.43537834      -0.00300906      -0.00844178      -0.00305013
C        6.17354725       7.85038983       3.41576282      -0.00216384       0.00877796       0.01163802
C        4.91958434       9.96895361       3.66248642       0.00852133       0.00237704      -0.00290677
Hf       3.20251758       5.18703735       4.89864147      -0.00894312       0.00056159      -0.00936689
