49
Lattice="12.336457 0.0 0.0 -6.168228499999997 10.683685154694365 0.0 0.0 0.0 15.0" Properties=species:S:1:pos:R:3:forces:R:3 energy=-437.05817285648175 free_energy=-437.05817285648175 stress="-0.0036388229274806057 -0.0008691640400092994 1.3673227063434892e-06 -0.0008691640400092994 -0.007374850839863465 -1.0537498934192094e-05 1.3673227063434892e-06 -1.0537498934192094e-05 1.4541325068578023e-06" pbc="T T T"
C       -0.01172936      -0.02405152       3.55172555      -0.00892405      -0.00311548      -0.00281844
C       -1.24880934       2.12092672       3.71991825       0.00384725       0.00104828       0.00595036
C       -2.49513188       4.25912541       3.66072515       0.00183633       0.00612548       0.00022122
C       -3.71673721       6.39240736       3.49598316      -0.00149317      -0.00162427       0.00256544
C       -4.94381132       8.52337028       3.40628688      -0.00721366      -0.00538645       0.00095241
C        2.46262375      -0.05931956       3.51591461      -0.00731485      -0.00353236      -0.00981296
C        1.24093402       2.01721616       3.88494915      -0.00074835       0.00213246       0.01181738
C       -0.07083423       4.30321171       3.95232517       0.00168221      -0.00257198      -0.01166909
C       -1.27564598       6.41347479       3.75389446      -0.00214492      -0.00273409      -0.00409622
C       -2.46990455       8.52212069       3.51852566       0.00176793       0.00132788       0.00332950
C        4.93264389      -0.02437026       3.61634804       0.00025689       0.00540026      -0.00153235
C        3.67991650       2.06452717       3.77464305      -0.00306769      -0.00193309       0.00231503
B        1.18264106       6.43212181       4.40802812       0.00370551      -0.00258105      -0.00030277
C       -0.00824831       8.53851968       3.78932559      -0.00011905      -0.00240371       0.01359513
C        7.39382283      -0.00435351       3.70480438       0.00788814      -0.00865486      -0.00879064
C        6.14945112       2.13840733       3.73890390       0.00202070      -0.00889109      -0.00158939
C        4.89604788       4.32254531       3.92747064       0.00152202      -0.00030798      -0.00583153
N        3.80939291       6.48192594       3.97343594       0.00661741       0.00457988       0.00034032
C        2.47584179       8.53545970       3.84104790       0.01050604       0.00090487       0.00097242
C        9.85826717      -0.00780584       3.63842868       0.00271918      -0.00028524      -0.00692782
C        8.61725479       2.13023278       3.67030157       0.00914234      -0.00049371       0.00222790
C        7.36843647       4.26709911       3.64289651      -0.00253333      -0.00397551      -0.00055568
C        6.16004030       6.41361861       3.47454096      -0.00226227       0.01007161       0.00683024
C        4.93010270       8.53605318       3.52234585      -0.00735417       0.00488649       0.00287475
C       -0.01422298       1.39343787       3.71974381       0.00197465      -0.00098890       0.00530544
C       -1.26081313       3.54240372       3.76279839      -0.00462519       0.00253902       0.00770477
C       -2.49525360       5.68404856       3.61844754      -0.00005629       0.00210620       0.00154366
C       -3.70731501       7.81333010       3.44445523      -0.00015486      -0.00079988       0.00359175
C       -4.94802691       9.93982566       3.46842113      -0.01091481      -0.00612571      -0.00474466
C        2.46704099       1.33796313       3.69700169      -0.00125552      -0.00491665      -0.00032790
P        1.51860754       3.66205703       4.38028949       0.00901508       0.01184546       0.01042150
C       -0.07983608       5.70953251       4.01401623      -0.00329614      -0.00113356       0.00477417
C       -1.24409203       7.82660738       3.68878489      -0.00108744      -0.00360607       0.00435835
C       -2.46457417       9.93602630       3.52222909      -0.00031448       0.00370298      -0.00041368
C        4.92773371       1.40138161       3.69963607      -0.00259387       0.00074971       0.00086537
B        3.57390227       3.53371363       4.11800055       0.00188964       0.00616644      -0.01158699
C        1.23519613       7.85975947       4.00297184       0.00798650       0.00307814       0.00261375
C       -0.00667977       9.96061140       3.68843894       0.00040403      -0.00203531       0.00071053
C        7.38311798       1.42344261       3.69432078       0.00845922      -0.00691356      -0.00460525
C        6.12997528       3.57003913       3.77034799      -0.00220477      -0.00760830      -0.00276807
C        4.95363137       5.74114257       3.72768798       0.00169257       0.00472817      -0.00414422
C        3.72351024       7.83609708       3.75891381       0.00418188       0.00350439       0.00126631
C        2.46407070       9.96740748       3.71290529       0.00934220      -0.00587291      -0.01558446
C        9.85558852       1.41724044       3.66101483       0.00774817      -0.00165791       0.01064466
C        8.60681202       3.55330900       3.64565283       0.00427008       0.00234280       0.00057162
C        7.38423613       5.68553245       3.51683501      -0.00485807      -0.00007185       0.00330990
C        6.15587123       7.82497291       3.43163548      -0.01127319       0.00696858      -0.00525049
C        4.92298897       9.95933784       3.55224886      -0.00738926      -0.00131164      -0.00434882
Hf       2.87935891       5.30686620       5.47515261      -0.01727657       0.00732399      -0.00397243
