49
Lattice="12.336457 0.0 0.0 -6.168228499999997 10.683685154694365 0.0 0.0 0.0 15.0" Properties=species:S:1:pos:R:3:forces:R:3 energy=-430.23929669351736 free_energy=-430.23929669351736 stress="-0.0011155337754831047 0.0018015060480993119 -1.3660592807707346e-06 0.0018015060480993119 -0.011133574734415322 5.393576606936824e-06 -1.3660592807707346e-06 5.393576606936824e-06 4.033761592780002e-06" pbc="T T T"
C        0.01762538       0.01474326       3.76212409       0.00043487      -0.00401689       0.00682963
C       -1.18617358       2.16677279       3.50799917       0.00941415      -0.01099106       0.00168371
C       -2.44416184       4.29469856       3.59702778       0.00998480      -0.01173036       0.00941997
C       -3.69207978       6.41150373       3.79348476       0.00323924       0.01290466      -0.00248386
C       -4.94635012       8.52994068       3.86518128      -0.00681459       0.00028939       0.00560979
C        2.47753696      -0.05360305       3.84324000      -0.00336742      -0.00219310      -0.00148619
C        1.28960058       2.12460655       3.75578391      -0.00205613       0.01340189      -0.00606616
C       -0.00104448       4.32628824       3.27631419      -0.01078046       0.01236968      -0.00389200
C       -1.20869151       6.42098589       3.74814367       0.00397160      -0.00217856       0.01130446
C       -2.45370909       8.53130970       3.76746273       0.00155139      -0.00139924       0.00498662
C        4.95391447      -0.00960010       3.70399900      -0.00383268      -0.00415802      -0.00212525
C        3.72162921       2.05713036       3.95180138      -0.00049825       0.00090073      -0.00112482
B        1.38787461       6.49428113       3.84959576      -0.00011003      -0.00061183       0.01366552
C        0.01278187       8.57781761       3.61812860      -0.00283403       0.00642286       0.00158687
C        7.41377149       0.04742224       3.54297570       0.00052387       0.00040700       0.00160773
C        6.19063171       2.14428970       3.71085285      -0.00655904      -0.00078024       0.00325795
C        4.95715778       4.26334046       3.96589164      -0.00348486       0.00503522      -0.00882555
S        3.36284467       6.28533256       4.45987032      -0.00402953       0.00680060       0.00111534
C        2.48146657       8.65087874       3.68187327       0.00096257       0.00368187       0.00486806
C        9.90198801       0.05220418       3.60839572      -0.00105332       0.01397898      -0.00291183
C        8.66217272       2.17017245       3.55547688      -0.00648437      -0.00853040       0.00311574
C        7.41898892       4.28536722       3.73846756       0.00801092      -0.00567680      -0.00550684
C        6.15040880       6.41611291       3.93318069      -0.00289864      -0.01042440       0.00170373
C        4.92362992       8.56786714       3.90234792       0.00346730       0.00253152      -0.00051922
C        0.02337864       1.44619372       3.65510693       0.00713562      -0.01158994      -0.01270129
C       -1.21385759       3.57677828       3.43672974       0.01025695      -0.01138555      -0.00780352
C       -2.44012082       5.71107202       3.71892009       0.00392354       0.00055527       0.00498132
C       -3.69834833       7.82699369       3.82395405      -0.00358393       0.01133438      -0.00605002
C       -4.93345229       9.95416695       3.83403738      -0.00312568      -0.00405244       0.00715235
C        2.50473395       1.36531088       3.90087314      -0.00237611       0.00448147      -0.01188129
S        1.50159503       3.55282040       2.57369181      -0.00198619       0.00574171       0.00336838
C        0.07659797       5.68635758       3.73873609       0.00298266      -0.00493222      -0.00809106
C       -1.21224425       7.83423736       3.71840166       0.00228611      -0.00002843       0.01033208
C       -2.44837008       9.94544021       3.77536538      -0.00286462      -0.00427966      -0.00559434
C        4.97334345       1.40680143       3.78457719      -0.00332289      -0.00414434       0.00283803
B        3.66553187       3.52700794       4.16275047       0.00224268       0.00215619      -0.01222333
C        1.27202780       7.94102789       3.63522874       0.00019242       0.00258936       0.00045816
C        0.01424703       9.99883836       3.59203621      -0.00079570       0.00501716       0.00697939
C        7.42351050       1.45873973       3.57982054      -0.00889106      -0.00429002       0.00977811
C        6.19598619       3.55564597       3.79031247      -0.00213422       0.00100294      -0.00748625
C        4.95320441       5.65150750       4.03440764      -0.01148066       0.00536084       0.00058957
C        3.65969913       7.95336207       3.97228220       0.00685747      -0.00208381       0.00255464
C        2.49182603      10.05564005       3.56417424       0.00391693       0.00764127      -0.00382238
C        9.90170448       1.46663751       3.54019303      -0.00064294       0.00717502      -0.01493009
C        8.65582657       3.58673794       3.62180778       0.00666800      -0.01293144      -0.00431058
C        7.40384952       5.70601504       3.82046740       0.00744625      -0.00277964       0.00527676
C        6.14998925       7.83286581       3.92570503      -0.00148665      -0.00804942       0.00587832
C        4.94872236      10.00097862       3.74803869      -0.00462965       0.01090734       0.00218922
Hf       1.61619924       4.36750923       4.86748279       0.00665431      -0.00944955      -0.00329557
