49
Lattice="12.336457 0.0 0.0 -6.168228499999997 10.683685154694365 0.0 0.0 0.0 15.0" Properties=species:S:1:pos:R:3:forces:R:3 energy=-436.697616399611 free_energy=-436.697616399611 stress="-0.005209137002879155 -0.002314711860594137 -1.0153397152035524e-06 -0.002314711860594137 -0.009179057836593585 -6.773304686819118e-06 -1.0153397152035524e-06 -6.773304686819118e-06 2.89955885088022e-07" pbc="T T T"
C        0.00250810      -0.02604957       3.63212008       0.00115416       0.00332361       0.00343243
C       -1.23843061       2.11449725       3.79736881       0.00787439       0.00469349       0.00727815
C       -2.46730450       4.25117303       3.68115689      -0.00243964      -0.00085909       0.00029275
C       -3.69902485       6.38687037       3.47895166      -0.00069597      -0.00476362      -0.00213930
C       -4.92664325       8.52239801       3.45508451      -0.00874109      -0.00438372       0.00353468
C        2.46890199      -0.06795770       3.59850492      -0.00386663       0.00124439      -0.00369923
C        1.23825159       2.05014041       3.98312166      -0.00207126       0.00183909      -0.00378081
C       -0.00727918       4.25336622       4.01640165      -0.00987772      -0.00197497      -0.01208096
C       -1.24586055       6.38733199       3.58737036      -0.00338963      -0.00356074      -0.00062630
C       -2.45490562       8.51428296       3.44487286       0.00388188       0.00210535       0.00292271
C        4.93906472      -0.02738699       3.59038375       0.00341758      -0.00497471      -0.01255137
C        3.68551714       1.99036181       3.99016769      -0.00279124       0.00505583      -0.00225049
B        1.15326813       6.48409402       3.98573229      -0.00307071      -0.00053240       0.00578516
C        0.00308331       8.54396459       3.52365123      -0.00003283       0.00257398       0.00831093
C        7.40677730      -0.00257728       3.60761836       0.00337111      -0.00033536      -0.00007601
C        6.15767379       2.13341111       3.74670369      -0.00213024      -0.00427330      -0.00454600
C        4.96569956       4.34932549       3.92085121       0.00446417      -0.00379876       0.00543118
N        3.84327712       6.50040358       4.18718708      -0.00197204       0.00683446       0.00162393
C        2.50657729       8.54896372       3.69704004      -0.00504301      -0.00103945      -0.00232599
C        9.87700047      -0.00247751       3.65188128       0.00344736       0.00079578      -0.00420284
C        8.63177224       2.12821741       3.68348944       0.00347570       0.00471036      -0.01551578
C        7.39578439       4.26575361       3.64182868       0.00978504       0.00142372       0.00567226
C        6.18282298       6.42492380       3.58400015       0.00284382      -0.00649672       0.00466216
C        4.95391013       8.53777077       3.61307316      -0.00054988      -0.00040889       0.00646092
C       -0.00302907       1.39110067       3.80843890       0.00406726       0.00457846      -0.00164957
C       -1.23370133       3.53306543       3.83698535      -0.00663201       0.00201898      -0.00080395
C       -2.47450200       5.67266873       3.56368728      -0.00325919      -0.00749797       0.00134701
C       -3.69179004       7.80759916       3.43112131      -0.00146950       0.00011456      -0.00448912
C       -4.93714841       9.93395563       3.53533735      -0.00454323       0.00031736       0.00795112
C        2.45176643       1.31903434       3.85168495      -0.00396225      -0.00105192      -0.00475473
B        1.34573016       3.53088931       4.32402051       0.00418918       0.01125200       0.00392718
C       -0.05933661       5.65491562       3.83883438      -0.00362734      -0.00064150      -0.00240862
C       -1.21933067       7.80829485       3.50202333       0.00309876      -0.00180301       0.01045584
C       -2.45663116       9.93145526       3.51926042      -0.00011266       0.00231202      -0.00340293
C        4.93980233       1.38726738       3.77315336      -0.00361312      -0.01094585      -0.00552540
P        3.41812368       3.62967740       4.43548462      -0.00410057       0.00473696       0.00424256
C        1.25752159       7.88361796       3.64387746      -0.00804183       0.00465981       0.00274438
C        0.00313575       9.96531850       3.54088117       0.00625001      -0.00168442       0.00812427
C        7.39340828       1.42221309       3.66889758      -0.00070166       0.00333616      -0.00841573
C        6.15679384       3.56630389       3.76144807       0.01067178       0.00185006      -0.00611728
C        4.97572404       5.76472808       3.86844909      -0.00088281       0.00200671       0.00760399
C        3.74361534       7.83306199       3.82181460      -0.00330067       0.00917887       0.00644158
C        2.48452908       9.97707565       3.63053681       0.00142481      -0.00500530      -0.00644829
C        9.86802534       1.41728714       3.69931048       0.00830420       0.00532578      -0.00169981
C        8.63173298       3.55039640       3.66170575       0.00299842       0.00124580      -0.01013853
C        7.40154865       5.68559746       3.54552796       0.00348135      -0.00417748       0.01118692
C        6.17756105       7.83005703       3.52841418      -0.00550301      -0.01083957       0.00156505
C        4.94073979       9.95904570       3.61350252       0.00354679      -0.00165369      -0.00203908
Hf       2.39066256       5.46312137       5.45176071       0.00467399      -0.00483117       0.00069095
