49
Lattice="12.336457 0.0 0.0 -6.168228499999997 10.683685154694365 0.0 0.0 0.0 15.0" Properties=species:S:1:pos:R:3:forces:R:3 energy=-430.2169611176485 free_energy=-430.2169611176485 stress="0.0017609058560840213 9.408093358440853e-05 -4.38729315619194e-06 9.408093358440853e-05 -0.01103440887538425 8.51897868601084e-06 -4.38729315619194e-06 8.51897868601084e-06 2.0249870186990336e-06" pbc="T T T"
C        0.01155923      -0.03451563       3.41487755       0.00776843       0.00250532      -0.00124875
C       -1.19317692       2.14894389       3.66914116       0.01046158       0.00311262       0.00378775
C       -2.41226846       4.27084305       3.88141869       0.00399490      -0.00450142      -0.00193669
C       -3.66581469       6.38915259       3.75278499       0.00358051      -0.00292227       0.00773492
C       -4.93728505       8.49175251       3.52276182      -0.00179203      -0.00114865       0.00748628
C        2.48736858      -0.09922017       3.40610131      -0.00513914       0.00351930       0.00051433
C        1.27935490       2.00811456       3.61314879      -0.01160255      -0.00316472      -0.00106997
C        0.10031870       4.25502299       4.14265897      -0.00110530       0.00123320      -0.00607923
C       -1.17439972       6.41521335       3.81006658       0.00736161       0.00114064       0.01474625
C       -2.43948008       8.49681592       3.49570040       0.00103220       0.00178758       0.00285628
C        4.94350915      -0.01113086       3.49311134       0.00215089      -0.00487042      -0.00847665
C        3.66868097       1.98351581       3.92573954      -0.00128449       0.00018703      -0.00322952
B        1.39297193       6.56525687       3.87750532      -0.00207192       0.00015232       0.00056215
C        0.01662769       8.57664742       3.40388623      -0.00295682       0.00589916       0.00600155
C        7.40253027       0.06458435       3.39645282      -0.00461305       0.00884334      -0.01182853
C        6.16213486       2.14348254       3.79722448      -0.00004462      -0.00222972       0.00127359
C        4.97788924       4.29445576       4.21459725      -0.00785313       0.00053367      -0.00203306
S        3.39962714       6.45406803       4.49132627      -0.00411980      -0.00542173       0.00470255
C        2.48317379       8.66146955       3.39156422      -0.00999605      -0.00479888       0.00391236
C        9.89549135       0.05601418       3.40651652       0.00230061      -0.00062984      -0.00582220
C        8.65586017       2.16587296       3.66617811       0.00489303      -0.00167818      -0.00839729
C        7.42251949       4.27088807       3.89781918       0.00333560       0.00158769      -0.00568602
C        6.16718351       6.40651936       3.87253249      -0.00017912       0.00219093       0.00421100
C        4.93492427       8.55401097       3.58517693       0.00002701       0.00657472       0.00052175
C        0.01832040       1.38790538       3.52333917      -0.00043507       0.00035946       0.00088098
C       -1.17868615       3.54833446       3.90333782       0.00684206       0.00335837      -0.00112591
C       -2.41119936       5.69534051       3.83882372       0.00805566      -0.00652188       0.00937820
C       -3.68082048       7.79394398       3.58110247       0.00016566       0.00051839       0.01299666
C       -4.93188831       9.90599221       3.40446317       0.00001349      -0.00183140      -0.01056041
C        2.48891549       1.30343784       3.58514417      -0.00787324       0.00215562       0.00188138
B        1.38167123       3.38881874       4.07060115      -0.00131858      -0.01292001       0.00056451
C        0.10856904       5.71949551       4.06845425       0.00535308       0.00019735      -0.00275019
C       -1.19198880       7.81160527       3.56464196       0.00372154       0.00304081       0.01114607
C       -2.43972621       9.91328852       3.43241589      -0.00366688       0.00251535       0.00077601
C        4.93517094       1.40394622       3.73750131       0.00007282      -0.00862155      -0.01102487
S        3.42818827       3.52000144       4.70053587       0.00105036       0.00365549      -0.00046762
C        1.27693740       7.94966438       3.41357931      -0.01369790      -0.00164555       0.00573663
C        0.00947385      10.00531209       3.38797921       0.00210193       0.00269710      -0.00078620
C        7.39954785       1.46858530       3.60300133      -0.00134349       0.00574394       0.00007548
C        6.17320233       3.55039705       3.97789659       0.00850220      -0.00022696      -0.00215990
C        4.97236690       5.66670409       4.13195023      -0.01426959      -0.00146935      -0.00903491
C        3.66370067       7.97149288       3.70405747      -0.00226406      -0.00491030       0.00723665
C        2.48464355      10.07315287       3.31788492      -0.00670678      -0.00080242      -0.00353138
C        9.89679050       1.46577181       3.56042979       0.01030682       0.00190824      -0.00972587
C        8.67123286       3.57223869       3.82320868       0.00033098      -0.00338290      -0.00152564
C        7.42134024       5.69100304       3.85230558      -0.00061526       0.00126014      -0.00656945
C        6.15807146       7.81104864       3.66818436      -0.00065643       0.00556105       0.01212766
C        4.94325069       9.97977624       3.43187364       0.00899986       0.00333690      -0.00458412
Hf       1.70100867       5.05351393       5.54371656       0.00318243      -0.00187761      -0.00145662
