50
Lattice="12.336457 0.0 0.0 -6.168228499999997 10.683685154694365 0.0 0.0 0.0 15.0" Properties=species:S:1:pos:R:3:forces:R:3 energy=-445.2253507694834 free_energy=-445.2253507694834 stress="-0.007315624031048855 0.0019202733001242433 4.114186085863675e-06 0.0019202733001242433 -0.007233562712509589 8.267180673281276e-07 4.114186085863675e-06 8.267180673281276e-07 6.847993634037637e-06" pbc="T T T"
C        0.02816690       0.00552545       3.78406280      -0.00082962       0.00373245       0.00621236
C       -1.20532957       2.13152299       3.75748616       0.00248050      -0.00431298      -0.00246328
C       -2.44107377       4.27654894       3.74837675       0.00250462       0.00078302      -0.00768599
C       -3.68314680       6.41537494       3.79118686       0.00164104       0.00175266       0.00844283
C       -4.92738890       8.54373370       3.76989455      -0.00280169      -0.00912451       0.00277127
C        2.49387888       0.00124469       3.72447325      -0.00035601      -0.00840903       0.00698269
C        1.26275903       2.13542325       3.52524935       0.00201315       0.00159125       0.00669720
C       -0.03341114       4.25015263       3.40150230      -0.00457111       0.00060405       0.00858309
C       -1.24272868       6.43114363       3.67997455       0.00368754       0.00301746       0.00185844
C       -2.44878540       8.54923951       3.86058492       0.01030964      -0.00069786      -0.00293919
C        4.96782157      -0.00684690       3.89088241       0.00185920       0.00108883       0.00016000
C        3.76379995       2.10057891       3.54597517      -0.00217024      -0.00022808      -0.00381821
B        2.60435277       4.26727132       3.30733985      -0.00273846      -0.00197414       0.00713903
O        0.89471072       6.23944673       2.58715584       0.00873061       0.01029995      -0.00610304
C        0.02092576       8.55761860       4.16255311       0.00480833       0.00343391      -0.00742755
C        7.43235823       0.01782373       4.10738132      -0.00541175       0.00265259       0.00004777
C        6.22329678       2.11439296       3.81646381      -0.00548456      -0.00133568       0.00029403
C        5.04519090       4.22449626       3.49177437       0.00115513       0.00736687      -0.00522111
S        3.48324335       6.32887236       3.10280636      -0.00481573      -0.01322843       0.00000164
C        2.48286580       8.59296581       4.25139788      -0.00358699       0.00386929      -0.00531205
C        9.90842267       0.01510954       4.01885910      -0.00353831      -0.00139858       0.00014144
C        8.67859857       2.14021943       3.93262820       0.00041111       0.00363484       0.00331351
C        7.45588682       4.26953825       3.78759851      -0.00197750      -0.00031278       0.00269533
C        6.18890526       6.40533130       3.66814358      -0.00204619      -0.00580956       0.00563128
C        4.95115708       8.54736613       3.86026697       0.00626311       0.00148097       0.01024072
C        0.03321127       1.42757282       3.68918863       0.00442649       0.00289700       0.00401848
C       -1.23828891       3.54488209       3.64399846      -0.00306092      -0.00624572      -0.00768544
C       -2.45466537       5.70235233       3.74577779       0.00389318       0.00275402      -0.00035853
C       -3.68487453       7.83806749       3.79610133       0.00507773       0.00138591      -0.00092514
C       -4.91175685       9.97318683       3.75620324      -0.00505628      -0.00699212      -0.00156339
C        2.49991144       1.42203942       3.59120612      -0.00060428      -0.00475835       0.00178091
C        1.24117575       3.58115936       3.37297758      -0.00698862      -0.00271729      -0.00214542
C       -0.13984334       5.67049851       3.14468856       0.00367895       0.00425224       0.00556134
C       -1.20944272       7.84051468       3.91211111       0.00797922       0.00136494       0.00533417
C       -2.44422695       9.97219585       3.83204818       0.00678071      -0.00276801       0.00104198
C        4.98688883       1.40054564       3.75146369      -0.00485851      -0.00088513       0.00267821
C        3.83843530       3.50472137       3.36544176       0.00307968       0.00263287      -0.00518348
C        1.24731661       7.92944598       4.41486677      -0.00605602      -0.01349996      -0.01019548
C        0.02447238       9.98906861       4.08050147       0.00038426       0.00154396      -0.00289930
C        7.44560305       1.42764202       3.97408183      -0.00342692       0.00240743      -0.00386109
C        6.25636336       3.52939807       3.70904184      -0.00249251       0.00016302      -0.00590054
C        5.03117738       5.62914762       3.48890231      -0.00661420       0.00586068      -0.00584516
C        3.69045606       7.90130066       3.94371268       0.00259076       0.01605723       0.00625520
C        2.50558525      10.02099665       4.17421385      -0.00750502       0.00142134       0.00343190
C        9.90883716       1.43167580       3.92573665      -0.00005353      -0.00187214      -0.00601683
C        8.67827508       3.55884081       3.84553146       0.00106859       0.00384885      -0.00379245
C        7.43245876       5.69470474       3.75488397      -0.00007370      -0.00134016      -0.00478976
C        6.17389659       7.83133249       3.73932217       0.00043006      -0.01187353       0.00969018
C        4.96558983       9.98068929       3.90957533       0.00007610       0.00219502      -0.00237838
Hf       1.53724701       5.81863270       4.57506451       0.00178893       0.00569139      -0.00649421
