49
Lattice="12.336457 0.0 0.0 -6.168228499999997 10.683685154694365 0.0 0.0 0.0 15.0" Properties=species:S:1:pos:R:3:forces:R:3 energy=-436.7451206682209 free_energy=-436.7451206682209 stress="0.0023145604259171264 0.001540339897766112 4.999654930429484e-06 0.001540339897766112 -0.006322402590561077 6.659137365104459e-06 4.999654930429484e-06 6.659137365104459e-06 -2.8543464726734805e-06" pbc="T T T"
C        0.00958987      -0.01327202       3.52990283       0.00789433      -0.00692697       0.00964464
C       -1.19787627       2.15360542       3.60658301      -0.00339044       0.00306704       0.00288834
C       -2.42319205       4.27149550       3.63400327      -0.00280209      -0.00311776      -0.00103036
C       -3.68397529       6.39174352       3.56607010      -0.00219811       0.01020078       0.01298372
C       -4.93389310       8.51866679       3.57421053      -0.00193298       0.00499942      -0.00025930
C        2.47700542      -0.05874811       3.44865991       0.01123058      -0.00268635       0.00767604
C        1.27544355       2.07345750       3.50407866      -0.00127000      -0.00212916      -0.00296771
C        0.10747874       4.31224796       3.78102630       0.00621213      -0.00168075      -0.00582641
C       -1.21536338       6.42289175       3.56948750      -0.00559577      -0.00892621      -0.00452231
C       -2.45516790       8.52399128       3.49881443      -0.00050479      -0.00130126       0.00048426
C        4.94161860      -0.01081902       3.56314044      -0.00688922       0.01190381       0.00703639
C        3.68068489       2.08790743       3.69332375      -0.00291731       0.00593559      -0.00153902
N        1.10078870       6.48847141       4.17720354       0.00120180      -0.00723404       0.00414234
C        0.00437112       8.54911744       3.68733028      -0.00133399       0.00203671      -0.00034661
C        7.40700339       0.01550993       3.67414042       0.00354551      -0.00288357      -0.00821691
C        6.16951706       2.13746374       3.66981376       0.00402363      -0.00678634      -0.00851434
C        4.87708143       4.25232553       3.88832182      -0.00644989       0.00140549       0.00529702
P        3.72821711       6.40615073       4.93099911      -0.01154528      -0.01045822       0.00610726
C        2.45076518       8.57917196       3.98447405       0.00287749      -0.00080136       0.00160865
C        9.87982941       0.01710647       3.68646987       0.00362938       0.00584909      -0.00388197
C        8.65182814       2.14638141       3.64329581      -0.00018317       0.00076833      -0.01008932
C        7.40128893       4.26132404       3.66636705      -0.00519731      -0.00289899       0.00456691
C        6.20412656       6.40298106       3.82200827       0.00871000       0.00670218      -0.01233549
C        4.95475508       8.57227672       3.87307239      -0.00165722       0.00022011       0.00072037
C        0.02286527       1.41673687       3.51074701      -0.00259643      -0.00601305      -0.00261351
C       -1.16248578       3.57880527       3.66597635       0.00256108       0.00137368      -0.00134938
C       -2.44156657       5.69130959       3.57367681      -0.00952329      -0.00151716      -0.00235547
C       -3.69253800       7.81107258       3.52428937      -0.00385494       0.00809244       0.00843992
C       -4.93291619       9.93678111       3.49236539       0.01169600      -0.00160081      -0.00149432
C        2.48494787       1.35406310       3.51529165       0.00183957      -0.00010479      -0.00133431
B        1.50719177       3.54416740       3.74213919      -0.01078212       0.00382456      -0.00613393
C        0.00381324       5.75396473       3.76329141      -0.00323197      -0.00722187       0.00428037
C       -1.21771210       7.83339049       3.57169618      -0.00180407      -0.00556007      -0.01404530
C       -2.45206968       9.94093996       3.48878491       0.00534980      -0.00159736       0.00554125
C        4.93249265       1.41793676       3.64098297      -0.00272329       0.01035977       0.00662190
B        3.41741447       3.58075058       4.01732592       0.00056590      -0.00935634      -0.01491099
C        1.20312413       7.85056883       3.96109617       0.00289268      -0.00335761       0.01606793
C        0.00680478       9.97507885       3.63204879      -0.00751844       0.00885700      -0.00087236
C        7.40902380       1.43706401       3.64848731       0.00765069      -0.00692630      -0.00099240
C        6.14218970       3.55315982       3.71921032      -0.00638096      -0.00808141      -0.00027031
C        5.02579093       5.63994354       4.06563204       0.01760380       0.00024425       0.00397234
C        3.71202589       7.96111890       4.18731813      -0.00163060       0.00223576       0.00221943
C        2.46736957       9.99293753       3.76344749       0.00702505       0.00236385      -0.00157509
C        9.89277709       1.44183652       3.63235629      -0.00183341       0.00687123       0.00172815
C        8.65574384       3.56607016       3.63893934      -0.00366773      -0.00070740      -0.00173297
C        7.42156467       5.68297371       3.66216634       0.00472307       0.00372154       0.01037198
C        6.17792640       7.82615344       3.77679657      -0.00203577       0.00734690      -0.00636210
C        4.94802202       9.98369603       3.67704863       0.00086955      -0.00128281      -0.00655271
Hf       1.93366837       4.90658092       5.41080788      -0.00065145       0.00277844      -0.00027432
