49
Lattice="12.336457 0.0 0.0 -6.168228499999997 10.683685154694365 0.0 0.0 0.0 15.0" Properties=species:S:1:pos:R:3:forces:R:3 energy=-432.97956702459095 free_energy=-432.97956702459095 stress="-0.0034615936968898776 0.004833669725989433 -1.4614027480315644e-06 0.004833669725989433 -0.00044331152757652386 7.1824208913182715e-06 -1.4614027480315644e-06 7.1824208913182715e-06 -5.471217050585729e-07" pbc="T T T"
C        0.01465146       0.01892354       3.68988965      -0.00539797      -0.00525010       0.00719202
C       -1.20009560       2.16445658       3.54936054       0.00768782       0.00006976      -0.00715663
C       -2.45216089       4.28652235       3.74076274       0.00096072      -0.00166258       0.00213017
C       -3.72118062       6.41531348       3.87468540       0.00288705      -0.00885150      -0.00005180
C       -4.94960648       8.54856820       3.84864411       0.00155958       0.00640814      -0.00547418
C        2.47391213       0.00777088       3.78894110       0.00585071       0.00527136       0.00823283
C        1.29211802       2.16365066       3.48029519      -0.00373499      -0.00090571       0.01367451
C       -0.00633515       4.38071528       3.45065605       0.00002053      -0.00265572      -0.01162562
C       -1.28557467       6.45759708       3.85436231      -0.00236461      -0.00798705       0.00168497
C       -2.48386647       8.56279900       3.84674053       0.00735958      -0.00400712      -0.01108506
C        4.94650179      -0.00344854       3.77400893      -0.00145181       0.00652267       0.00019405
C        3.76264469       2.09938472       3.84851913       0.00167136      -0.00770966      -0.00350647
O        1.15390454       6.47078617       3.56554744       0.00834151       0.00022643       0.00725556
C       -0.01522749       8.54747407       3.72225872       0.00103304       0.00385970      -0.00084189
C        7.42155098      -0.01550564       3.68886003      -0.00291375      -0.00118255       0.00199391
C        6.21296838       2.11548128       3.78083322      -0.00445601       0.00410958       0.01531509
C        5.00210055       4.22518063       3.96891864      -0.00104622      -0.00352353      -0.00002728
B        3.64022704       6.34474599       4.06009388      -0.00200834      -0.00258786      -0.00242680
C        2.45254799       8.51621435       3.71451330       0.00295139      -0.00087245      -0.00123922
C        9.88296247      -0.00145570       3.66120436      -0.00600264       0.00871331       0.00185971
C        8.66613852       2.13568723       3.68838488      -0.00401249       0.01110563       0.00207986
C        7.42208985       4.26610797       3.83319772      -0.00389788      -0.00412645       0.00248530
C        6.15937562       6.39346074       3.92297196       0.00593877      -0.00455823      -0.00651842
C        4.92589226       8.53883492       3.81609088      -0.00477883       0.00342886       0.00599416
C        0.03754331       1.45694341       3.55202759       0.00210594      -0.00897745      -0.00081736
C       -1.22717741       3.58213310       3.57302702       0.00107451       0.00030612      -0.00744726
C       -2.48723928       5.70988498       3.83911053       0.00030992      -0.00830002      -0.01282670
C       -3.72099705       7.84239725       3.87302656       0.00223648      -0.00174361      -0.00482163
C       -4.93138582       9.98079755       3.77752010       0.00216838       0.01086171       0.01243851
C        2.51035871       1.45503721       3.73323736      -0.00184779      -0.00020982       0.00418131
S        1.36853561       3.67090438       2.38431561      -0.00384156       0.00627135      -0.00125507
C       -0.07341804       5.76736571       3.75313598      -0.00057146      -0.00609368       0.00587967
C       -1.26297737       7.86431516       3.82074420       0.00689808      -0.00693740       0.00191341
C       -2.46901140       9.98919034       3.81539912       0.00487673      -0.00020088      -0.01083550
C        4.97545399       1.41836962       3.79539106       0.00131391      -0.00112191       0.00524555
O        3.82354703       3.48073695       4.07957438       0.00857517      -0.01214578       0.00340699
C        1.20612918       7.85724083       3.67405791       0.00125678       0.00436626      -0.01163389
C        0.01197160       9.96774173       3.72680096      -0.00528478       0.00390241       0.00004548
C        7.43194453       1.41427683       3.71300103      -0.00438284       0.00422311      -0.00032607
C        6.21112684       3.52318791       3.84726959      -0.00331757       0.00323454       0.00899552
C        4.93137245       5.62821066       3.99818292       0.00230869       0.00157134      -0.01019390
C        3.68334313       7.81543179       3.84854034      -0.00022694       0.00521091       0.01276013
C        2.47470704       9.95903932       3.67409803      -0.00223057      -0.00282616       0.00297985
C        9.90005679       1.43033461       3.62634251      -0.00000743       0.01156307      -0.00726797
C        8.65622218       3.56064176       3.75318043      -0.00381481       0.00757484       0.00191214
C        7.39099132       5.69056767       3.88223815       0.00692130      -0.01175950      -0.00174574
C        6.15240161       7.81938869       3.87269830       0.00088123       0.00031267      -0.00205685
C        4.94744069       9.97586776       3.71644909      -0.00892910       0.00063442      -0.00967972
Hf       2.02091475       4.67927867       4.45561012      -0.01066879       0.00644858       0.00101032
