49
Lattice="12.336457 0.0 0.0 -6.168228499999997 10.683685154694365 0.0 0.0 0.0 15.0" Properties=species:S:1:pos:R:3:forces:R:3 energy=-441.1251686205542 free_energy=-441.1251686205542 stress="-0.003934408797801795 0.00032424557019591346 -5.9499732435445255e-06 0.00032424557019591346 -0.0012964549728551376 1.0483329163234654e-05 -5.9499732435445255e-06 1.0483329163234654e-05 9.551217161743158e-07" pbc="T T T"
C       -0.00212555       0.00649589       3.71008050      -0.00290358      -0.00241446      -0.00252046
C       -1.24088808       2.13205990       3.66764398       0.00666800       0.00019195       0.00328252
C       -2.47514331       4.27341003       3.64445155       0.01013198       0.00364936      -0.00393245
C       -3.70430455       6.41511142       3.66316547      -0.00177191      -0.00717539      -0.00584535
C       -4.93533774       8.55779313       3.69652497       0.00081896      -0.00431412       0.00040283
C        2.46520874       0.03271450       3.73798451      -0.00283188       0.00714488      -0.00263477
C        1.20453683       2.16898735       3.85353924      -0.00380535      -0.00451814       0.00275757
C       -0.04612785       4.23482711       3.86763046      -0.00636180       0.00030387       0.00426144
C       -1.24180400       6.40713402       3.78383677      -0.00252850      -0.00161875      -0.00001615
C       -2.47305026       8.55612647       3.71843215       0.00245389       0.00349007       0.00217318
C        4.92650966       0.00942980       3.67956178       0.00356768      -0.00229326      -0.00009093
C        3.72682809       2.11795645       3.76446366      -0.00032464       0.00081617      -0.00338312
B        1.25999001       6.42077692       4.08999768       0.00485051      -0.00318741      -0.00228895
C       -0.01421953       8.56194906       3.77199355       0.00045315       0.00006978       0.00472817
C        7.40215240       0.00098823       3.65513230      -0.00263597       0.00103608      -0.00576154
C        6.17670893       2.13204241       3.58794898      -0.01157521       0.00327767       0.00562317
C        5.00182393       4.26283479       3.71436814      -0.00116646      -0.00369208      -0.00587464
C        3.68408048       6.36488357       3.92443355       0.00921435      -0.00134531       0.00777099
C        2.47085100       8.55482372       3.79441284      -0.00012610       0.00663616       0.00468561
C        9.86954439      -0.00228872       3.66550043       0.00252496      -0.00357647       0.00733296
C        8.63643865       2.13586216       3.58687579       0.00084779       0.00082762       0.00084382
C        7.40975012       4.27930960       3.58766561       0.00352663       0.00491696      -0.00148456
C        6.17151672       6.41135116       3.66095750      -0.00360853       0.00611546       0.00349597
C        4.93053937       8.53688978       3.73445756      -0.00380785       0.00286872       0.00338493
C       -0.00369501       1.43643245       3.72665567       0.00022739      -0.00276266       0.00319495
C       -1.25617602       3.54070277       3.68331285       0.00243498      -0.00057964       0.00357931
C       -2.47600249       5.69992815       3.69135023       0.00122109      -0.00243281      -0.00708577
C       -3.70571464       7.84317102       3.69099279       0.00313026      -0.00494455       0.00725494
C       -4.93164346       9.98848324       3.72121651      -0.00352923       0.00112997      -0.00314354
C        2.47206048       1.48600333       3.79399335       0.00085956       0.00531318       0.00704603
N        1.12767274       3.53498796       4.05122383      -0.00868598      -0.00244086      -0.00327146
C       -0.02340551       5.65848843       3.91575986      -0.00528376      -0.00011574       0.00635444
C       -1.24190118       7.83798169       3.76645898      -0.00066479      -0.00127658       0.00210895
C       -2.47720059       9.99229939       3.71368055      -0.00031405       0.00702908       0.00312236
C        4.93559426       1.43810881       3.64920577      -0.00405860      -0.00548721       0.00266763
O        3.80182663       3.52389253       3.81202761      -0.00266038       0.00149796      -0.01421472
C        1.22993477       7.88377699       3.85743858      -0.00006755       0.00114710      -0.00339358
C       -0.00873927       9.98328328       3.69276770       0.00303859      -0.00201697      -0.00379647
C        7.39875029       1.42490054       3.59341136      -0.00981278       0.00392622      -0.00309864
C        6.18460684       3.55025643       3.57844307      -0.00007158       0.00391735       0.00565916
C        4.92455124       5.67836193       3.74508922       0.00560176      -0.00332876      -0.00202649
C        3.68887562       7.80047028       3.81987986       0.00008598       0.00188778      -0.00541816
C        2.47099757       9.97758940       3.69354922      -0.00106701       0.00184746      -0.00872497
C        9.86648876       1.42021251       3.62272295       0.00633440      -0.00456287       0.00647950
C        8.63336307       3.56198799       3.58741291       0.00853410       0.00565918       0.00210577
C        7.39540192       5.70068021       3.62938725      -0.00441995       0.00307202      -0.00452908
C        6.16693403       7.83393926       3.69932623      -0.00397906       0.00318625      -0.00582044
C        4.93229543       9.96323915       3.70118655       0.00043247      -0.00307856      -0.00088171
Hf       2.56903939       4.84790266       4.95716770       0.01110400      -0.01379568      -0.00107823
