49
Lattice="12.336457 0.0 0.0 -6.168228499999997 10.683685154694365 0.0 0.0 0.0 15.0" Properties=species:S:1:pos:R:3:forces:R:3 energy=-432.7626544441731 free_energy=-432.7626544441731 stress="0.003401095593711739 0.0007440040448474983 4.3281389115994125e-06 0.0007440040448474983 -0.0029998918773105386 1.5189767609185174e-06 4.3281389115994125e-06 1.5189767609185174e-06 -3.0530934367170942e-06" pbc="T T T"
C        0.00413230      -0.01789272       3.58992038      -0.00498160      -0.00301931      -0.00056537
C       -1.21945187       2.14436488       3.74112286       0.00283009      -0.00066098       0.00546136
C       -2.42916114       4.28309198       3.95106702       0.00218398       0.00349925      -0.00005639
C       -3.67771238       6.40699268       3.88131749      -0.00318452       0.00130129       0.00023696
C       -4.94645694       8.52225544       3.69016619      -0.00437221      -0.00337164       0.00428908
C        2.46993652       0.00256229       3.68606478       0.00757791       0.00250702       0.00850365
C        1.21703307       2.08450349       3.57595211      -0.00421943      -0.00007019       0.01526518
C        0.03895866       4.22579617       3.93218022       0.00809079      -0.00225069      -0.00285493
C       -1.17353358       6.40818904       3.80488769      -0.00427704      -0.00497430      -0.00253286
C       -2.45667197       8.54071972       3.72547707       0.00351497      -0.00963438      -0.00368557
C        4.92713657       0.02687973       3.72957562       0.00646180       0.00550372      -0.00298148
C        3.72314506       2.13227553       3.92672427      -0.00457175       0.00249483       0.00287630
B        1.38669489       6.50087647       3.44982703      -0.00037558       0.00685774       0.00835699
C       -0.00426510       8.59575268       3.54215668      -0.00024074       0.00187033      -0.00664619
C        7.39922608       0.05383291       3.62248458      -0.00702951      -0.00417767      -0.00147767
C        6.18418598       2.14473956       3.95757357       0.00609321       0.00443270       0.00945367
C        4.99196178       4.23761604       4.24028742      -0.00532293      -0.00299421      -0.01747469
S        3.35275098       6.14325975       3.10764208       0.00554925       0.00617167      -0.00432234
C        2.46517580       8.64932876       3.32941076      -0.00062443       0.00660293      -0.00821909
C        9.88643689       0.03739896       3.55778802      -0.01094669      -0.00414372       0.00702627
C        8.65483069       2.16235558       3.83825114       0.00086985      -0.00149495      -0.00110114
C        7.42479111       4.28252880       4.03933943       0.00759422       0.00730086       0.00795183
C        6.14174384       6.39021267       3.87479759       0.00411766      -0.01058166      -0.00610234
C        4.91466140       8.52301538       3.49113722       0.00423508      -0.00104272       0.00010541
C        0.00383507       1.41254564       3.60640009      -0.00245029      -0.00324695       0.00924601
C       -1.21501900       3.54237367       3.91673436       0.00432978       0.00115071      -0.00072541
C       -2.41474664       5.70696675       3.90551626      -0.00634722       0.00171960       0.00331966
C       -3.69414496       7.82500205       3.77130278      -0.00374207      -0.00208017      -0.00171888
C       -4.92877709       9.96075098       3.63709003       0.00107647       0.00188605       0.00153438
C        2.47867737       1.46424736       3.71350410      -0.00346436       0.00569614       0.00765300
O        1.16053064       3.48115059       3.42075674       0.01043353      -0.00034542      -0.01222080
C        0.13488380       5.65755416       3.81828848      -0.00688039      -0.00205858      -0.01112819
C       -1.21228201       7.83152087       3.69422565       0.00408219      -0.00612171      -0.00522810
C       -2.46841686       9.97897166       3.70999364       0.01007709      -0.00440218       0.00001388
C        4.93595853       1.45127461       3.86896258       0.00209163       0.00763294      -0.00300962
O        3.78351953       3.49530140       4.26016331      -0.01598316      -0.00126884       0.00980902
C        1.24168251       7.96228669       3.35214920       0.00002983       0.00612983      -0.00567166
C       -0.00771244      10.02084152       3.62276236      -0.00042141      -0.00060840       0.00177537
C        7.40749254       1.45849602       3.80911384       0.00047418      -0.00496875       0.00188855
C        6.20749670       3.54291956       4.13155583       0.00571904       0.00821849       0.00139485
C        4.92144998       5.61614719       4.01931470       0.00033134      -0.00501502      -0.01934040
C        3.65840499       7.90771256       3.31488908       0.00350523       0.00856154      -0.00224651
C        2.47282181      10.05885173       3.48224777      -0.01140188      -0.00035465      -0.00276626
C        9.88896214       1.45269420       3.71175330       0.00058241      -0.00352710       0.00395732
C        8.66512662       3.57766845       3.95696425       0.00350010       0.00205379       0.00946989
C        7.40432201       5.70083873       3.96125210       0.00518996       0.00074739      -0.00379008
C        6.14797245       7.80205067       3.66786419       0.00194677      -0.01214347       0.00230401
C        4.93444049       9.96878513       3.53362166      -0.00694391      -0.00196582       0.00016776
Hf       2.09536648       4.82094116       4.78314204      -0.00470724       0.00418466       0.00380556
