50
Lattice="12.336457 0.0 0.0 -6.168228499999997 10.683685154694365 0.0 0.0 0.0 15.0" Properties=species:S:1:pos:R:3:forces:R:3 energy=-447.1550226679233 free_energy=-447.1550226679233 stress="-0.002804919371060593 9.250181990383474e-05 -1.298576352678821e-05 9.250181990383474e-05 0.0005983261404781772 1.006342087391495e-05 -1.298576352678821e-05 1.006342087391495e-05 -2.1944089715713235e-07" pbc="T T T"
C       -0.00394594       0.01647151       3.75504554       0.00355637       0.01197594       0.00554935
C       -1.23958472       2.15366010       3.70365935      -0.00486068      -0.00008775       0.00065610
C       -2.46773166       4.29081921       3.70949699       0.01360349      -0.00998390       0.00102562
C       -3.70250635       6.42603262       3.74547427       0.00968449       0.00085742       0.01293083
C       -4.93720300       8.56628513       3.78381813      -0.00473067       0.00085213      -0.01000600
C        2.46608823       0.01341229       3.69777450       0.00634469       0.00660480       0.00539465
C        1.23490540       2.14684998       3.55932990      -0.00295881      -0.00846206      -0.00151486
C       -0.00807295       4.32902134       3.60750151      -0.00494472      -0.00520084      -0.00402167
C       -1.25521125       6.44408614       3.72959129      -0.01424712       0.00589584      -0.00301148
C       -2.46699915       8.56606571       3.77185551      -0.00090592       0.00678719      -0.00953238
C        4.93664160       0.01669528       3.75326415      -0.00833650       0.00111782      -0.00111926
C        3.69940826       2.14605425       3.56471387       0.00202175       0.00428726       0.01620966
B        2.47437709       4.06999473       2.67940139      -0.00312367       0.00016111       0.00254279
O        1.11672506       6.45049635       4.03890319       0.00019121       0.00070999      -0.00750637
C       -0.00370802       8.54939677       3.85801573       0.00393508       0.00451118      -0.00362788
C        7.40764213      -0.00248692       3.82785473       0.00379434      -0.00815095      -0.00062014
C        6.17387922       2.15334623       3.71954504      -0.00580976      -0.01016677      -0.00621955
C        4.94242113       4.32780114       3.64659490      -0.00980380       0.01211029      -0.00986542
O        3.81344494       6.45021172       4.07520675       0.01872606      -0.00375553      -0.00528179
C        2.46580693       8.49237569       3.96303230       0.00200384      -0.00951333       0.00840217
C        9.86128993      -0.00281744       3.82903224       0.00767158       0.00273619      -0.00285988
C        8.63573393       2.14683072       3.76446175      -0.00658305       0.00843356      -0.00353757
C        7.40075266       4.28969564       3.72915564       0.00228771       0.00867702       0.00261017
C        6.18796257       6.44362928       3.77312736       0.00059471      -0.00318143      -0.01476292
C        4.93549944       8.54940061       3.87993402      -0.00244236      -0.00643979       0.00074795
C       -0.00534125       1.43757686       3.68072887      -0.00696389       0.00672405       0.00193526
C       -1.24438873       3.58297885       3.66166034       0.00562574      -0.01210049       0.00838607
C       -2.47462036       5.71330320       3.71931989       0.00134202      -0.01071078      -0.00128736
C       -3.70229796       7.85240343       3.76443856       0.00014672       0.00384727       0.01064929
C       -4.93190599       9.99419860       3.75111578       0.00287325       0.01033104      -0.00260892
C        2.46685107       1.45726290       3.58191233       0.00597254       0.00331502       0.00987279
C        1.24536083       3.60679158       3.42649750      -0.00293925      -0.00708996      -0.00298477
C       -0.05565921       5.72632941       3.73805670      -0.01671364      -0.00147905       0.00421483
C       -1.24646696       7.85639386       3.79019147      -0.00214330       0.00938499      -0.00306142
C       -2.47224046       9.99434667       3.74651741      -0.00025413       0.00230185      -0.00082987
C        4.93938212       1.43773089       3.68807133      -0.00555232      -0.00439988       0.00638778
C        3.69073755       3.60700493       3.44751580      -0.00485655       0.00431648      -0.00611508
C        1.19541384       7.85972950       3.96966487       0.00390858      -0.00804633       0.00973146
C        0.00062021       9.98292958       3.82009454      -0.00437894       0.00479098      -0.00183406
C        7.40332901       1.43355650       3.77702835      -0.00298634      -0.00696922      -0.00593683
C        6.17797584       3.58177507       3.69129096      -0.00473134       0.00199028      -0.00044721
C        4.98915572       5.72422968       3.78836780      -0.00699357       0.01173878      -0.00688253
C        3.73581043       7.85951724       3.99204405      -0.00064463      -0.00915448      -0.00566835
C        2.46596043       9.95581755       3.87311660       0.00873522      -0.00736561       0.01371130
C        9.86777203       1.43317701       3.77070330      -0.00639965       0.00729855      -0.00511882
C        8.63506843       3.57382990       3.73526822       0.00781903       0.00845908       0.00451877
C        7.40653181       5.71220006       3.74351336       0.00837691       0.00728797      -0.00606012
C        6.17878481       7.85685090       3.81782875      -0.00336169      -0.01071655       0.00445913
C        4.93168784       9.98281686       3.82782987       0.00832151      -0.00098952      -0.00405195
Hf       2.45314268       4.91862682       4.74209255       0.01012946      -0.01353986       0.00643848
