49
Lattice="12.336457 0.0 0.0 -6.168228499999997 10.683685154694365 0.0 0.0 0.0 15.0" Properties=species:S:1:pos:R:3:forces:R:3 energy=-433.93581667762203 free_energy=-433.93581667762203 stress="-0.00010314315651216886 -0.0017537591606177321 -1.0748506651496174e-05 -0.0017537591606177321 -0.003115384506533176 6.958578897704483e-06 -1.0748506651496174e-05 6.958578897704483e-06 4.014743220538078e-06" pbc="T T T"
C        0.01218105      -0.02943749       4.02552163       0.00461728       0.00424416      -0.00008018
C       -1.24944217       2.08425142       4.17166761      -0.00389741      -0.00752960      -0.00332256
C       -2.46132397       4.24324482       4.15802999      -0.00412020      -0.00755180      -0.01058091
C       -3.65513219       6.38322419       4.00422361      -0.00299790      -0.00352780      -0.00928610
C       -4.90560682       8.52210224       3.97918776       0.00391895      -0.00749518       0.00572087
C        2.47292545      -0.01427947       3.85201455      -0.00284069       0.00335132       0.00759759
C        1.19562560       2.08423220       3.86126562       0.00933497       0.00008922       0.00108796
C       -0.06030475       4.17998110       4.17755943       0.00726069       0.00875671       0.00757181
C       -1.16154502       6.35640175       3.99203882       0.00180293       0.00238829      -0.00016092
C       -2.42632853       8.51199012       3.87846224      -0.00139794       0.00460582       0.00096283
C        4.93530713      -0.01950602       3.70061119      -0.00276144      -0.00076507       0.00980171
C        3.67875453       2.06089990       3.35121936      -0.00268710       0.01473354      -0.00987833
O        1.28681287       7.11765294       2.09507592      -0.00294646      -0.01163417       0.00317643
C        0.00549640       8.53512484       3.57511594      -0.00304429      -0.00110203      -0.00448723
C        7.40106855      -0.01124025       3.74428890      -0.00236267       0.00080679      -0.01082478
C        6.17032971       2.12212532       3.59915621       0.00283681      -0.00253790       0.00376414
C        5.06264489       4.29930964       3.30097474       0.00616324       0.00784968       0.00932931
B        3.68575071       6.37342343       3.60422731       0.00689679       0.00422443      -0.00737421
C        2.48049154       8.56360973       3.62263669       0.00495023       0.00478059       0.00096871
C        9.86861438      -0.02652239       3.97128020       0.00219538       0.00059339      -0.01081318
C        8.62927960       2.11330436       3.96293242      -0.00689476      -0.00427935       0.00957326
C        7.43309784       4.25265621       3.84821680       0.00089585       0.00317232       0.00947540
C        6.21650556       6.39552073       3.84951428      -0.00700970      -0.00177156       0.00432493
C        4.95122569       8.52598928       3.91778325      -0.00024764      -0.00826948       0.00184714
C        0.00097198       1.39896314       4.06216607       0.00680747       0.00310686      -0.00504199
C       -1.26242764       3.48762489       4.28434612      -0.01241029      -0.01016984       0.00101103
C       -2.42000410       5.66503721       4.07763445      -0.00012350      -0.00081915      -0.00800859
C       -3.66363626       7.80929701       3.96903457       0.00238609      -0.00457415       0.00066611
C       -4.91720006       9.95160875       3.96968240       0.00336095      -0.00316989       0.01106051
C        2.44482931       1.42638115       3.69921702       0.00241779       0.00005079      -0.00420422
O        1.13364791       3.47299608       3.85328461       0.01047745      -0.00542899       0.00388762
C        0.04088398       5.57394850       4.02285322       0.00966569       0.00338400       0.00296414
C       -1.18581963       7.79094420       3.80137821      -0.00346955       0.00362002       0.01104976
C       -2.45591124       9.94691373       3.80337404      -0.00387607       0.00347699       0.00342304
C        4.92411100       1.41146770       3.55208524       0.00170453       0.00034307      -0.00001456
S        3.71502643       3.57167638       2.47399752      -0.01702567      -0.00429479       0.00662578
C        1.26034199       7.94345159       3.16188594       0.00444376       0.00795133       0.00056400
C        0.00612891       9.95166419       3.67453694      -0.00438936      -0.00473944      -0.00738089
C        7.39310272       1.41403502       3.78411703       0.00087614      -0.00284890      -0.00126170
C        6.21777591       3.53610740       3.57788401       0.00877144       0.00284446      -0.00453322
C        4.99784700       5.66803423       3.60338460       0.00017644       0.00908331       0.00020286
C        3.70149274       7.85289420       3.74296130       0.00118174      -0.00587642      -0.00085705
C        2.46395672       9.97329480       3.80486026       0.00123271       0.00882421      -0.00758665
C        9.86338788       1.39134985       4.06138616      -0.00648643      -0.00392636       0.01015482
C        8.64414212       3.53486824       4.01026065      -0.00522255      -0.00432706       0.00750620
C        7.44517159       5.67782832       3.92083317      -0.00610878       0.00186835      -0.00306123
C        6.19347465       7.81343553       3.94143252      -0.00102542      -0.00897880      -0.00737888
C        4.94375746       9.94786910       3.99860896       0.00440133       0.00124917      -0.01268476
Hf       1.82591394       5.34279932       2.86051010      -0.00543083       0.01021891      -0.00549583
