49
Lattice="12.336457 0.0 0.0 -6.168228499999997 10.683685154694365 0.0 0.0 0.0 15.0" Properties=species:S:1:pos:R:3:forces:R:3 energy=-432.1281176209277 free_energy=-432.1281176209277 stress="-0.006492258694325686 -0.002733805830229117 1.842791876025938e-06 -0.002733805830229117 -0.01121971837121463 -1.695508657021992e-05 1.842791876025938e-06 -1.695508657021992e-05 -1.380254261701548e-06" pbc="T T T"
C       -0.02515602      -0.01652639       3.69274844       0.00375658      -0.00381393      -0.00850261
C       -1.27948746       2.11760817       3.95230412       0.00180546       0.00717375      -0.00396797
C       -2.52018790       4.26653267       3.89396071      -0.00059363      -0.00488303       0.00585324
C       -3.70478585       6.40595262       3.63914686      -0.00351967      -0.00097007       0.00087630
C       -4.93510023       8.54116351       3.54156264      -0.00614266      -0.00641784      -0.01198761
C        2.45403236      -0.05885531       3.66266623       0.00487029       0.00484056       0.00486808
C        1.22033805       2.00323663       4.08457932      -0.00290180       0.00247951       0.01568483
C       -0.18863580       4.26484645       4.55352377      -0.00246950      -0.00384505       0.00453483
C       -1.30125645       6.41992500       4.13206399      -0.00115416      -0.00319493      -0.00791779
C       -2.46842063       8.52588414       3.73810982       0.00487231       0.00424917      -0.01111277
C        4.91807356      -0.01259899       3.60092541      -0.00208505      -0.00240443       0.01156465
C        3.64276437       2.05347592       3.48455678       0.00766460      -0.00222756       0.01423319
P        1.44195542       6.34308058       4.74207265       0.00153605       0.00181024       0.00246278
C       -0.01730173       8.56437098       3.93561853       0.00298357       0.01192318       0.00156884
C        7.37532082       0.01484827       3.61883668      -0.00626615      -0.00245144      -0.00487280
C        6.13311345       2.14325795       3.40576949      -0.00606699      -0.00366351       0.00714895
C        4.97026450       4.32554930       3.23113163       0.00269867       0.00351355       0.01447807
C        3.77434049       6.45601431       3.57688674       0.01392657       0.00662954      -0.00039451
C        2.46140502       8.59075195       3.75824086       0.00107466      -0.00526501      -0.00767780
C        9.84929011       0.01590567       3.62318401      -0.00311956       0.00346240      -0.00283891
C        8.60503532       2.14238258       3.62575807      -0.00470226      -0.00015731      -0.00068943
C        7.39146564       4.27889777       3.46086061       0.00704332      -0.00039111       0.00229659
C        6.21170822       6.44873176       3.30152662      -0.00498976      -0.00089826      -0.01245202
C        4.92876965       8.56631139       3.47922850      -0.00357899      -0.00423490       0.00083928
C       -0.04140948       1.38764485       3.93151015       0.00076486       0.00169642       0.00065743
C       -1.32477624       3.52906777       4.14614277      -0.00338796      -0.00022344       0.00686311
C       -2.50556972       5.69361918       3.89020951      -0.00441055      -0.00597388      -0.00340855
C       -3.70273203       7.82571453       3.63176697       0.00022568       0.00218945      -0.00273840
C       -4.95637214       9.94771900       3.63556177       0.00582806      -0.00448223      -0.00166751
C        2.43836216       1.34687809       3.75847309       0.00355089       0.00400498       0.00508534
P        1.38583916       3.53725190       4.87802573      -0.00970413       0.00728115      -0.00023972
C       -0.16476607       5.67062198       4.52503775       0.00129814      -0.00359186       0.00049432
C       -1.24933373       7.83223823       3.95043839       0.00400808       0.00483638      -0.00523545
C       -2.47174101       9.94121487       3.64582610       0.00226480       0.00379283       0.00737768
C        4.90306083       1.41823940       3.45666530      -0.00003095      -0.01364066       0.00613198
S        3.41330496       3.64755908       2.79477938       0.00223843      -0.00348504      -0.00250281
C        1.24763960       7.94021449       4.08925509      -0.00056711      -0.00302285      -0.00779907
C       -0.01854969       9.97555249       3.70084413      -0.00326244       0.00369903      -0.00575104
C        7.36772226       1.43715405       3.52562207      -0.00906617      -0.00248432       0.00517643
C        6.15993609       3.56051790       3.33202786       0.00377946       0.00156542      -0.00159355
C        4.96592708       5.76344774       3.26015552       0.00405719       0.00406294       0.00264616
C        3.69339664       7.86227232       3.58781229       0.00439060       0.00004816       0.00648881
C        2.44807109      10.00088668       3.63547049      -0.00458491      -0.00505132      -0.00846768
C        9.84035895       1.42973114       3.72376327       0.00021058       0.00903801      -0.01426479
C        8.60612245       3.56337140       3.64782891       0.00589744      -0.00296822      -0.00064405
C        7.41108979       5.70569481       3.43974043      -0.00453042      -0.00054671       0.00421650
C        6.17018670       7.85596496       3.41720626      -0.00956853      -0.00729032      -0.00864386
C        4.91522690       9.97917564       3.58630813      -0.00071195      -0.00379656       0.00227420
Hf       3.40885381       4.92604968       5.02898573       0.00666898       0.01307912       0.00154913
