49
Lattice="12.336457 0.0 0.0 -6.168228499999997 10.683685154694365 0.0 0.0 0.0 15.0" Properties=species:S:1:pos:R:3:forces:R:3 energy=-440.7480064680616 free_energy=-440.7480064680616 stress="-0.0035803466225786274 0.0022845175912446663 -2.4271094420416865e-06 0.0022845175912446663 0.003079742052229972 1.0410695500805943e-06 -2.4271094420416865e-06 1.0410695500805943e-06 1.8455395572560635e-06" pbc="T T T"
C        0.00223658       0.01254778       3.71380137       0.00135440      -0.00913143      -0.00401080
C       -1.22999694       2.13859693       3.71064534      -0.00448073      -0.00340652      -0.00591823
C       -2.45966824       4.27426649       3.65288198      -0.00456507      -0.00011507       0.00271247
C       -3.70435667       6.41353618       3.62386284       0.00353652       0.00753986       0.00088645
C       -4.93652479       8.55927733       3.65538139      -0.00321348       0.00825636       0.01109207
C        2.46507691       0.04086124       3.74078782       0.01523028      -0.00076112       0.00365110
C        1.22065762       2.19163464       3.81543161       0.00509087       0.00819353       0.01112485
C       -0.03073016       4.28639372       3.85210864       0.00315869       0.00491254       0.00504948
C       -1.25937382       6.42521319       3.74041696       0.00826187       0.00450989      -0.00107637
C       -2.47461289       8.56128094       3.70442512      -0.00895315      -0.01451966      -0.00508824
C        4.93425088       0.00318271       3.74399110      -0.00700156       0.00415963      -0.00263540
C        3.73932899       2.11752323       3.84397752       0.00153115       0.00716067      -0.01236405
O        1.09611570       6.46470223       4.18155672      -0.01075556      -0.00469011       0.00408814
C       -0.01519726       8.53419734       3.79430382      -0.00398899       0.00647410      -0.00490207
C        7.41005561      -0.02840830       3.73430135       0.00037856       0.00749729       0.00092884
C        6.19214948       2.11782638       3.68425947       0.00672826      -0.00264527      -0.00174600
C        5.01618507       4.24869037       3.71620539      -0.00446691      -0.00580477      -0.01622612
C        3.69856083       6.34249617       3.67594287      -0.00159914      -0.00175660      -0.00042941
C        2.44587199       8.49172938       3.79162595       0.00037991      -0.00495134       0.00114873
C        9.86681919      -0.02316195       3.71194957      -0.00815242       0.00950068      -0.00395334
C        8.64635228       2.12323970       3.66107095      -0.00005266      -0.00435022       0.00483918
C        7.42251299       4.26717541       3.60076552       0.00277593      -0.00908648       0.00472412
C        6.18706895       6.40437256       3.59818345       0.00100442      -0.00464519      -0.00671633
C        4.92689617       8.52866702       3.67199214      -0.00050301      -0.00036319       0.00159128
C        0.00906326       1.44930590       3.74254213       0.00106663      -0.00667644      -0.00168746
C       -1.23861493       3.55766760       3.70931808      -0.00007520       0.00073569      -0.00176784
C       -2.47839411       5.69603665       3.65725040       0.00598493       0.00809236       0.00414857
C       -3.70907360       7.84406259       3.65486817      -0.01091651       0.00047519       0.00256075
C       -4.93141526       9.99370442       3.70260368       0.01361149       0.00152149       0.00477883
C        2.47882554       1.49486051       3.80689360       0.00459068       0.00499425       0.00016758
N        1.18262571       3.58035177       3.91943658       0.01048691       0.01080230       0.01036228
C       -0.08675818       5.70720758       3.91216090       0.00526393       0.00228302      -0.01099118
C       -1.25657654       7.84837143       3.74550706      -0.00313327       0.00010824       0.00920315
C       -2.47802394       9.99994238       3.73267761       0.00266613      -0.01469813       0.00125886
C        4.94733554       1.43297787       3.74706867       0.00057121       0.00861605       0.00488736
O        3.82009066       3.52479846       3.96367133      -0.01059174      -0.00892981      -0.01094696
C        1.19488033       7.84844562       3.89411256      -0.00481999       0.00115089       0.00025663
C        0.00092677       9.96284066       3.75302572      -0.00579311       0.01163024       0.00180168
C        7.41050038       1.40683742       3.68654236       0.00575337       0.00016570      -0.00548179
C        6.20133212       3.53380636       3.62630435       0.00063155      -0.00569349       0.00685872
C        4.94736422       5.66196044       3.65040426      -0.00559351      -0.00697053      -0.01218770
C        3.69288152       7.77214096       3.70234507       0.00391620      -0.00606479       0.00611154
C        2.46512409       9.93592553       3.74188429      -0.00102271       0.00359238       0.00514390
C        9.87644438       1.40936002       3.68982457      -0.00517604       0.00659967      -0.00311241
C        8.64637319       3.55263456       3.62525702      -0.00046840      -0.01144200       0.00388376
C        7.40373344       5.69166103       3.59656598       0.00435260      -0.00247135       0.00209604
C        6.16921915       7.82967739       3.63507285      -0.00036344       0.00325930       0.00630552
C        4.93537422       9.95819364       3.70188045      -0.01134008       0.00336767      -0.00900044
Hf       2.51447686       4.98993763       4.73763295       0.00870021      -0.00642550      -0.00141975
