49
Lattice="12.336457 0.0 0.0 -6.168228499999997 10.683685154694365 0.0 0.0 0.0 15.0" Properties=species:S:1:pos:R:3:forces:R:3 energy=-440.841810451999 free_energy=-440.841810451999 stress="-0.00471946859633603 -0.0011830027221213888 3.6061487846021524e-06 -0.0011830027221213888 0.001970059185537987 7.968581595436855e-07 3.6061487846021524e-06 7.968581595436855e-07 7.293173099432911e-08" pbc="T T T"
C       -0.00060838       0.00436045       3.71231243       0.00304824      -0.00031071      -0.00377914
C       -1.25559209       2.12183679       3.68041608      -0.00023351       0.00287282       0.00276980
C       -2.48522266       4.27088582       3.64392868      -0.00261223      -0.00690508      -0.00606480
C       -3.70205024       6.41667207       3.66170865       0.00490413       0.00248426      -0.01348630
C       -4.92836344       8.56197748       3.69190394       0.00244469       0.00397552       0.00414157
C        2.46715040       0.03938769       3.71606375       0.00450976      -0.00223204       0.00893669
C        1.19075004       2.12977884       3.80460115      -0.00480698       0.00202034      -0.00470311
C       -0.08016335       4.25521954       3.73193141       0.00522948       0.00164531      -0.01040806
C       -1.25932148       6.40934318       3.64360149       0.00118174       0.00057406      -0.00361249
C       -2.47001188       8.56067484       3.66798693      -0.00383188      -0.00206817       0.00471415
C        4.93401534       0.00540577       3.70680809      -0.00139363       0.00057305       0.00116080
C        3.72946847       2.13507970       3.80439742      -0.00299443      -0.00026364       0.00057091
C        1.21904749       6.36841299       3.73094569      -0.00631648      -0.00131933      -0.00464187
C       -0.00000229       8.53398178       3.68808763      -0.00183033       0.00323318       0.00406689
C        7.40600465      -0.02248597       3.70591633       0.00195253       0.00214938       0.00295226
C        6.17627368       2.13060458       3.72687029       0.00158685      -0.00138944       0.00131146
C        5.00671768       4.28433075       3.88698376      -0.00014363       0.00218862       0.00209948
N        3.79099566       6.43614480       4.03016399      -0.00695207       0.00217869       0.00681950
C        2.48145179       8.50066869       3.77047434       0.00332251      -0.00610521       0.00211511
C        9.86327732      -0.02403054       3.71244958      -0.00253120       0.00365443       0.00686044
C        8.62922480       2.12565251       3.68023127       0.00074207      -0.00419352      -0.00599803
C        7.40408465       4.27810123       3.69755030      -0.00315871      -0.00260655       0.00515632
C        6.18685163       6.42370783       3.73907982      -0.00250639      -0.00208013      -0.00558756
C        4.94582778       8.53356844       3.75297044       0.00747186       0.00304023       0.00549574
C       -0.00791181       1.43779234       3.72072347      -0.00282439      -0.00080570      -0.00548250
C       -1.26578448       3.53742488       3.64796678       0.00450213       0.00211769       0.00287265
C       -2.47476752       5.69552006       3.64513336       0.00380639      -0.00303917      -0.01004435
C       -3.69819136       7.84605014       3.66855779      -0.00223536       0.00138308       0.00100660
C       -4.92652818       9.99812960       3.70616061       0.00567673       0.00077616      -0.00079469
C        2.46326130       1.50273713       3.77363729      -0.00615488      -0.00155942       0.01060987
O        1.11393037       3.53407716       3.94800786       0.00370553       0.00165722      -0.00131017
C       -0.01806733       5.67144134       3.69890925      -0.00255964      -0.00063094      -0.00358449
C       -1.23992439       7.83473099       3.66373468      -0.00257823       0.00195625      -0.00283799
C       -2.47379036       9.99665001       3.69412656       0.00175168      -0.00413469       0.01170253
C        4.93278335       1.44254083       3.73990596      -0.00203950       0.00217607      -0.00484667
O        3.78817456       3.54795474       3.92934563       0.00759683       0.00287032      -0.00111918
C        1.24045408       7.78646659       3.72608481      -0.00114609      -0.00381299       0.00019256
C        0.00024253       9.95806434       3.70007319      -0.00014675       0.00507427      -0.00096695
C        7.39532443       1.41096822       3.69824420       0.00278156      -0.00064353       0.00600553
C        6.18123554       3.55370534       3.75178898      -0.00329681      -0.00234643      -0.00125793
C        4.97795992       5.70812042       3.88190524      -0.00855956       0.00148770      -0.00358606
C        3.72830460       7.80256421       3.84156269       0.00680574      -0.00124031      -0.00025638
C        2.47034547       9.93885583       3.72493396       0.00011919      -0.00216981       0.00463132
C        9.86317297       1.40800822       3.68446357       0.00094953       0.00333721      -0.00674799
C        8.62778516       3.55603034       3.66492313      -0.00491325      -0.00727671       0.00237209
C        7.40404159       5.70027975       3.69317001       0.00222565       0.00103603      -0.00907097
C        6.17901318       7.84207202       3.72530288       0.00539649       0.00128293       0.00963207
C        4.93417771       9.95925780       3.72041091      -0.00012239       0.00529445       0.00524206
Hf       2.43234640       5.02982758       4.71826327      -0.00582297      -0.00390571      -0.00325071
