50
Lattice="12.336457 0.0 0.0 -6.168228499999997 10.683685154694365 0.0 0.0 0.0 15.0" Properties=species:S:1:pos:R:3:forces:R:3 energy=-448.547151375576 free_energy=-448.547151375576 stress="-0.005285738213271152 -0.00011307144812546983 1.1949662115776767e-05 -0.00011307144812546983 -0.009121733389022257 -1.7666303947540763e-06 1.1949662115776767e-05 -1.7666303947540763e-06 -8.49655367711071e-06" pbc="T T T"
C        0.01956681      -0.01556927       3.86548016      -0.00318435       0.00288892      -0.00149069
C       -1.21361697       2.12276247       3.81685508      -0.00826717      -0.00356854       0.00084908
C       -2.44758997       4.26835155       3.79798864       0.00690549      -0.00410454      -0.00323085
C       -3.68232305       6.40208956       3.84416684       0.00234799       0.00742631      -0.00471006
C       -4.91863950       8.53241110       3.84369236      -0.00377348      -0.00465293      -0.00163714
C        2.49032600      -0.02358116       3.83199499       0.00273732      -0.00987078       0.00104084
C        1.25079766       2.08794901       3.62237390      -0.00018558       0.00295283       0.00110225
C       -0.00743104       4.22497770       3.55649832      -0.00081912      -0.00669105      -0.00361781
C       -1.22559049       6.41272698       3.79272738      -0.00755977      -0.00450416       0.00082222
C       -2.44502209       8.53158419       3.95605639       0.00336094       0.00226258      -0.00368885
C        4.95215272       0.00002004       3.92828811      -0.00652386      -0.00055529       0.00780118
C        3.72764725       2.09790396       3.60526350       0.00082720       0.00339465      -0.00466482
C        2.49405021       4.17435271       3.31855868       0.00539755      -0.00109335       0.00500860
O        0.85551508       6.19718133       2.56406927       0.00125693       0.00331277      -0.00437409
C        0.01217084       8.57322169       4.18769725      -0.00584879      -0.00021181      -0.00518770
C        7.41576437       0.03189534       4.04896789      -0.00802043       0.00265105       0.00734448
C        6.18909895       2.13570735       3.78833175      -0.00327993      -0.00602861       0.00371591
C        4.97908250       4.24129552       3.42202171       0.00042836       0.00457830       0.00479004
P        3.68054322       6.52673858       2.52464005       0.00953993      -0.00753622      -0.01225135
C        2.46871391       8.61578030       4.09852692      -0.00152426       0.00941595      -0.00960092
C        9.89645799       0.01661543       3.97684106       0.00327478       0.00601505       0.00421406
C        8.65749988       2.14317318       3.89720098       0.00122655       0.00616614       0.00194566
C        7.42427908       4.26739443       3.74342833       0.00049657       0.00104489       0.00366760
C        6.20075812       6.40473421       3.60600284       0.00153380      -0.00090924       0.00603177
C        4.95685341       8.54949471       3.81601172      -0.00078147      -0.00300444       0.00660267
C        0.01932832       1.40305166       3.77983884      -0.00639338       0.00393701      -0.00887197
C       -1.22945169       3.54017262       3.73990021      -0.00023378      -0.01019470      -0.00370968
C       -2.44552929       5.69268776       3.82384773      -0.00342402      -0.00446833      -0.00193211
C       -3.68067195       7.82294279       3.88118193       0.00399662       0.00539711       0.00345281
C       -4.91420873       9.95444138       3.85791083      -0.00300869      -0.00530118      -0.00132706
C        2.49169682       1.39212146       3.68746030       0.00118065      -0.00583644      -0.01202236
C        1.25052223       3.50751049       3.45495756       0.00768807       0.00974770      -0.00192057
C       -0.08677431       5.64764241       3.31834392       0.00282690       0.00106597      -0.00109638
C       -1.20652429       7.82325781       3.99743938      -0.00554762       0.00059299      -0.00249927
C       -2.44625133       9.95735925       3.91962352       0.00380143      -0.00384485      -0.00608826
C        4.95532113       1.41356245       3.77335764      -0.00654637      -0.00347115       0.00269043
C        3.73246893       3.51622747       3.39941981       0.00396079       0.01214689      -0.00602385
C        1.25181267       7.97427703       4.38863214      -0.00016779      -0.00174326       0.00294282
C        0.01158866       9.99825931       4.07535294      -0.00961472      -0.00063171       0.00421531
C        7.41832508       1.44267164       3.92637349       0.00038002       0.00007830      -0.00290844
C        6.20021373       3.54799843       3.65407739      -0.00011840      -0.00522684       0.00392253
C        5.01509530       5.66084015       3.32528099       0.00234754      -0.00399954       0.01072511
C        3.68063447       7.87795749       3.75328468       0.00364422       0.00012752       0.00540222
C        2.48959470      10.02972567       4.06995647      -0.00005207       0.00893382       0.00079372
C        9.89341252       1.43068105       3.91680252      -0.00393406       0.00340242      -0.00067259
C        8.65632468       3.56087523       3.82643614       0.00596458       0.00547759       0.00051014
C        7.42454036       5.69109605       3.73981979       0.00260001       0.00540850       0.00161496
C        6.18364905       7.82759380       3.73565514      -0.00457331      -0.00462475       0.00793052
C        4.95655970       9.96871944       3.92080380      -0.00037668       0.00056500       0.00216322
Hf       1.96553754       5.97382220       4.29121798       0.01603485      -0.00691654       0.00222665
