49
Lattice="12.336457 0.0 0.0 -6.168228499999997 10.683685154694365 0.0 0.0 0.0 15.0" Properties=species:S:1:pos:R:3:forces:R:3 energy=-431.8561072494619 free_energy=-431.8561072494619 stress="-0.007299644620340751 -0.0018859748190459165 6.209650962033627e-06 -0.0018859748190459165 -0.008660854396815775 3.5454712559750677e-06 6.209650962033627e-06 3.5454712559750677e-06 1.8842435283162874e-06" pbc="T T T"
C       -0.00446384      -0.01317533       3.62743812      -0.00026077      -0.01083016       0.00323359
C       -1.24974102       2.11517451       3.76588464       0.00238209       0.00489502      -0.00972813
C       -2.48730974       4.25789405       3.46666997      -0.00696272       0.00175034      -0.01656296
C       -3.71175828       6.40312279       3.28571643       0.00554074      -0.00005156       0.00098285
C       -4.93495747       8.54361048       3.38091480      -0.00294140       0.00920383       0.00972387
C        2.45641098      -0.03332827       3.62700764      -0.00086166       0.01329247       0.00624363
C        1.20032483       1.99944247       4.29221019      -0.00205123      -0.00792567       0.00427558
C       -0.18817585       4.27997312       4.20717911      -0.00535425      -0.00287966       0.01333057
C       -1.27881482       6.40564415       3.53836540      -0.00142038      -0.00733563       0.01234366
C       -2.46949030       8.53827088       3.35158933      -0.00900203       0.00449907       0.01127294
C        4.93041718      -0.01579679       3.48841792      -0.00164418       0.00494415      -0.00912419
C        3.70804202       1.99029612       4.05959031       0.00236916      -0.01836886      -0.00386991
P        1.26042345       6.43591912       4.59459885      -0.00175876      -0.00062392       0.00372540
C       -0.01449576       8.55779995       3.52295324       0.00775894       0.00168668      -0.00482664
C        7.40211774      -0.00326100       3.45368029       0.01137845       0.00118116       0.00491511
C        6.16460217       2.12804041       3.57548890       0.00512570      -0.00019501      -0.01515708
C        5.06639881       4.33435860       3.91014841      -0.00485018      -0.01750758      -0.00120651
C        3.82931193       6.46532565       4.30091234       0.00109642       0.00223966      -0.00607824
C        2.49064479       8.57564164       3.73562111       0.00204225      -0.01029744       0.00363532
C        9.87335510      -0.00072187       3.53794309      -0.00176430      -0.00710885       0.00451931
C        8.63240178       2.12764400       3.44319721       0.00223667       0.01023130      -0.00988044
C        7.40648665       4.27041736       3.38806772       0.00005967       0.00893760      -0.00459529
C        6.18855784       6.42995420       3.50290194       0.00644808       0.00587538      -0.00466694
C        4.94262149       8.54234185       3.62121299      -0.00682957      -0.00308770       0.00836475
C       -0.01427046       1.39764770       3.88989369       0.00220666      -0.00634889       0.00138552
C       -1.29407034       3.52859244       3.78240652      -0.00616871       0.00773184      -0.00412564
C       -2.48945335       5.68374811       3.37720213      -0.00198650      -0.00582911       0.01335939
C       -3.70652036       7.82968033       3.30360741      -0.00718213       0.00135529       0.00598619
C       -4.94074516       9.95699262       3.52218233       0.00396608       0.00669608       0.01001442
C        2.44260078       1.34329675       4.01846118      -0.00202761      -0.00076527      -0.00884260
S        1.02161882       3.51424552       5.22329496      -0.00023008      -0.00042051       0.00436357
C       -0.15322583       5.65354511       3.97335208       0.00109320      -0.00259733       0.00104380
C       -1.24170326       7.82799616       3.44932342      -0.00111884       0.00005633       0.00486803
C       -2.47428714       9.95851848       3.45896769      -0.00550987       0.00873443       0.01512532
C        4.94022858       1.39233632       3.68770960      -0.00075172       0.00021663      -0.01786903
P        3.76874697       3.55281751       4.73120997      -0.00577523      -0.01174702      -0.00709573
C        1.23373305       7.93897169       3.78228050       0.00066324      -0.00578183       0.01308177
C       -0.00390656       9.97242538       3.43709143       0.00725757       0.00731920      -0.00610574
C        7.39443836       1.41994787       3.45263026       0.00889652       0.00431122      -0.00509596
C        6.19710125       3.55482007       3.57613577       0.00477564      -0.00187361      -0.00891899
C        4.99768134       5.75137044       3.89673206       0.00555137      -0.00631476      -0.00234003
C        3.72400447       7.83524362       3.89526592      -0.00322524       0.00146887      -0.00021223
C        2.47521076       9.98029102       3.52880049       0.00370676      -0.01293781       0.01069835
C        9.87248779       1.41981381       3.54445728      -0.00042820       0.00072158       0.00489526
C        8.62746538       3.54883016       3.38421236      -0.00660512       0.00922973      -0.00998483
C        7.39542952       5.69603576       3.35503496       0.00876390       0.00717659      -0.00740776
C        6.17237255       7.83987385       3.47945066      -0.00312814       0.00772962      -0.00616138
C        4.93419621       9.96228157       3.56830214      -0.00397356      -0.00990673       0.00017270
Hf       2.78535026       5.28463876       5.95900479       0.00049327       0.01925082      -0.00170467
