49
Lattice="12.336457 0.0 0.0 -6.168228499999997 10.683685154694365 0.0 0.0 0.0 15.0" Properties=species:S:1:pos:R:3:forces:R:3 energy=-432.0202718118041 free_energy=-432.0202718118041 stress="-0.004510419749373364 0.00019463868812513385 -6.653930318572599e-06 0.00019463868812513385 -0.005983370771174596 -1.0865576279742511e-05 -6.653930318572599e-06 -1.0865576279742511e-05 -2.6716907483407614e-06" pbc="T T T"
C       -0.02343403      -0.05039801       3.88352829       0.00325067      -0.00142694       0.00201612
C       -1.25755920       2.10194866       4.07189430      -0.00045068       0.00202614       0.00466511
C       -2.47602868       4.24500245       3.81576124      -0.00289376      -0.01275299       0.00318650
C       -3.69732909       6.37751311       3.55116197       0.01025149       0.00381541      -0.00550277
C       -4.94417365       8.51558135       3.56899282      -0.00179183      -0.00099949      -0.01268675
C        2.44296932      -0.07554305       3.88899823       0.00470588      -0.00321853      -0.01336865
C        1.21014862       1.99060061       4.42192805       0.00168405      -0.00605869      -0.00292203
C       -0.08428169       4.29841804       4.33175230       0.00111917       0.01298841      -0.00388375
C       -1.25228850       6.38722838       3.79720093      -0.01003775       0.00232775       0.00321667
C       -2.48473363       8.51160442       3.66130309      -0.00339025      -0.00219625      -0.00280388
C        4.91452289      -0.03507344       3.75026257      -0.00806661      -0.00023662       0.01590025
C        3.67171292       2.02304871       4.06275977      -0.00220494       0.00331654      -0.00261018
C        1.20991565       6.41940428       4.02112089       0.01130885      -0.00761930      -0.00222598
C       -0.03437934       8.52918231       3.68563249       0.00141467       0.00089235      -0.00708237
C        7.37681594      -0.01467510       3.70242723       0.00294838      -0.00259306       0.00158647
C        6.14674385       2.11306273       3.69450585       0.00642590      -0.00841338      -0.00454435
C        4.96916128       4.25464122       3.28207198      -0.00786498       0.01007188       0.00062089
S        3.64514917       6.43059303       2.12382850      -0.00254481      -0.00478108      -0.00182340
C        2.41967625       8.55182177       3.55869006      -0.00132376       0.00234204      -0.00053880
C        9.85196962      -0.02099832       3.75424222       0.00198112       0.00446080      -0.00590451
C        8.62323601       2.11202387       3.75722008       0.00642709       0.00267775       0.00563331
C        7.41220136       4.24034821       3.50243375      -0.00939543       0.00431935       0.00310151
C        6.20274729       6.40490596       3.22073681       0.00447294      -0.00301324      -0.00237259
C        4.93771488       8.53132894       3.46461925      -0.00217280      -0.00157461      -0.00511168
C       -0.02996829       1.36148259       4.15470759      -0.00166261      -0.00007044      -0.00189821
C       -1.26035170       3.53669986       4.08628929       0.00316041      -0.00130659       0.00435662
C       -2.47158427       5.66815222       3.71729161      -0.00241761      -0.00945029       0.00455625
C       -3.71151027       7.80100415       3.57958966      -0.00027382       0.00215939      -0.00286812
C       -4.96017945       9.91681599       3.78566980       0.00484703      -0.00319870      -0.01166021
C        2.43650720       1.31507377       4.14681041       0.00077987       0.00025365       0.00593218
P        1.29373448       3.58176811       5.20929788       0.00199125       0.01481470       0.01081331
C       -0.02566881       5.69391856       4.05344621       0.00146273       0.00598851      -0.00994891
C       -1.25284201       7.80542657       3.69660172      -0.00495142       0.00110159      -0.00065966
C       -2.48488386       9.92639383       3.75079848      -0.00108024      -0.00721987       0.00251776
C        4.91784209       1.38783054       3.82530107      -0.00351118       0.00304296      -0.00646804
P        3.53694865       3.73677831       4.17215774       0.00266333       0.00263626      -0.00103792
C        1.20442082       7.80942618       3.72347733       0.00544142      -0.00150635       0.00715795
C       -0.02288544       9.94572235       3.68962509      -0.00530639       0.00404948       0.00525386
C        7.37985255       1.40574316       3.71587876       0.01354295      -0.00474240       0.00391625
C        6.18090244       3.52039543       3.48841959      -0.00904973      -0.00272789       0.01136847
C        5.01770367       5.66319189       2.97706213       0.00045241      -0.00005504      -0.00178080
C        3.66847244       7.86138202       3.28551964      -0.00238331       0.00274096       0.00933808
C        2.44378681       9.97085700       3.66151007       0.00244298       0.00179550       0.00016552
C        9.85656926       1.40159926       3.86603816       0.00164045       0.00283797       0.01400198
C        8.63541428       3.53445205       3.69173188      -0.00814529       0.00009167       0.00100222
C        7.42113465       5.66435067       3.41278841       0.00660295       0.00636672      -0.00001316
C        6.15981708       7.81884157       3.37514586      -0.00434866      -0.00498377      -0.00025352
C        4.91787871       9.94147938       3.71326169       0.00139461       0.00178548      -0.00059658
Hf       3.24580502       6.06819350       4.60322680      -0.00714474      -0.00875774      -0.00974045
