49
Lattice="12.336457 0.0 0.0 -6.168228499999997 10.683685154694365 0.0 0.0 0.0 15.0" Properties=species:S:1:pos:R:3:forces:R:3 energy=-441.8196821563059 free_energy=-441.8196821563059 stress="-0.005676697163546282 -0.00100115398411942 -1.3004048614065185e-06 -0.00100115398411942 -0.0025174374506813286 9.796939405084977e-06 -1.3004048614065185e-06 9.796939405084977e-06 -3.1052090236462092e-06" pbc="T T T"
C        0.00607683       0.00227149       3.69303429      -0.00509119       0.00316842       0.00074478
C       -1.23685105       2.12089569       3.66036669      -0.00197209      -0.00210372      -0.00035987
C       -2.47172669       4.25386795       3.50108704       0.00756903       0.00320784      -0.00583689
C       -3.70398928       6.40231163       3.45981435      -0.00035361      -0.00131961       0.00658280
C       -4.92733776       8.54866173       3.55343456      -0.00671004      -0.00171362       0.00355131
C        2.46599389      -0.01564122       3.71903320       0.00688412       0.00457452       0.00380548
C        1.22793707       2.16213475       3.95456743      -0.00286502       0.00488404      -0.00949625
C       -0.01676603       4.25127792       3.69133569      -0.00356189      -0.00421746       0.00102062
C       -1.25908807       6.40378832       3.40487511       0.00437121       0.00129393      -0.00397144
C       -2.46674247       8.54192585       3.48993015       0.00606789      -0.00558224      -0.00225267
C        4.94776090      -0.03267661       3.70277186       0.00656839       0.00290737       0.01075013
C        3.71235466       1.99247488       4.17765382       0.00208453      -0.00352784       0.01056360
C        1.18381107       6.39077144       3.58238856      -0.00684943       0.00182412      -0.01211409
C        0.00701462       8.52472030       3.51676501       0.00322392       0.00417276      -0.00361729
C        7.41315681      -0.02784415       3.67125414      -0.00690661      -0.00981585      -0.00422184
C        6.18116558       2.11889082       3.84913652      -0.00167766      -0.00342364      -0.00725766
C        5.05074429       4.34740838       4.13263150       0.00243598       0.00460369       0.00076486
N        3.82324622       6.46488519       4.23747348       0.00912058      -0.00027332      -0.00155223
C        2.49301832       8.50396894       3.73310705      -0.00131365       0.00711470      -0.00555733
C        9.87261062      -0.02133583       3.68351007      -0.00146120      -0.00555300      -0.00454697
C        8.63767661       2.11684540       3.63375384      -0.00574468      -0.00106155       0.00458792
C        7.41621631       4.26545967       3.64263188      -0.00677299       0.00882092       0.00182160
C        6.19217507       6.43109023       3.69043276       0.00565898       0.00285735       0.00817025
C        4.95304023       8.53661142       3.72079789      -0.00183065      -0.00351140       0.00811439
C        0.00259969       1.42742294       3.76432709      -0.00347599       0.00519900      -0.00191301
C       -1.24870733       3.53501535       3.57573544       0.00373536      -0.00361658       0.00420142
C       -2.47989439       5.68379580       3.43358844       0.00443320       0.00379312       0.00108033
C       -3.69884238       7.83064701       3.47680990      -0.00298699      -0.00294960       0.00190623
C       -4.93210914       9.96746564       3.63707700      -0.00319776       0.00290813       0.01397043
C        2.45494551       1.38416320       3.96570562       0.00328472       0.00803107      -0.00760484
C        1.16686742       3.58958486       4.07719077      -0.00354843      -0.00074708       0.00025040
C       -0.03032491       5.68864322       3.52617673      -0.00246987      -0.00658098      -0.01526472
C       -1.23319022       7.82475750       3.44599244       0.00894988      -0.00003289       0.00067580
C       -2.46418003       9.95793087       3.62850985       0.01124044      -0.00139409      -0.00056018
C        4.96083249       1.37474492       3.91667305       0.00062674       0.00055541      -0.00045474
P        3.62979678       3.59474152       4.78231404      -0.00648821      -0.00263595       0.00074843
C        1.24764606       7.79425346       3.59097684      -0.00109345       0.00496176      -0.00817619
C        0.01162388       9.94190510       3.62085784      -0.00102090      -0.00085683      -0.00587215
C        7.40481914       1.40291482       3.70952790      -0.00695409      -0.01101016      -0.00588521
C        6.20315301       3.55630284       3.86385636      -0.00259403       0.00374747       0.00607431
C        4.99822714       5.76251963       4.00938074       0.01482823       0.00314221       0.00947895
C        3.74018429       7.80782680       3.88837196      -0.00134955       0.00194096       0.00232794
C        2.47973561       9.93818411       3.68457458      -0.00444757       0.00159926       0.00156585
C        9.86722742       1.40303508       3.64404189      -0.00281874      -0.00534514      -0.00169520
C        8.63731274       3.54473386       3.57084496      -0.00150342       0.00843901      -0.00267650
C        7.40788294       5.69251098       3.57564241      -0.00203948       0.00576094       0.00007093
C        6.18227588       7.84067155       3.63711673      -0.00352102      -0.00191250       0.00836800
C        4.94302999       9.96061627       3.68634866      -0.00143233      -0.00580114       0.00114387
Hf       2.12498400       5.39139759       5.14129142       0.00296931      -0.01452176      -0.00145335
