50
Lattice="12.336457 0.0 0.0 -6.168228499999997 10.683685154694365 0.0 0.0 0.0 15.0" Properties=species:S:1:pos:R:3:forces:R:3 energy=-455.8736268328136 free_energy=-455.8736268328136 stress="-0.006425568573065637 2.3927738269418806e-07 -8.983066922045134e-06 2.3927738269418806e-07 -0.00642695778687689 8.823532585010819e-06 -8.983066922045134e-06 8.823532585010819e-06 3.0368857325477834e-06" pbc="T T T"
C       -0.00104164      -0.00237604       3.69821538      -0.00403755       0.00446378       0.00211492
C       -1.23789163       2.13180974       3.69136128      -0.00055892       0.00112841      -0.00291059
C       -2.47224985       4.26906491       3.69013641       0.00238808       0.00424257       0.00050033
C       -3.70166147       6.40752167       3.69977795      -0.00329651      -0.00317233      -0.01434093
C       -4.93223345       8.54647410       3.70635217       0.00778025       0.00527817       0.00555886
C        2.46626606      -0.00596316       3.70395040       0.00028168      -0.00892421       0.00567642
C        1.23072735       2.12143400       3.70844452       0.00497885      -0.00358979       0.00392103
C       -0.01291187       4.26474380       3.73926383       0.00097627      -0.00368957      -0.00145518
C       -1.24702597       6.41307500       3.71491477      -0.00134114       0.00473470      -0.00098331
C       -2.47217228       8.54717588       3.70921190      -0.00010732      -0.00222287      -0.00878353
C        4.93399523      -0.00181568       3.69919959       0.00119968       0.00199584      -0.01091379
C        3.70206195       2.12155799       3.70693680      -0.00392412      -0.00372106       0.00501016
C        2.46629554       4.22237321       3.86257502       0.00083553       0.01655991       0.00536549
C        1.19109891       6.43232602       3.86646329      -0.01201905       0.00154191      -0.00944982
C       -0.01176703       8.55322427       3.71733450      -0.00075091       0.00056214       0.00144355
C        7.40068678       0.00251770       3.69449544      -0.00282086      -0.00196394      -0.00607356
C        6.17127936       2.13211387       3.68729089      -0.00310421      -0.00081494       0.00954223
C        4.94538741       4.26467318       3.73705349       0.00329674      -0.00466362      -0.00032976
C        3.74202048       6.43239352       3.86697263      -0.00827186      -0.00962646       0.00713794
C        2.46613813       8.55889548       3.74761565       0.00120311      -0.00142261      -0.00513149
C        9.86878627       0.00216994       3.69497960       0.00179633       0.00003194      -0.00449260
C        8.63520707       2.13427422       3.67904739      -0.00719649       0.00189937       0.00566031
C        7.40515541       4.26899334       3.68678341      -0.00034767       0.00507834       0.01205066
C        6.17985532       6.41252059       3.71295945      -0.00116703       0.00927589      -0.00141129
C        4.94400348       8.55288466       3.71564041       0.00621965      -0.00166347       0.00364691
C       -0.00235790       1.41887327       3.69744086       0.00106941       0.00316649       0.00052313
C       -1.24366698       3.55366232       3.69441878      -0.00001716      -0.00049650       0.00072180
C       -2.47164781       5.69566683       3.69964828       0.00128305       0.00468582       0.00218943
C       -3.70204599       7.83379951       3.70382953       0.00128567      -0.00445296       0.01236549
C       -4.93428982       9.96833636       3.70501979      -0.00414903       0.00397511      -0.01676412
C        2.46636562       1.41826833       3.71039516       0.00091690      -0.01125924      -0.00074647
C        1.23032980       3.55211989       3.76839317       0.00410411      -0.00137858      -0.00170412
C       -0.00790143       5.69768187       3.77085696      -0.00172645      -0.00046068       0.00779887
C       -1.23884322       7.83492018       3.72008610      -0.00172657       0.00382397      -0.00819721
C       -2.46951901       9.96901439       3.70340411       0.00373165      -0.00336246       0.00752117
C        4.93551445       1.41934858       3.69658795      -0.00250491       0.00062187      -0.00656974
C        3.70214841       3.55220618       3.76596643      -0.00278300      -0.00265845       0.00352917
C        1.22753085       7.83833152       3.77620406      -0.00152685      -0.00368145       0.00285414
C       -0.00282990       9.97242922       3.70154217      -0.00090642      -0.00147204       0.00693751
C        7.40168902       1.42260300       3.68279741      -0.00749740      -0.00265625       0.00015702
C        6.17638349       3.55383247       3.69121008       0.00356975      -0.00113076      -0.00544357
C        4.94064520       5.69744837       3.77078957       0.00404543       0.00029184      -0.00066693
C        3.70476487       7.83817035       3.77678302       0.00361671      -0.00124190      -0.00463850
C        2.46636905       9.98008429       3.70023318       0.00066302       0.00069698       0.00434483
C        9.86848852       1.42222542       3.68509606      -0.00283247       0.00103947      -0.00194071
C        8.63476891       3.55829303       3.68070483       0.00086635       0.00551338       0.00064397
C        7.40478100       5.69551583       3.69804348      -0.00542933       0.00462456      -0.00197290
C        6.17087145       7.83426290       3.71641020       0.01063503       0.00796830      -0.00172470
C        4.93562038       9.97202352       3.70104772       0.00136318      -0.00280029       0.00324910
Hf       2.46510068       5.69352610       5.35677419       0.01193677      -0.01067435      -0.00381962
