49
Lattice="12.336457 0.0 0.0 -6.168228499999997 10.683685154694365 0.0 0.0 0.0 15.0" Properties=species:S:1:pos:R:3:forces:R:3 energy=-438.08780653229604 free_energy=-438.08780653229604 stress="-0.004757248248483561 0.0008885671697874399 3.8862897395026026e-07 0.0008885671697874399 -0.0015111934176439408 -6.793011381988702e-06 3.8862897395026026e-07 -6.793011381988702e-06 1.9256586837689414e-06" pbc="T T T"
C        0.00580335      -0.00389699       3.76376974      -0.00986859       0.00801084       0.00644595
C       -1.22566705       2.13329212       3.56688349       0.00139072      -0.00530505       0.00493382
C       -2.48292940       4.27110497       3.66299936       0.00681341      -0.00216117      -0.00405913
C       -3.70947413       6.41030550       3.83261198      -0.00566712      -0.00076947      -0.00857623
C       -4.93536936       8.54529099       3.90135888       0.01039914       0.00720824       0.00033699
C        2.47560938      -0.00778387       3.82018337      -0.00813846      -0.00476870      -0.00509658
C        1.26163308       2.08234257       3.48156371       0.01071907       0.00429755      -0.00096648
C       -0.08202607       4.31480226       3.27199936      -0.00982578      -0.00315569      -0.00961890
C       -1.29651305       6.44022619       3.50562015      -0.00281489       0.00615199      -0.00318810
C       -2.47083679       8.55471419       3.78620858      -0.00279409      -0.00457138       0.00010041
C        4.94675595      -0.00006214       3.81683217       0.00137287      -0.00666350      -0.00654876
C        3.71549518       2.15704494       3.82450206      -0.00746996       0.00143688       0.01035442
C        1.18076867       6.41984215       3.34237848       0.00227800       0.00283834       0.00464139
C        0.00110074       8.54790540       3.65240192      -0.00147738      -0.00110157       0.00960853
C        7.42085443      -0.01697085       3.78784835       0.00395872      -0.00377996       0.00345153
C        6.18786698       2.13100491       3.88537807       0.00308174       0.00397949       0.00084872
C        4.94086579       4.28622439       4.02657159       0.00082117       0.00699603       0.00251440
O        3.78451024       6.42981710       4.09912041      -0.01295515       0.00263319       0.00265856
C        2.49423419       8.49932902       3.76763676      -0.00174374       0.00400073      -0.01246085
C        9.87802475      -0.01988303       3.77434790      -0.00139101       0.00924408      -0.00015997
C        8.64791258       2.12761501       3.77883453      -0.00308272      -0.00333516       0.00173003
C        7.40440218       4.26969834       3.90410236       0.01574556      -0.00036006       0.00244165
C        6.18570822       6.42039959       4.01885702       0.00001989       0.00144452      -0.00952503
C        4.94143325       8.52738307       3.91633222       0.00268403      -0.00938025      -0.00024463
C        0.00449180       1.41839934       3.58914473       0.00475629       0.00633567       0.01203390
C       -1.25994144       3.55114440       3.49048379       0.00121976      -0.01078155      -0.01297080
C       -2.49166185       5.70130051       3.66956559      -0.00156455       0.00665234       0.00156377
C       -3.70090220       7.83695734       3.85028481       0.00204220      -0.00415661      -0.00299647
C       -4.92780564       9.97345848       3.83529295      -0.00969390       0.00458439      -0.00495970
C        2.48819756       1.42174947       3.72419728      -0.00544865      -0.00081556       0.00017958
S        1.32270663       3.57380446       2.50936326       0.00231416      -0.01078313       0.00344878
C       -0.06666273       5.74458421       3.28339890       0.00195014      -0.00092848      -0.00153795
C       -1.24628049       7.84902813       3.64702955      -0.00220580       0.00181067       0.01370163
C       -2.45971831       9.97268339       3.82686771      -0.00466975      -0.00573042      -0.00880786
C        4.95602522       1.42024513       3.85654424      -0.00070686       0.00066084       0.00297710
C        3.71151880       3.57133971       3.94279873      -0.00607978       0.00377376       0.00096609
C        1.23770723       7.81030355       3.58456960      -0.00228990       0.00007888       0.00468055
C        0.01059726       9.96445171       3.76436497       0.00546644      -0.00410451       0.00182445
C        7.42071993       1.40944665       3.82849763      -0.00207835      -0.00565840      -0.00056160
C        6.19110292       3.55427391       3.94978199       0.01042311       0.00581005       0.00216930
C        4.99220948       5.70210587       4.08624506      -0.00441406       0.00521708       0.00356995
C        3.72523947       7.83099192       3.91692488      -0.00522331      -0.00954865       0.00814239
C        2.48538308       9.94371117       3.78279093       0.00477018       0.00689854      -0.00544366
C        9.88436799       1.41693705       3.70829942      -0.00253836       0.00552555       0.00214422
C        8.63728671       3.55432258       3.79198751       0.01343484      -0.00435904      -0.00222125
C        7.40742956       5.69284829       3.93313966      -0.00173179      -0.00041746      -0.00574738
C        6.17987951       7.83684318       3.96383593       0.01392565       0.00374917      -0.00844391
C        4.93849764       9.95713420       3.81710068      -0.00851686       0.00028013       0.00633879
Hf       2.16684208       4.95073862       4.41386728       0.00480369      -0.00698319       0.00032834
