49
Lattice="12.336457 0.0 0.0 -6.168228499999997 10.683685154694365 0.0 0.0 0.0 15.0" Properties=species:S:1:pos:R:3:forces:R:3 energy=-446.92605846542534 free_energy=-446.92605846542534 stress="-0.005301759753429535 -0.0007089585548988948 -2.4081299965540847e-06 -0.0007089585548988948 0.003616861854738728 1.2594863044810665e-06 -2.4081299965540847e-06 1.2594863044810665e-06 -1.0804891812285165e-06" pbc="T T T"
C        0.00126008       0.01184188       3.71843687      -0.00036976       0.00172773       0.00119174
C       -1.24875699       2.12328234       3.67014384       0.00006257      -0.00774097       0.00575154
C       -2.48613137       4.26660844       3.60988826       0.00375419      -0.00471763      -0.00839097
C       -3.70443909       6.41988133       3.61830590      -0.00393885      -0.00855501      -0.01515535
C       -4.92946997       8.56875982       3.67553578       0.00353836       0.00744274       0.01003465
C        2.46702357       0.05137145       3.74529387       0.00101300      -0.00114062       0.01241133
C        1.20687333       2.18132415       3.84341006       0.01425700      -0.00768298       0.00315017
C       -0.05646562       4.24158959       3.76031258      -0.00710265      -0.00139252      -0.00572079
C       -1.26666449       6.41418040       3.64439784      -0.00147682       0.01126261       0.00030324
C       -2.47428419       8.56884660       3.66222586      -0.00859689      -0.00497066       0.00910168
C        4.93253257       0.01113419       3.71670338      -0.00934903       0.00042918       0.00429093
C        3.72159689       2.18278486       3.85924016      -0.00396747       0.00154449      -0.00444902
C        1.18294980       6.36711125       3.86511350       0.01132528      -0.00266653       0.01151442
C       -0.00501709       8.53283686       3.71331967       0.00853968      -0.00548421      -0.00167517
C        7.40647715      -0.02938032       3.69432902       0.00278436       0.00118168       0.01122095
C        6.17357313       2.12794636       3.69373616       0.00173515       0.00179202       0.01053311
C        4.98290923       4.26802367       3.83741204      -0.00701880      -0.00512624      -0.01045711
N        3.79408496       6.40740051       4.01070287      -0.00037276       0.00044054      -0.00651154
C        2.48307215       8.48932236       3.80192918      -0.00086316       0.00273861      -0.00043587
C        9.86470896      -0.02975319       3.69843714       0.00484417       0.01173177       0.00841317
C        8.63147681       2.11748076       3.63516132      -0.00635309       0.00469525       0.00061695
C        7.40729256       4.27173460       3.63463911       0.01214840       0.00032952      -0.01293881
C        6.18607723       6.42246573       3.69491143      -0.00181093       0.00422565      -0.00043012
C        4.94433405       8.52929131       3.75152537      -0.00589428      -0.00542822      -0.00161040
C       -0.00487241       1.44269978       3.73298632       0.00915439      -0.00408497      -0.00291864
C       -1.26224779       3.53927149       3.64372997      -0.00546640      -0.01049102      -0.00680312
C       -2.48289355       5.69773936       3.61268612       0.00173864      -0.00085682      -0.01349518
C       -3.70108562       7.85147220       3.64424352      -0.00352739      -0.01033391       0.00111024
C       -4.92796818      10.00177587       3.71341534       0.00366331       0.00528653       0.00643150
C        2.46556883       1.49683009       3.83199162       0.01068233      -0.00410035      -0.00662363
N        1.13374266       3.56750611       3.95015921      -0.00921013      -0.00813153      -0.00385864
C       -0.03420114       5.68397911       3.74575577       0.00540942       0.00830312      -0.00751325
C       -1.24675013       7.84021085       3.66551374      -0.00032366       0.00991689       0.00874591
C       -2.47383741      10.00064645       3.70881299      -0.00892717      -0.00535641       0.00074273
C        4.93412548       1.44327707       3.74893683      -0.00575148       0.00802770      -0.00345177
N        3.78813231       3.56923213       3.98470824      -0.01961819      -0.00170354       0.00009262
C        1.23152737       7.77645966       3.79024989       0.01105154      -0.00356242       0.00085001
C       -0.00147250       9.95701730       3.70494558      -0.00136721      -0.00448839       0.00188458
C        7.40153452       1.40110616       3.66309747      -0.00136501      -0.00048573       0.00659913
C        6.18178285       3.55069266       3.69136704       0.00842680       0.00246578      -0.00382267
C        4.98403961       5.71003442       3.84007856      -0.00246661       0.00071575      -0.00607470
C        3.73256554       7.78843722       3.85497504      -0.00753462      -0.00095063       0.00337931
C        2.47143279       9.92423304       3.72335396       0.00785908       0.00880362       0.01579006
C        9.86153221       1.40028618       3.65517470      -0.00663606       0.01301022       0.00679927
C        8.62955327       3.54859146       3.61357164       0.00786152      -0.00097095      -0.01836038
C        7.40969767       5.69927964       3.63677733      -0.00690139      -0.00227192      -0.01175505
C        6.18026243       7.84437631       3.70242336       0.00068098       0.00668363       0.00777723
C        4.93567521       9.95880595       3.71807082      -0.00298220      -0.00116673       0.00279893
Hf       2.45653562       4.96850361       4.82258330       0.00866184       0.00110590       0.00091677
