49
Lattice="12.336457 0.0 0.0 -6.168228499999997 10.683685154694365 0.0 0.0 0.0 15.0" Properties=species:S:1:pos:R:3:forces:R:3 energy=-431.0199668985018 free_energy=-431.0199668985018 stress="-0.008006571750707802 0.0028454461760139636 5.259570338123878e-06 0.0028454461760139636 -0.0026673809106420032 -1.0505384462843126e-05 5.259570338123878e-06 -1.0505384462843126e-05 -6.946709882899836e-07" pbc="T T T"
C        0.01821914       0.01162930       3.83303889       0.00391616       0.00410837       0.00304442
C       -1.20864652       2.14718470       3.60660149       0.00227893      -0.00752922      -0.00297054
C       -2.44748114       4.29115105       3.68894824      -0.01083444       0.00603516      -0.01120371
C       -3.67650400       6.43038764       3.88436800      -0.00952650      -0.00372202      -0.00704287
C       -4.91909428       8.56101796       3.99541034       0.00181751      -0.00146142       0.00474904
C        2.48412268      -0.01157053       3.68990352       0.00021544       0.00563770       0.00640943
C        1.26681326       2.14529978       3.45979718       0.00501131      -0.00267630      -0.00035935
C       -0.06322739       4.33870462       3.19656586      -0.00396236       0.00359039       0.00459411
C       -1.27391777       6.46465371       3.50219485      -0.00164312       0.01073372      -0.01008678
C       -2.46162029       8.56720014       3.72512834       0.00145940      -0.01019909      -0.00851683
C        4.96399938       0.00093150       3.59918821      -0.00080573      -0.01257664      -0.00426849
C        3.73269568       2.07727286       3.38976817       0.00883272       0.01250733       0.00220637
N        1.13424435       6.42425716       3.65629256       0.00835127       0.00517116       0.00494364
C        0.01027042       8.54459834       3.61705178       0.00517137      -0.00655817      -0.00367477
C        7.43026944      -0.00698615       3.66940669       0.00735044      -0.01670606       0.00018467
C        6.20929073       2.14136199       3.64829024       0.00411688       0.00119146      -0.00110284
C        5.07896119       4.31416870       3.99617469      -0.00252001       0.00894789      -0.00142808
P        3.50995301       6.25117445       4.91690480       0.01498055       0.00286793      -0.00923913
C        2.46407622       8.52634664       3.91935662      -0.01001414      -0.00391086       0.01331637
C        9.88841077      -0.00735598       3.81580120      -0.00114487       0.00537802      -0.01089344
C        8.66774396       2.13587904       3.71795642      -0.00170842      -0.00003780       0.00777476
C        7.46413549       4.27714730       3.91521353       0.00080526      -0.00142145       0.01165954
C        6.25506498       6.42602578       4.27709177      -0.00128827      -0.00318346       0.01219142
C        4.94862706       8.55672781       4.16831929      -0.00528532       0.00965619       0.00234738
C        0.01678727       1.44092170       3.63824610       0.00861073      -0.00188294       0.01067817
C       -1.23642757       3.56710118       3.52523906      -0.01449939      -0.00530304      -0.00929469
C       -2.46348050       5.72000169       3.68216305      -0.00518865       0.00925253       0.00027365
C       -3.68757249       7.85451621       3.87933807      -0.00016257      -0.00492560      -0.00103117
C       -4.91815833       9.98108042       3.85381869       0.00062928       0.00171340      -0.00605352
C        2.50792862       1.40858393       3.48917941       0.00750100       0.00840220       0.00418480
S        1.17379332       3.49730252       2.18597376       0.00105283       0.00096236      -0.00389814
C       -0.05336548       5.79057284       3.34834551       0.00243973       0.01557901       0.00235487
C       -1.23760996       7.86795410       3.60230655       0.00538960       0.00249528      -0.01019572
C       -2.44726154       9.98386863       3.67705537      -0.00554530      -0.01164376      -0.00453954
C        4.98077975       1.42845207       3.53894321       0.00447183      -0.00347247       0.01007705
S        3.68783899       3.80097768       3.10649222      -0.00113405      -0.01734837       0.00313687
C        1.22038129       7.80479441       3.73062883      -0.00100918      -0.00186280       0.00457086
C        0.02760713       9.96871872       3.62855875       0.00428689      -0.01343931      -0.00197840
C        7.43105041       1.42343623       3.67466437       0.00288499      -0.01009636       0.00336582
C        6.24775818       3.54568394       3.84991517      -0.00089610       0.01063591       0.00100231
C        5.08153423       5.63958163       4.45002667      -0.00931735       0.01531410      -0.00854165
C        3.68309270       7.88933976       4.27851503      -0.00403688       0.00484160       0.00549030
C        2.48210421       9.95712159       3.78445805       0.00489780      -0.01073687       0.00092160
C        9.89365862       1.41937787       3.71364233       0.00004980       0.00292390      -0.00712599
C        8.67599784       3.56197330       3.77943286      -0.00170670       0.00051088       0.00499352
C        7.45799717       5.70602251       4.04478209      -0.00658521      -0.00718316      -0.00437087
C        6.19891875       7.85026819       4.19569919      -0.00125061      -0.00242179       0.00616908
C        4.95412967       9.97586234       3.94360205      -0.00151804       0.01181536      -0.00340266
Hf       1.72350470       4.48782784       4.46492048      -0.00493851       0.00002709       0.00057914
