49
Lattice="12.336457 0.0 0.0 -6.168228499999997 10.683685154694365 0.0 0.0 0.0 15.0" Properties=species:S:1:pos:R:3:forces:R:3 energy=-431.03087461235805 free_energy=-431.03087461235805 stress="-0.005639799763954347 -0.003499501309574761 1.078070472961505e-05 -0.003499501309574761 -0.008475039307708413 -1.466257870274793e-06 1.078070472961505e-05 -1.466257870274793e-06 -6.982077454051074e-06" pbc="T T T"
C       -0.02106357      -0.02289390       3.61252124       0.01013587      -0.00010030      -0.00776787
C       -1.26958424       2.11853314       3.85346717      -0.00216099       0.00164655      -0.01400417
C       -2.51410382       4.25946438       3.84395059      -0.00164465       0.00702271       0.00163759
C       -3.70405895       6.40050221       3.62564934      -0.00360055       0.00082072       0.00739262
C       -4.93018796       8.53473156       3.49952264       0.00749159      -0.00831256      -0.00089779
C        2.46113668      -0.06711861       3.55116757       0.00311534      -0.00250802      -0.00264705
C        1.23033755       2.01371175       3.90165118       0.00271201      -0.00323592       0.00841807
C       -0.17037963       4.28632687       4.45190173      -0.00131993      -0.01340571      -0.00027017
C       -1.29635215       6.41708858       4.12953004       0.00189259       0.00341327       0.01111201
C       -2.45374499       8.51384410       3.68883884      -0.00387080      -0.00537557       0.00800682
C        4.92600172      -0.02475058       3.53646163       0.00419075      -0.00654101       0.00344663
C        3.64783739       2.04592053       3.35318376       0.00345553       0.00661659      -0.00664229
S        1.24887440       6.49260333       5.19492178      -0.00089438       0.00964751      -0.00503281
C       -0.00265033       8.54322395       3.92878783       0.00196192      -0.00076848       0.01195050
C        7.38539177      -0.00728894       3.59459641      -0.00093162       0.00877417       0.00469808
C        6.13409359       2.14355037       3.44633073       0.00523456       0.00026148       0.00003697
C        4.94121698       4.35344373       3.55243652      -0.00143440       0.00638952       0.00997090
N        3.79402863       6.47349958       3.75144200       0.00195674       0.00369866       0.00449045
C        2.47126304       8.53793247       3.82034253      -0.00914171      -0.00369314      -0.00977048
C        9.84891232      -0.00291416       3.59860690      -0.00529838      -0.00769729       0.00537770
C        8.60571401       2.13139217       3.60989142       0.00638381      -0.00699109       0.00776819
C        7.38006139       4.27221173       3.53790835       0.00053373      -0.00234064       0.00577161
C        6.20473207       6.44786105       3.37710569      -0.00448342       0.00334102      -0.00942769
C        4.93078853       8.54702824       3.50479456       0.00043141       0.00200983      -0.00790398
C       -0.03320959       1.38915890       3.80806495      -0.00107573       0.00182612       0.00006269
C       -1.30906027       3.53214628       4.04246528      -0.00144801       0.00139368      -0.00451532
C       -2.50106774       5.68702030       3.85839910      -0.00003406       0.00802546       0.00519243
C       -3.69507557       7.81769466       3.59457192       0.00061648      -0.00670401       0.00003311
C       -4.95111468       9.94378493       3.55307352       0.00923662      -0.00921458       0.00448944
C        2.44459994       1.34297062       3.59322008       0.00227599       0.00556889      -0.00770872
P        1.42730170       3.57714216       4.62623020       0.00025681      -0.00551643      -0.00185592
C       -0.18337100       5.67423040       4.57229472      -0.01757654      -0.00630728      -0.00360222
C       -1.23704287       7.82297742       3.94121938      -0.00028768       0.00399248       0.01266759
C       -2.46219104       9.93067570       3.57019600      -0.00061217      -0.00745557      -0.00937761
C        4.90611464       1.41091692       3.40408672       0.00490644       0.00000883      -0.00496130
S        3.43766637       3.72207064       2.85620277      -0.00460299       0.00914168       0.00609626
C        1.25061807       7.92057618       4.18761958       0.00303144      -0.00366118      -0.01411949
C       -0.00867399       9.95682469       3.65972581       0.00576390      -0.00233680       0.00194741
C        7.37072307       1.42453800       3.52528288       0.00521645       0.00348061      -0.00237163
C        6.15273211       3.55901652       3.48989973      -0.00147948       0.00165908      -0.00569667
C        4.97908596       5.79046934       3.44438549      -0.01013599       0.00605002      -0.01337590
C        3.72103837       7.84368099       3.69655020      -0.00348399       0.00051625       0.00376123
C        2.45383564       9.96716374       3.63485004      -0.01022002       0.00215620      -0.00273031
C        9.84374000       1.41977460       3.67281903       0.00170509      -0.00874850       0.00193463
C        8.60554284       3.55260191       3.64636171       0.00385413      -0.00532619      -0.00192774
C        7.40628691       5.69706301       3.48874686      -0.00513359       0.00224749       0.00694425
C        6.17380175       7.85258822       3.42927252       0.00215260       0.00165856      -0.00206112
C        4.91499700       9.96803864       3.56171673       0.00485656       0.00374407      -0.00765497
Hf       3.32185126       4.96752082       5.13245388      -0.00249724       0.01112881       0.01311602
