49
Lattice="12.336457 0.0 0.0 -6.168228499999997 10.683685154694365 0.0 0.0 0.0 15.0" Properties=species:S:1:pos:R:3:forces:R:3 energy=-431.9158010422849 free_energy=-431.9158010422849 stress="-0.0009164396719512521 -0.002369578014484085 -5.280677794404073e-06 -0.002369578014484085 -0.0037047114107319977 1.540123184959285e-05 -5.280677794404073e-06 1.540123184959285e-05 1.4383553832326773e-06" pbc="T T T"
C        0.02409554      -0.02285467       3.73275920       0.00821043      -0.00167094      -0.00041453
C       -1.23031456       2.10406323       3.49093614       0.00308951      -0.00389237      -0.00821344
C       -2.48314865       4.24852184       3.51904536      -0.00195637      -0.00451269       0.00518718
C       -3.67087190       6.39056627       3.72113787      -0.00051605       0.00372045      -0.00055238
C       -4.89308484       8.52469393       3.79564554      -0.00370146       0.00766246       0.00160707
C        2.49945077      -0.05728269       3.81846574       0.00641027      -0.00166121      -0.00361707
C        1.27023188       2.02496117       3.40575448      -0.00276937      -0.00636538      -0.00093094
C       -0.17774687       4.23883577       2.76110830       0.00024958       0.00657727       0.00350697
C       -1.23022502       6.40506687       3.35608949       0.00373745       0.00451721      -0.00409369
C       -2.41779250       8.50930742       3.78411945      -0.00495134       0.00196847      -0.00007578
C        4.96752409      -0.03734042       4.01368541      -0.00154810       0.00006241       0.00088688
C        3.67786804       2.06016694       4.13135002      -0.00587420      -0.00634643      -0.00759063
S        1.18731955       6.35096143       1.67009588      -0.00046220       0.00177739       0.00309365
C        0.05468852       8.49056392       3.96501669       0.00491081       0.00561648      -0.00655177
C        7.42449305      -0.01458743       4.06140281      -0.00285319       0.00790921      -0.00297568
C        6.17473261       2.13361828       4.11603787       0.00457153      -0.00431535      -0.00398726
C        4.98147216       4.34995880       4.23268328       0.00850850      -0.00124128       0.00785646
N        3.80108632       6.46985218       3.99278597      -0.00240681      -0.00511704       0.00408936
C        2.50405166       8.52854801       4.13022347      -0.00332505      -0.00823514      -0.00348702
C        9.89194893      -0.01075275       3.90480389      -0.00530678      -0.00088060      -0.00187308
C        8.64410117       2.12312410       3.85649537       0.00329544       0.00700144      -0.00153929
C        7.41402183       4.26589422       3.90750654      -0.00562053      -0.00216586       0.00255201
C        6.21463523       6.42778812       3.90590376       0.00521585      -0.00335143       0.01388444
C        4.98850352       8.54684536       3.94045263       0.00361309       0.00138795       0.00005378
C        0.01287669       1.39501168       3.52735743       0.00062935      -0.00658896      -0.00234578
C       -1.27935609       3.51291852       3.25790005       0.00637070      -0.00047825       0.00560312
C       -2.45583857       5.67444705       3.53775612      -0.00008528      -0.00114217      -0.00474314
C       -3.65727995       7.80967095       3.75352618      -0.00779455       0.00644288       0.00175633
C       -4.90695456       9.94039344       3.77133398       0.00798794       0.00410575      -0.00074370
C        2.48219290       1.36040733       3.80109089      -0.00565493      -0.00290290      -0.00508827
S        1.39036740       3.49875499       2.47198058      -0.01194542       0.00572370      -0.00369725
C       -0.16500246       5.69033033       2.68429172      -0.00137754       0.00570861      -0.00205882
C       -1.17656077       7.79552914       3.69991552       0.00150009       0.00565002       0.00318989
C       -2.42539110       9.92493708       3.89457244       0.00149967      -0.00073426      -0.00581664
C        4.94459915       1.39997236       4.12098559       0.00058414      -0.00298034      -0.00268806
P        3.42208360       3.70187050       4.72602329      -0.00569018       0.00302206      -0.00199262
C        1.28771123       7.78951017       4.15309696      -0.00316162      -0.01497943       0.00073250
C        0.03252373       9.94090854       4.03683202      -0.00020209       0.00753233       0.00362313
C        7.41173545       1.41979252       4.02666071       0.00717112       0.00682238      -0.00055412
C        6.17889108       3.56926337       4.09981855       0.00289377      -0.00756065       0.00162653
C        4.98788522       5.75535343       4.04570594       0.00242680      -0.00453856       0.00120309
C        3.77170284       7.84411760       4.04862557       0.00230351      -0.00177637       0.00510261
C        2.49791404       9.97151957       4.05734630      -0.00897391      -0.00412554      -0.00584031
C        9.88832169       1.41236319       3.75765955       0.00071672       0.00188535      -0.00585043
C        8.63588759       3.54569159       3.77055474      -0.00748959       0.00173913       0.00251334
C        7.43075064       5.68907153       3.84192326       0.00315079      -0.00245625       0.00865179
C        6.20990919       7.83311421       3.86412754       0.00227333      -0.00089363       0.00621793
C        4.96270880       9.96297363       3.86179021       0.00363197       0.00443685       0.00572053
Hf       1.77867509       5.69010652       3.93033924      -0.00128580      -0.00035678      -0.00133692
