49
Lattice="12.336457 0.0 0.0 -6.168228499999997 10.683685154694365 0.0 0.0 0.0 15.0" Properties=species:S:1:pos:R:3:forces:R:3 energy=-434.2859432977255 free_energy=-434.2859432977255 stress="-0.005468924430729448 -0.0004132681914970875 -2.3416521037755882e-06 -0.0004132681914970875 -0.0016209335858217585 6.910136323484641e-06 -2.3416521037755882e-06 6.910136323484641e-06 -1.9962952583866686e-06" pbc="T T T"
C       -0.01667442      -0.00304820       3.56719095      -0.00260772      -0.00691780       0.00439615
C       -1.27233738       2.11989888       3.79951108       0.00497620       0.00782203      -0.00567586
C       -2.52087781       4.27065852       3.69495896       0.00158456      -0.00185974       0.00715621
C       -3.72533822       6.41490930       3.46763812       0.00406599       0.00546316       0.01288468
C       -4.94478309       8.55593534       3.39774199      -0.00122114       0.00017419      -0.00361160
C        2.46307401       0.01413157       3.53450433      -0.00307699      -0.00016039      -0.00720960
C        1.22019148       2.05784349       4.02090139       0.01095466       0.00870325       0.00922691
C       -0.23084328       4.27995379       4.44180345      -0.00456626       0.00397678      -0.00115735
C       -1.33131744       6.43256133       3.97256941      -0.00804704      -0.00960507      -0.00558355
C       -2.48185780       8.55228403       3.58303747      -0.00241853       0.00083228      -0.00550087
C        4.92112950       0.00297116       3.56134853      -0.00107056       0.00891051      -0.00307340
C        3.71361331       2.12166575       3.66020346      -0.00401360      -0.00109058      -0.01086176
P        1.32126428       6.36975612       4.88819044       0.01547453       0.00477084      -0.00285129
C       -0.02487644       8.55894013       3.86485772       0.00147604      -0.00486778      -0.00858733
C        7.39320204      -0.01537753       3.57624466      -0.00294382       0.00610730      -0.00368668
C        6.16679984       2.13163084       3.49812642      -0.00311483      -0.00388892       0.00470926
C        4.99815044       4.27939830       3.77407895       0.00418345      -0.00474582      -0.00020161
N        3.82100288       6.44043573       3.94290351      -0.00158159       0.00707973       0.00016422
C        2.47617697       8.53165856       3.80631822      -0.00027973       0.00723183      -0.00276111
C        9.85539314      -0.01344959       3.55746425      -0.00438923       0.00392893       0.00079433
C        8.61998604       2.12816965       3.52301840      -0.00491735      -0.00124401      -0.00080083
C        7.38557607       4.27814740       3.43710617       0.01216558      -0.00106573       0.00848051
C        6.15694072       6.41711314       3.34324648       0.00491850      -0.00188866       0.00202136
C        4.92719371       8.53374273       3.49212797       0.00053077      -0.00741506      -0.00563996
C       -0.02488981       1.40815373       3.80428345       0.00896844       0.00490327      -0.01687951
C       -1.33320806       3.53523239       3.96543082      -0.00504269       0.00091017       0.01164731
C       -2.52202502       5.70224374       3.69127151      -0.00389604      -0.00284565      -0.00103519
C       -3.71375319       7.84201839       3.46086977      -0.00053924       0.00342133      -0.00904331
C       -4.94291103       9.98303534       3.48616965      -0.00262266      -0.00411473       0.00008903
C        2.47294585       1.44339991       3.70131306       0.00015374      -0.00151711      -0.01620451
P        1.29648682       3.56429992       4.89982085       0.00719485       0.00238349       0.00369059
C       -0.22504039       5.68497339       4.43964055      -0.00907560      -0.00747254       0.01379850
C       -1.27009007       7.84850516       3.81739812      -0.00728486      -0.00642376      -0.00288490
C       -2.47938529       9.98157507       3.53877654      -0.00080615       0.00568134      -0.00087308
C        4.92443707       1.43774552       3.53147861      -0.00345264       0.00635881       0.00291044
O        3.74796228       3.53327877       3.73883592      -0.00615732      -0.00931236       0.00078851
C        1.22957101       7.91546591       4.09557484       0.00727238      -0.01461082      -0.00526430
C       -0.01645708       9.97066471       3.64456700       0.00029496       0.00562106       0.00546004
C        7.38646738       1.41512128       3.49795334      -0.00720762      -0.00216771      -0.00021286
C        6.16985590       3.55380660       3.51968109       0.01013378      -0.00428014       0.01302912
C        4.94889532       5.70942877       3.57177718      -0.00223863       0.00080843      -0.00111285
C        3.72558811       7.80679081       3.73331240      -0.00402164       0.00843299       0.00036846
C        2.46289588       9.95262876       3.60995906      -0.00461984       0.00858391       0.00845552
C        9.85102153       1.41307446       3.59994417      -0.00132830       0.00818849       0.00151706
C        8.60867523       3.55669095       3.51179055       0.01113741      -0.00315079       0.00318680
C        7.38000467       5.69884440       3.37655655       0.00682616       0.00110497       0.01151251
C        6.15797539       7.83786203       3.37510482       0.00328859      -0.00251338      -0.00201051
C        4.92133107       9.96215424       3.52264160      -0.00639798      -0.00865000      -0.00468560
Hf       3.23025122       4.96162443       5.41547576      -0.00666102      -0.00959054       0.00112190
