49
Lattice="12.336457 0.0 0.0 -6.168228499999997 10.683685154694365 0.0 0.0 0.0 15.0" Properties=species:S:1:pos:R:3:forces:R:3 energy=-434.5470539270096 free_energy=-434.5470539270096 stress="-0.004031065570419152 -0.0008126563681509113 -5.6684755731289525e-06 -0.0008126563681509113 -0.0036702473800694544 -1.2209849324436682e-05 -5.6684755731289525e-06 -1.2209849324436682e-05 2.1398769320849983e-06" pbc="T T T"
C       -0.00557936      -0.03214122       3.75102650      -0.00290446      -0.00268142       0.00249239
C       -1.24299332       2.11620622       3.85384054      -0.00640295       0.00401308       0.00139266
C       -2.47613076       4.25479711       3.51377956      -0.00385929      -0.00051727       0.00142820
C       -3.69948679       6.39289562       3.28209433       0.00481095      -0.00737667       0.00480256
C       -4.93817604       8.53354431       3.40525911      -0.00148635       0.00150393       0.00258901
C        2.46627765      -0.06383349       3.78991894      -0.00339577      -0.00520948      -0.00479516
C        1.21853473       1.97396315       4.35711639      -0.00583220       0.01639046       0.00828653
C       -0.10899070       4.34359276       4.02475591       0.00301288      -0.00744253       0.00391426
C       -1.25390560       6.41524738       3.47136645      -0.00877777       0.00203763      -0.00109909
C       -2.46622408       8.53023588       3.42746489       0.00517504       0.00202904       0.00323020
C        4.94116923      -0.03686045       3.68829830      -0.00157333      -0.01152431       0.00025183
C        3.71500842       1.99035085       4.21151143       0.00284272       0.01396233       0.00232441
N        1.07531274       6.45065014       4.13310433      -0.00087576       0.00374412      -0.00322117
C        0.00024701       8.51706271       3.59297862      -0.00269555       0.00044377       0.00190506
C        7.40955586      -0.03249004       3.67884445      -0.00029594      -0.00207849      -0.00187484
C        6.16753714       2.12161082       3.69992427      -0.00374561       0.00146367       0.00043327
C        4.98356895       4.34215146       3.64151148      -0.00135079      -0.00645093      -0.01300676
O        3.85313610       6.45023533       3.87585717      -0.01593658       0.00119265      -0.00576890
C        2.47820295       8.48010619       3.82597612       0.00617998      -0.00941669      -0.00511635
C        9.86144341      -0.03211622       3.71360478       0.00590734      -0.00118410      -0.00525901
C        8.63396119       2.11598306       3.60690505       0.00069778       0.00501768      -0.00300911
C        7.40047388       4.25556262       3.38971966       0.00506653       0.00119187       0.00410066
C        6.18301601       6.42544011       3.25319802       0.00038781       0.00029099      -0.00001549
C        4.94353346       8.53342184       3.55029645       0.00167758       0.00073904       0.00239446
C       -0.01623696       1.37676028       4.00126580      -0.01039033      -0.00068655       0.00480077
C       -1.26549968       3.54881458       3.78424538      -0.01068374       0.00344314       0.00340981
C       -2.47049311       5.67841865       3.38819399       0.00176482      -0.00671446       0.00004043
C       -3.69925721       7.81934136       3.33535347       0.00451337       0.00027564       0.00362521
C       -4.93905953       9.93941552       3.64194931      -0.00360498      -0.00012805       0.00076122
C        2.46505456       1.30787105       4.15612193       0.00156818       0.00288970       0.00425501
P        1.25276197       3.64952121       4.90010366       0.00192266      -0.00124303       0.00318400
C       -0.07337734       5.74223858       3.83479937      -0.00478584       0.00299957       0.00578546
C       -1.23411828       7.82386805       3.45792533       0.00077156       0.00049931      -0.00294112
C       -2.46378759       9.93800646       3.61947739      -0.00335121      -0.00258011       0.00130138
C        4.94703387       1.38028462       3.86557554       0.00020928      -0.01268007      -0.00100619
P        3.66878298       3.68697911       4.60674776       0.00854208       0.00744415      -0.00646336
C        1.19871789       7.79829855       3.83372693      -0.00226933       0.00699702       0.00703520
C        0.00686211       9.94067596       3.63095388      -0.00081487      -0.00626695      -0.00547479
C        7.40019064       1.40227716       3.64575041      -0.00367558       0.00583790      -0.00280323
C        6.18002185       3.54573002       3.55614821       0.00524229       0.00406204      -0.00488438
C        5.00700635       5.72867659       3.48769489       0.01054762       0.00825481       0.01480667
C        3.74839037       7.85721583       3.78830409       0.00510353      -0.00201813      -0.00069341
C        2.46911939       9.93094475       3.72275375       0.00471114      -0.00860075      -0.00953197
C        9.86785052       1.40464444       3.71455263       0.00168927       0.00326924      -0.00321336
C        8.63358161       3.54000001       3.48123340       0.00075707       0.00167469      -0.00192009
C        7.40652967       5.67906464       3.26725377       0.00364498      -0.00556182      -0.00187313
C        6.17580513       7.83795728       3.36041649      -0.00244253       0.00172432       0.00316708
C        4.92981266       9.95357319       3.66008350       0.00448074      -0.00294087      -0.00490972
Hf       2.54220938       5.62235508       5.47573595       0.00992357      -0.00008908      -0.00283709
