49
Lattice="12.336457 0.0 0.0 -6.168228499999997 10.683685154694365 0.0 0.0 0.0 15.0" Properties=species:S:1:pos:R:3:forces:R:3 energy=-434.18140907741946 free_energy=-434.18140907741946 stress="-0.0068403245683310125 -0.006020418743808436 1.6619067613104827e-05 -0.006020418743808436 -0.0033986611070705476 1.8497198175918803e-05 1.6619067613104827e-05 1.8497198175918803e-05 3.561661222822026e-07" pbc="T T T"
C        0.01697491      -0.00998978       3.97830095      -0.00142203      -0.00438757      -0.01135452
C       -1.26792406       2.08649641       3.83022454       0.00210140       0.00956248       0.00572067
C       -2.48767584       4.24452955       3.75542942       0.00276119      -0.00572409      -0.00026822
C       -3.66248827       6.40058453       3.89356314       0.00099325       0.00766826       0.00093795
C       -4.88509908       8.55428339       3.99421406      -0.00079812      -0.00297792       0.00021346
C        2.48224644       0.00580093       3.88586552       0.00069383      -0.01618341       0.00031917
C        1.18504626       2.09812707       3.88485037      -0.01146860      -0.00298538      -0.01018957
C       -0.09876539       4.14286904       3.45831117       0.00946971       0.00566685      -0.00726534
C       -1.23038311       6.37829482       3.60378538      -0.00068871       0.00325452       0.00721385
C       -2.43148519       8.53187739       3.81205472      -0.00190124       0.00690648      -0.00201265
C        4.94994720      -0.01819062       3.73001298       0.00263951       0.00939646      -0.00095498
C        3.67841971       2.10344990       3.51173070      -0.01324289      -0.00393674      -0.00645413
P        1.19642173       6.42525008       2.23963881       0.01585947       0.00572302      -0.00381370
C        0.03213133       8.50718869       3.62026021      -0.00547081      -0.00288480       0.01471288
C        7.40855108      -0.02418200       3.77766704      -0.00745032       0.00691769      -0.00955560
C        6.15970179       2.13758754       3.70398487       0.00369046      -0.00802991       0.01302217
C        4.98523354       4.36021362       3.67484167       0.00829146      -0.00297284      -0.00471198
N        3.83544118       6.47859261       3.86102459       0.00064462      -0.00075007       0.01700671
C        2.52123245       8.52043199       3.72164852       0.00110863       0.00473621       0.00442056
C        9.86890380      -0.03045963       3.91363831      -0.00235930       0.00757797       0.00672180
C        8.61646345       2.11352123       3.84248702       0.00150929       0.00341969      -0.00081869
C        7.40856409       4.27061794       3.86680449      -0.01191273      -0.00563005       0.00018693
C        6.23609855       6.44634925       3.97012259       0.00414081      -0.00909096       0.00198746
C        4.99130259       8.55292666       3.95979127       0.01463720      -0.00582752      -0.00632070
C       -0.01775610       1.40866441       3.91387012      -0.00700572      -0.00260085       0.00302106
C       -1.29212349       3.48452935       3.64048311       0.01271039       0.00489056      -0.00890443
C       -2.44452946       5.67068430       3.76541960      -0.00089243      -0.00005976      -0.00625796
C       -3.65671802       7.82809667       3.91648193      -0.00148619       0.00851029      -0.00000683
C       -4.90492441       9.97935779       3.97795474      -0.00248162      -0.00931312      -0.00082418
C        2.44708399       1.44116841       3.78716999      -0.01070385      -0.01413029      -0.00317784
O        1.06745955       3.48315937       3.92543407      -0.01146588       0.00000367      -0.01477484
C        0.01050380       5.59166290       3.38158281       0.00113276       0.00447001      -0.00094937
C       -1.19936112       7.79683451       3.65972167      -0.00522332       0.00437055       0.00601111
C       -2.44887767       9.96170196       3.81428433       0.00723816       0.00064053      -0.00662199
C        4.92781382       1.41773553       3.64248122      -0.00122695       0.00866471       0.00622052
P        3.56967893       3.75196824       2.84715459       0.00669679       0.01599836      -0.00026335
C        1.30026063       7.77910109       3.49972724      -0.00015047      -0.00635751       0.00748027
C        0.01778415       9.93815817       3.72141026      -0.00594911       0.00206433      -0.00101018
C        7.38710478       1.40802249       3.78861754       0.00504167       0.00018968       0.00398642
C        6.18037113       3.56700096       3.75886269      -0.00415940      -0.01530678       0.00466896
C        5.01643983       5.77078834       3.86011039       0.00266917      -0.00363238       0.00058765
C        3.77749626       7.84828231       3.84579143       0.00755488       0.00284718       0.00513533
C        2.47754914       9.94766921       3.82430356      -0.00622401       0.01052895      -0.00733570
C        9.85184482       1.39096624       3.88266538       0.00206158       0.01064576       0.00294305
C        8.62305582       3.54169573       3.84172598      -0.00742650       0.00078220       0.00079345
C        7.44211764       5.69869719       3.93049973       0.00083737      -0.00296003       0.00735091
C        6.22344894       7.85392512       4.00514954       0.00915390      -0.01107331       0.00846065
C        4.95397033       9.96440923       3.96870302       0.00068263      -0.00245554      -0.00993969
Hf       2.05884088       5.37809899       4.26486229      -0.00320994      -0.00616556      -0.00533654
