50
Lattice="12.336457 0.0 0.0 -6.168228499999997 10.683685154694365 0.0 0.0 0.0 15.0" Properties=species:S:1:pos:R:3:forces:R:3 energy=-446.44117361729235 free_energy=-446.44117361729235 stress="0.0028744582356101485 0.00033471601315248207 -8.89384858591535e-06 0.00033471601315248207 -0.002621876572095141 -9.681766346203915e-06 -8.89384858591535e-06 -9.681766346203915e-06 -4.797772046078787e-06" pbc="T T T"
C       -0.00014638      -0.02871229       3.81650716      -0.00289928      -0.00087073      -0.00194857
C       -1.22173762       2.12302414       3.91763358       0.00117875       0.00180162      -0.00654103
C       -2.45547515       4.25500223       3.92928064       0.00355685       0.00966584       0.00484399
C       -3.70906115       6.37953131       3.88232044       0.00216092       0.00045472      -0.00124142
C       -4.94934768       8.50964154       3.79037179      -0.00255680      -0.01793521       0.00123279
C        2.46440430      -0.04380318       3.91667965      -0.00444930       0.00683620       0.00232050
C        1.24858680       2.09313833       3.95016973      -0.00655123      -0.00316679       0.00589909
C        0.03704276       4.24262431       3.77185096      -0.00221762      -0.00652391      -0.00495868
C       -1.22144097       6.38063923       3.65832955      -0.00465771      -0.00176222      -0.00327029
C       -2.46887144       8.51264122       3.79037511       0.00110032       0.00378225       0.00413564
C        4.93308596      -0.02715994       3.91273535       0.00501253       0.00131299      -0.01052764
C        3.69047910       2.08531667       4.08335216      -0.00192630       0.00665645       0.00237275
N        2.47406969       4.16366914       4.03418819      -0.00115802      -0.00931512      -0.00812922
P        1.10701341       6.39922725       2.14902075       0.00523442       0.00054747      -0.00374481
C       -0.01936014       8.55677586       3.52669017      -0.00129161      -0.00416254      -0.00974751
C        7.39615418       0.00918598       3.77496283      -0.00292861       0.00226088      -0.00496483
C        6.16316956       2.12085670       4.07068819      -0.00676988      -0.00140040       0.00161615
C        4.91021901       4.25691876       4.19613049       0.00424233       0.00431983      -0.00384630
S        3.53306558       6.46830921       1.84562942      -0.01121570      -0.00778335      -0.00147424
C        2.46696794       8.66712226       3.13002455       0.00040851       0.01063476       0.00386587
C        9.87637718       0.00938735       3.71199944       0.00138008      -0.00762554      -0.00031209
C        8.63842014       2.12796364       3.97221054       0.00907594      -0.00655282       0.00265485
C        7.39668366       4.25633667       4.06752739       0.00294109       0.00707103       0.00289347
C        6.11731086       6.37830316       3.93974868       0.00039941       0.00054162       0.00759017
C        4.94216289       8.53867651       3.44694675      -0.00047562       0.00369566      -0.00040455
C        0.00769151       1.39587703       3.90026663      -0.00435471       0.00158079      -0.00541505
C       -1.21606089       3.54256747       3.90151709      -0.00091182       0.00299118       0.00720633
C       -2.45812572       5.67597896       3.84728906      -0.00085882       0.00731014       0.00621764
C       -3.71015463       7.80353778       3.82587720       0.00392286      -0.00620318       0.00101538
C       -4.94091656       9.93253549       3.83055061      -0.00405857      -0.01058557       0.00050292
C        2.46782067       1.37860052       3.99306162      -0.00344532       0.00948336       0.01341729
C        1.26802441       3.51083123       3.91031058      -0.00291203      -0.00805904       0.00544780
C        0.02276140       5.64680652       3.49430724       0.00050649      -0.00017740      -0.00101955
C       -1.22596143       7.81156780       3.64152554      -0.00480717      -0.00148189       0.00456562
C       -2.46767555       9.93401020       3.88008250       0.00135920       0.00819528      -0.00968632
C        4.93176680       1.39318468       4.04085744      -0.00545216      -0.00056614       0.00436049
C        3.67651742       3.50096413       4.14927370       0.00312583       0.00462633      -0.01387651
C        1.24099991       7.90734604       3.14360498       0.00274435      -0.00127649       0.00353169
C       -0.00359421       9.96184271       3.75414213       0.00364425      -0.00504680      -0.00225878
C        7.39890187       1.41667598       3.96340243      -0.00259413       0.00197641      -0.00902594
C        6.16587595       3.53790870       4.14253610       0.00153517       0.00128753       0.00527626
C        4.89092086       5.67430231       4.15688414       0.01654455       0.00233967       0.00482449
C        3.71125903       7.96134690       2.91638375       0.00284866       0.00102089      -0.00015444
C        2.46688049      10.02429523       3.55810430      -0.00287842       0.00463003       0.00213131
C        9.87678261       1.42042367       3.88916144       0.00889814      -0.01169778       0.00403256
C        8.64119108       3.54833687       4.01471520       0.00801315       0.00062911      -0.00865972
C        7.38868106       5.67494175       3.98260552       0.00217548       0.00639186       0.00332813
C        6.13752465       7.79756654       3.70451532      -0.00359994      -0.00491498      -0.00255447
C        4.93567089       9.95866864       3.66054120      -0.00007275      -0.00087571       0.00098071
Hf       2.76172506       6.32997275       4.12377000      -0.00696576       0.00593969       0.00749807
