50
Lattice="12.336457 0.0 0.0 -6.168228499999997 10.683685154694365 0.0 0.0 0.0 15.0" Properties=species:S:1:pos:R:3:forces:R:3 energy=-445.44312630330825 free_energy=-445.44312630330825 stress="-0.002429269957762675 0.0019992709794933393 -8.138721682869603e-06 0.0019992709794933393 -0.004294395981893912 -4.626650064413391e-06 -8.138721682869603e-06 -4.626650064413391e-06 -2.946316232729849e-06" pbc="T T T"
C       -0.01325723      -0.00690754       3.71643606      -0.00042234      -0.00096591      -0.00193726
C       -1.22876432       2.14584247       3.81666372      -0.00462152       0.00116323      -0.01065815
C       -2.45562683       4.26864714       3.81393214      -0.00407378       0.01350540       0.00352529
C       -3.71362847       6.39873364       3.71587373       0.00184489      -0.00309396       0.00630916
C       -4.94609378       8.53878139       3.63161946      -0.00890012      -0.00665240       0.00182146
C        2.45011590      -0.01109823       3.75915526      -0.01208744      -0.00117906       0.00589145
C        1.23381586       2.13072995       3.84180305      -0.00655780      -0.00380348       0.00420444
C        0.04918501       4.30124870       3.90061583       0.00795174      -0.00306253       0.00952974
C       -1.24151949       6.41118665       3.81074971       0.01234576      -0.00750675      -0.00424552
C       -2.48587791       8.53513443       3.74315918       0.00180247       0.00587928      -0.00127403
C        4.92001097      -0.00989442       3.80158178       0.00472850       0.00739332       0.00180079
C        3.68520050       2.09177066       3.85389328      -0.00008785      -0.00889998      -0.01020353
O        2.47971790       4.14600608       4.06653851      -0.00542524       0.01423480      -0.00601651
O        1.12777490       6.48440097       4.00144626       0.01276899       0.00027680       0.00697165
C       -0.04669627       8.55428655       3.78596523      -0.00303272      -0.00744344       0.00429813
C        7.38814765      -0.00506816       3.80716656      -0.00109421      -0.00353068      -0.00203486
C        6.15854443       2.12336562       3.83726752       0.00390884       0.00623206       0.00470875
C        4.90403398       4.22794741       3.77068171       0.00845567      -0.00218689      -0.01374554
S        3.60077595       6.32493473       2.25323660      -0.00740476       0.00016816      -0.01201938
C        2.41475469       8.53999423       3.69989196      -0.00371003      -0.00368080       0.00647161
C        9.85635420       0.00174640       3.74381066       0.00124288      -0.00888545       0.00675970
C        8.63242431       2.13235016       3.82216589       0.00515685       0.00074003      -0.00144066
C        7.39804619       4.25782229       3.77098396      -0.00096565      -0.00560039       0.00566959
C        6.16043176       6.40111322       3.55056249       0.00449674      -0.00004782       0.00558193
C        4.92604284       8.54090984       3.52761337      -0.00711564       0.01345148       0.00348772
C       -0.00766558       1.41984324       3.79320087      -0.00589120      -0.00325192      -0.00425226
C       -1.21390362       3.57027203       3.84548107      -0.00442637       0.00782422       0.00419867
C       -2.47620680       5.68925911       3.78261720       0.00573084       0.00885350      -0.00281610
C       -3.72228459       7.82357683       3.69098243      -0.00071020      -0.00146386      -0.00668682
C       -4.95212880       9.95715112       3.69325772      -0.00814906      -0.00727583       0.00933786
C        2.45402355       1.39751878       3.82435911      -0.01024430      -0.00428502      -0.01284123
C        1.22946487       3.51695737       3.92893956      -0.00023014      -0.00600505       0.00194178
C       -0.04384434       5.71496300       3.89943717       0.01476269      -0.00262030      -0.00157851
C       -1.26417539       7.83453242       3.78056525      -0.00031208      -0.00896555      -0.00463757
C       -2.48354961       9.96049935       3.76474874      -0.00090593       0.01268489       0.00230790
C        4.92888371       1.40696902       3.83160536       0.00774383       0.00505972      -0.00599543
C        3.70948568       3.48170463       3.89828953       0.01127048      -0.00873403      -0.00140573
C        1.16862045       7.88011541       3.81609671      -0.00314869       0.00151980       0.00338996
C       -0.01629568       9.97367826       3.79499705      -0.00159397      -0.00582583      -0.00337510
C        7.39544972       1.41819230       3.82948499       0.00198794       0.00313976      -0.00762934
C        6.17012196       3.53490007       3.80466665       0.00249024       0.00004911      -0.00121992
C        4.92173478       5.64673544       3.43383334       0.00915308      -0.00112442      -0.00955203
C        3.65657887       7.84561288       3.38340344      -0.00558440       0.00948159       0.01664278
C        2.44791007       9.98343279       3.75654658      -0.00105320      -0.00536927      -0.00188575
C        9.86679486       1.42686511       3.79921510       0.00117920      -0.00872571       0.00505924
C        8.63766433       3.55405286       3.80939838       0.00014853       0.00349184      -0.00069878
C        7.39304220       5.68309754       3.68928951       0.00406747      -0.00888627       0.00850863
C        6.14715657       7.81904100       3.53055574      -0.01157083       0.00306365       0.00109277
C        4.92030550       9.96842089       3.67055184       0.00186434       0.00602414       0.00281853
Hf       3.19718375       6.14333030       4.61632200      -0.00578250       0.01483585      -0.00417952
