49
Lattice="12.336457 0.0 0.0 -6.168228499999997 10.683685154694365 0.0 0.0 0.0 15.0" Properties=species:S:1:pos:R:3:forces:R:3 energy=-428.2248633905891 free_energy=-428.2248633905891 stress="-0.006944500024587724 0.0025655538806450408 1.7498907643254975e-06 0.0025655538806450408 -0.0011231771897868292 -4.506151058808905e-06 1.7498907643254975e-06 -4.506151058808905e-06 -1.7215143653212108e-06" pbc="T T T"
C        0.02019324       0.01634878       3.81410426      -0.00339428       0.00297389       0.00232735
C       -1.20855550       2.15172348       3.58517770       0.00704081      -0.00268524      -0.00058939
C       -2.44422116       4.29006154       3.76047237       0.00097865       0.00410289       0.00430079
C       -3.67336922       6.42895187       3.98884397      -0.00786869      -0.00458214      -0.00255948
C       -4.91977209       8.56384880       4.02222034       0.00737501       0.00521383       0.00281177
C        2.48726275      -0.00994066       3.71443347      -0.00941431       0.00172105       0.00413845
C        1.27682738       2.16940340       3.48315083      -0.00345646      -0.01042132      -0.01042742
C       -0.07731280       4.36756167       3.17472919      -0.00242393      -0.00058267       0.00559437
C       -1.25487218       6.45432843       3.74647194       0.00275896       0.00516526      -0.00412423
C       -2.45196149       8.56291183       3.80832348       0.00944837      -0.00571707       0.00396146
C        4.96601924       0.00032660       3.61001113      -0.00407367      -0.00171737       0.00653415
C        3.73378900       2.07866495       3.40353205      -0.00141408       0.00356740       0.00552131
O        1.17330357       6.44804301       3.38321750      -0.00151075      -0.00026962       0.00782545
C        0.01695364       8.54056170       3.60968028      -0.00131375       0.00880431      -0.00532573
C        7.43165080      -0.00816103       3.62973425       0.00301675      -0.01112482      -0.01084108
C        6.20991237       2.14205687       3.64672659       0.00597668       0.00067111      -0.00379959
C        5.06781731       4.31752632       3.94180249       0.00482174      -0.00588195       0.01260705
P        3.47706213       6.23389612       4.82777347       0.01023938       0.01277652       0.00268873
C        2.46640545       8.51839586       3.79394590      -0.01044337       0.00307871      -0.00336252
C        9.88890501      -0.00641474       3.75419221       0.00512945       0.00862608      -0.00048003
C        8.66736929       2.13749712       3.71637305      -0.00694327       0.00288523      -0.01160847
C        7.45932542       4.27637552       3.95016217       0.00672738       0.00137059      -0.01563194
C        6.24371022       6.42884301       4.26966549      -0.00324325      -0.01097306       0.00254742
C        4.93987615       8.55541729       4.11867610       0.00004077      -0.00912857      -0.01097068
C        0.01851089       1.44904281       3.62776212       0.00466232      -0.00263703       0.00565344
C       -1.24300107       3.57340894       3.52305801       0.00014378      -0.00268311      -0.00357314
C       -2.45358744       5.71372275       3.84477661      -0.00264315       0.00555974      -0.00680830
C       -3.68483183       7.85439683       3.96060742       0.00524525      -0.00045506       0.00248400
C       -4.91666079       9.98351605       3.86400133      -0.00750220       0.00964003       0.00112249
C        2.51261946       1.41407837       3.51886092      -0.00179226       0.00020411       0.01163941
S        1.20965806       3.52438909       2.16181109       0.00874735      -0.00317771       0.00045507
C       -0.05888673       5.75905136       3.52727940       0.00363434       0.00500032      -0.00289578
C       -1.23355460       7.86111035       3.72475877       0.01092338       0.00143297      -0.01012055
C       -2.44522133       9.98269335       3.70862847      -0.00695415      -0.00532334       0.00819864
C        4.98357169       1.42834232       3.54477980       0.00218609       0.00018668      -0.00006122
S        3.66876669       3.79184984       3.06233546      -0.01030494      -0.00423418       0.00918364
C        1.22755066       7.84493520       3.60356070      -0.00903440       0.01081033       0.00138583
C        0.03099844       9.96976668       3.61531713      -0.00157768      -0.00044406      -0.00804342
C        7.43164247       1.42576572       3.66402981      -0.00145125      -0.00938543      -0.00998514
C        6.24198453       3.54867096       3.84188009       0.00859068       0.00660898      -0.00398576
C        5.05910534       5.64399468       4.38494590      -0.00525362      -0.00039947       0.01509192
C        3.68164663       7.87874651       4.19360668      -0.01013877      -0.00472608      -0.00088592
C        2.48417609       9.95599962       3.70300366       0.00430721      -0.00025606       0.00993545
C        9.89234474       1.42132284       3.68314077      -0.00057894       0.00887424      -0.00913734
C        8.67301674       3.56171031       3.81865432       0.00213187       0.00304332       0.00025943
C        7.45245671       5.70555852       4.08957309      -0.00308939      -0.01015253       0.00064822
C        6.19303408       7.85220198       4.18606334       0.01067515      -0.00787170       0.01078930
C        4.95470231       9.97839350       3.89422622       0.00231836      -0.00121642      -0.00352606
Hf       1.70103305       4.39765275       4.45463822      -0.01129920       0.00372845       0.00103806
