49
Lattice="12.336457 0.0 0.0 -6.168228499999997 10.683685154694365 0.0 0.0 0.0 15.0" Properties=species:S:1:pos:R:3:forces:R:3 energy=-428.2972744562272 free_energy=-428.2972744562272 stress="-0.004688194015205644 -0.0038896858461560224 1.2155359796058872e-07 -0.0038896858461560224 -0.00520654356189086 2.348937903542066e-06 1.2155359796058872e-07 2.348937903542066e-06 -2.105641926873334e-06" pbc="T T T"
C       -0.02383022      -0.03185079       3.55205696       0.00078889       0.00058522      -0.00277950
C       -1.26811742       2.11374121       3.77286954       0.00144363      -0.00558378      -0.00180107
C       -2.50923205       4.25567118       3.85463739      -0.00402839       0.00279426       0.00443109
C       -3.70658773       6.40086024       3.77334910      -0.00168276      -0.00274016      -0.00158073
C       -4.93269729       8.52805661       3.58809500       0.00325498       0.00087394      -0.00918681
C        2.46025640      -0.06932275       3.44870830       0.00098481      -0.00006154      -0.00244856
C        1.23392203       2.00949611       3.78226165       0.00377878       0.00900029       0.00324532
C       -0.12439900       4.27599693       4.28944980      -0.00393716      -0.00117670      -0.00193256
C       -1.27476627       6.41447243       4.05901937      -0.00313938       0.00139190      -0.00248439
C       -2.45138321       8.51502948       3.66380388       0.00379956       0.00567871       0.00611014
C        4.92043921      -0.01350208       3.45513449       0.00017392       0.00410053      -0.01011269
C        3.63794602       2.07434703       3.26949899      -0.00352985      -0.00765138       0.00378648
S        1.30001630       6.45608107       4.99664663       0.00248751       0.00024528      -0.00129181
C        0.00314369       8.54480433       3.82683932      -0.00144165       0.00298991       0.00229442
C        7.38240423      -0.00038875       3.51183514      -0.00186608      -0.00028817       0.00169064
C        6.12384347       2.16055128       3.47409602      -0.00315975      -0.00199117      -0.00698909
C        4.90500745       4.37480286       3.76292335       0.00105129      -0.00717846       0.00994824
O        3.75902621       6.46204514       3.66926605      -0.00054560      -0.00452762       0.00532320
C        2.47197607       8.52528537       3.65613470       0.00789644      -0.00614321       0.00444588
C        9.84643846      -0.00882859       3.52032591      -0.00493978      -0.00109253      -0.00108954
C        8.60095407       2.13386602       3.60770579       0.00345195       0.00496916       0.00071404
C        7.36245670       4.27275352       3.73727665      -0.00714715      -0.01026662      -0.00459135
C        6.21131301       6.46048028       3.85269671       0.00409766       0.00322745       0.00858633
C        4.92710216       8.53115271       3.52949961       0.00094119       0.00269157      -0.00455129
C       -0.03091214       1.38633338       3.71338579       0.00468058      -0.00021402       0.00031545
C       -1.29152015       3.52707300       3.95700016      -0.00729772      -0.00334874       0.00539180
C       -2.49183878       5.68359377       3.88712932       0.00005243       0.00229011      -0.00228717
C       -3.69402062       7.81565343       3.67537898       0.00377040       0.00155169       0.00507081
C       -4.94979704       9.93816405       3.50979183       0.00013782       0.00281117      -0.00174956
C        2.44250741       1.34817942       3.45661855      -0.00099148      -0.00328588      -0.00069471
P        1.46994479       3.55630900       4.54120150       0.00555711      -0.00760987       0.00334766
C       -0.13455618       5.65812316       4.41445211       0.00444127       0.00541762      -0.00285821
C       -1.22955042       7.82205779       3.87678773      -0.00169795       0.00082199       0.00412408
C       -2.46274972       9.93110507       3.49298721       0.00422678       0.00671383       0.00092218
C        4.89386492       1.43308075       3.35154111      -0.00233073      -0.00118363       0.00142467
S        3.37977764       3.82160808       2.97232489       0.00043797       0.00771951       0.00104704
C        1.24903315       7.90829152       4.04685026       0.00665071       0.00676970      -0.00239354
C       -0.01321046       9.96588507       3.56926142      -0.00322162      -0.00079675      -0.00309450
C        7.36324353       1.43477071       3.50804825       0.00065524       0.00465211      -0.00198411
C        6.13149638       3.57095587       3.63998672      -0.00832807      -0.00575405      -0.00368974
C        4.98448883       5.79280648       3.99542707       0.00436267      -0.00043435      -0.00331739
C        3.71544870       7.85668465       3.58838987       0.00369710       0.00320998       0.00024986
C        2.45196830       9.96428379       3.52167541      -0.00212963      -0.00413347       0.00959203
C        9.84065040       1.41828338       3.61662309       0.00075421      -0.00074904      -0.00257220
C        8.59909916       3.55238653       3.71824930      -0.00169864       0.00246369       0.00233470
C        7.39568430       5.69663209       3.79587419      -0.00046320      -0.01078726       0.00304551
C        6.17948536       7.84340851       3.64500116       0.00086693       0.00047163      -0.01034809
C        4.91014650       9.95893023       3.51587148      -0.00334756       0.00290138      -0.00181198
Hf       3.31347718       4.90834854       5.29073181      -0.00751767       0.00065577       0.00019904
