50
Lattice="12.336457 0.0 0.0 -6.168228499999997 10.683685154694365 0.0 0.0 0.0 15.0" Properties=species:S:1:pos:R:3:forces:R:3 energy=-422.9646355827635 free_energy=-422.9646355827635 stress="-0.006529212544597276 2.619801039172874e-06 -4.169022139365009e-06 2.619801039172874e-06 -0.008333853986146285 -3.3207263663548987e-06 -4.169022139365009e-06 -3.3207263663548987e-06 4.291361075918094e-06" pbc="T T T"
C        0.00056642      -0.02943835       3.65819369      -0.00216526      -0.00149703      -0.00434839
C       -1.24886489       2.09378009       3.87610464       0.00274030      -0.00175636      -0.00075519
C       -2.48188654       4.24950944       4.02503148       0.00247911       0.00380344      -0.00049152
C       -3.70189664       6.38527424       3.92865768      -0.00096619      -0.00350327       0.00210205
C       -4.95182266       8.49938482       3.69198969      -0.00135337      -0.00110863       0.00130517
C        2.46647084      -0.05590433       3.75156474      -0.00085567       0.00129760      -0.00269659
C        1.21659491       2.06483152       3.92910323      -0.00242214       0.00235430       0.00449405
C       -0.05222718       4.21922329       4.16232921      -0.00272801       0.00301000      -0.00251100
C       -1.22523052       6.39293232       3.96955231       0.00251301       0.00082313      -0.00175632
C       -2.45191517       8.49930755       3.69094962       0.00163178      -0.00210038       0.00174008
C        4.93234247      -0.02970453       3.65664745       0.00250610       0.00089434      -0.00149719
C        3.71646185       2.06449527       3.92910521       0.00232910       0.00363372       0.00466684
P        2.46657315       4.52507989       4.11226646      -0.00282704       0.01273111       0.00831070
S        1.13056736       6.41906429       3.36069773       0.00143981      -0.00052423       0.00499894
C       -0.01180205       8.53836787       3.32301880       0.00221693      -0.00054181       0.00422911
C        7.38714889       0.01943139       3.41826795      -0.00256263      -0.00498779      -0.00119863
C        6.18198917       2.09316702       3.87836642      -0.00215962       0.00230086      -0.00600945
C        4.98519064       4.21896121       4.16148472       0.00262731      -0.00188854      -0.00152472
S        3.79999493       6.41971835       3.36063934      -0.00548837      -0.00453822      -0.00094357
C        2.46634279       8.65257651       2.90178897      -0.00168287       0.00324804      -0.00171545
C        9.88237154       0.01940728       3.41850271       0.00092659      -0.00301702      -0.00078523
C        8.63484291       2.12105586       3.77753717      -0.00173306      -0.00265787       0.00322894
C        7.41481106       4.24938386       4.02550652      -0.00238726       0.00133886       0.00043095
C        6.15780668       6.39264166       3.96812700       0.00136271       0.00149875       0.00003167
C        4.94446691       8.53854078       3.32507677      -0.00086599       0.00232661       0.00015299
C       -0.02102476       1.37131469       3.82863074       0.00122635      -0.00105024      -0.00510931
C       -1.28051212       3.50417630       4.05343547       0.00148331       0.00072825       0.00203876
C       -2.48037175       5.67303228       4.01087159       0.00311051       0.00283374      -0.00323498
C       -3.70186201       7.79984539       3.78153120      -0.00003688      -0.00470085       0.00401826
C       -4.94115778       9.92511135       3.68921528      -0.00378798      -0.00012710      -0.00070693
C        2.46647635       1.36145021       3.86577040      -0.00028670       0.00078655       0.00046482
C        1.13218972       3.48008626       4.04509268      -0.00012083       0.00186756      -0.00055214
C       -0.12388799       5.60450410       4.25315624      -0.00276946      -0.00003356      -0.00329910
C       -1.18940717       7.78495541       3.64655019       0.00206146       0.00208668       0.00172033
C       -2.46247631       9.92497397       3.68778640       0.00329127       0.00073917       0.00180322
C        4.95405854       1.37079265       3.82896121       0.00013680       0.00291178      -0.00393452
C        3.80074696       3.47971898       4.04454217      -0.00256773       0.00257347       0.00130609
C        1.22925458       8.03167855       2.96262957       0.00029884      -0.00246980       0.00458839
C       -0.01051101       9.97926314       3.44358188      -0.00091202      -0.00447345       0.00277884
C        7.40403569       1.41547139       3.68997682      -0.00428935      -0.00375018      -0.00257650
C        6.21365115       3.50371379       4.05519698      -0.00199148       0.00050763      -0.00274889
C        5.05593616       5.60417479       4.24859500       0.00850013      -0.00288478       0.00818852
C        3.70344122       8.03235413       2.96391813       0.00120632       0.00089141       0.00126230
C        2.46649788      10.06342475       3.19280798      -0.00101139       0.00061191      -0.00485614
C        9.86563212       1.41570552       3.68866880       0.00220221      -0.00263064      -0.00005780
C        8.63474938       3.53349990       3.95317656      -0.00062235       0.00256782       0.00196499
C        7.41305204       5.67294690       4.01029289      -0.00284611       0.00064726      -0.00124549
C        6.12225361       7.78509802       3.64753911      -0.00111949       0.00367127      -0.00004692
C        4.94346239       9.97931806       3.44534014      -0.00017878      -0.00186822       0.00106995
Hf       2.46515542       6.31700814       4.37288230       0.00644810      -0.01057529      -0.01229397
