49
Lattice="12.336457 0.0 0.0 -6.168228499999997 10.683685154694365 0.0 0.0 0.0 15.0" Properties=species:S:1:pos:R:3:forces:R:3 energy=-428.1331706550908 free_energy=-428.1331706550908 stress="0.0004994249988613542 0.00166117653710019 -1.3282124831526878e-05 0.00166117653710019 0.006635898761070384 -1.2977731183517117e-05 -1.3282124831526878e-05 -1.2977731183517117e-05 1.4044828005418403e-06" pbc="T T T"
C        0.00017695       0.00380877       3.71112516       0.00129561      -0.00296163      -0.00285948
C       -1.23046706       2.13641226       3.60300577       0.00746994      -0.00662594      -0.00208600
C       -2.45970559       4.27113585       3.55673456      -0.00921330      -0.00023306      -0.00071829
C       -3.70705198       6.40460677       3.63111129      -0.00464598       0.00182460      -0.00000496
C       -4.94661521       8.54729026       3.73109156      -0.00364771       0.00537957       0.00750570
C        2.45397809       0.05148139       3.70122293      -0.00173550       0.00185342       0.00721185
C        1.20653077       2.17484416       3.67033529      -0.00002001      -0.00211052       0.00588843
C       -0.01214514       4.27409237       3.53762952       0.00026947       0.00201046      -0.00682087
C       -1.23409748       6.39662675       3.53989119      -0.00374001      -0.00333230      -0.00177889
C       -2.47842553       8.54975296       3.62536780      -0.00009935       0.00209052       0.00566733
C        4.92682231      -0.00046109       3.65415449       0.00392014       0.00625762      -0.00683321
C        3.72437594       2.19186801       3.83620670      -0.00316284      -0.00410380      -0.00215498
O        1.15952391       6.41779916       3.60127878       0.01004553      -0.00508318       0.00168386
C       -0.01179225       8.51895059       3.61907452       0.00237766      -0.00130347       0.00061216
C        7.40215755      -0.03654097       3.63325338       0.00064813       0.00164452      -0.00381016
C        6.18538958       2.11188454       3.66182859      -0.00086509      -0.00147490       0.01233521
C        4.95381275       4.19839544       3.95233223       0.00024981       0.00089657      -0.00192708
B        3.78089899       6.39932734       4.44328595      -0.00415859       0.00170108      -0.00116402
C        2.43535830       8.48514364       3.79597412      -0.00508829      -0.00091019      -0.00219626
C        9.86177272      -0.02899585       3.68236049      -0.00387929      -0.00356346       0.01154747
C        8.64350114       2.11557372       3.59332654      -0.00362305       0.00784351      -0.00318448
C        7.41502089       4.25520239       3.65839363      -0.01124265      -0.00327135       0.00677894
C        6.16943941       6.38447041       3.85772562       0.01621522      -0.00295583       0.00350615
C        4.91781694       8.52756560       3.87503381       0.00514423       0.00085577       0.00327446
C        0.00498590       1.44097577       3.65860346       0.00600452      -0.00789175       0.00233803
C       -1.22030290       3.56765950       3.55216487      -0.00209586      -0.00133478      -0.01168446
C       -2.46783987       5.68779547       3.56260314      -0.00815180      -0.00086374       0.00141239
C       -3.71494929       7.83497993       3.65889485      -0.00563026       0.00565671       0.00001251
C       -4.93846292       9.98790965       3.71568605      -0.00057763       0.00316756      -0.00150096
C        2.44792377       1.49271503       3.73744752      -0.00325558      -0.00346633       0.00782752
O        1.16880594       3.55278676       3.60726291       0.00191633      -0.00283311      -0.00886800
C       -0.02338660       5.68900904       3.52493271       0.00349637       0.00347592      -0.00352607
C       -1.25056036       7.82589190       3.58408776       0.00220612      -0.00226818      -0.00580449
C       -2.48525505       9.98976334       3.66396184       0.00266479       0.00498097       0.00086035
C        4.93901879       1.42309117       3.69965264      -0.00133293       0.00168409      -0.00060595
N        3.80324992       3.51030974       4.09562398       0.00473774      -0.00588337      -0.00011335
C        1.19143791       7.79328317       3.67849872      -0.00086780      -0.00438566       0.00104798
C       -0.00259492       9.95049296       3.63385440       0.00323291       0.00054602      -0.00655131
C        7.41354596       1.39520406       3.61289236       0.00049390       0.00371079       0.00153035
C        6.19962158       3.52374848       3.72330979      -0.00446147      -0.00354298       0.00790742
C        4.97836890       5.63769255       4.05426653       0.00777782       0.00609574      -0.00563079
C        3.67667847       7.82310244       4.01068652       0.00141094       0.00768851      -0.00634757
C        2.45477236       9.92206613       3.68828463      -0.00571599      -0.00525849      -0.00490290
C        9.87960345       1.40798490       3.61405304      -0.00187822      -0.00006775       0.00359473
C        8.64713648       3.54408543       3.58699706      -0.01368599       0.00681263      -0.00063605
C        7.40865188       5.68395843       3.70097595       0.00526434      -0.00820820      -0.00000264
C        6.15789274       7.82145397       3.83734745       0.00641155      -0.00294686      -0.00047546
C        4.93109842       9.95892552       3.74748977       0.00096843      -0.00049747       0.00111677
Hg       2.52167677       5.36342929       5.83339767       0.00855367       0.01120173      -0.00147091
