49
Lattice="12.336457 0.0 0.0 -6.168228499999997 10.683685154694365 0.0 0.0 0.0 15.0" Properties=species:S:1:pos:R:3:forces:R:3 energy=-430.5582430858882 free_energy=-430.5582430858882 stress="-0.0015128618596862344 -0.0005950741977650515 5.095743935738999e-06 -0.0005950741977650515 0.0014803654674142997 9.93878262261476e-06 5.095743935738999e-06 9.93878262261476e-06 -5.0430330165121874e-06" pbc="T T T"
C        0.00497663      -0.00257747       3.64115046       0.00398634       0.01190129       0.00882551
C       -1.24723115       2.11685816       3.61274981      -0.00253540      -0.00005862       0.00475859
C       -2.47905490       4.26070773       3.58694016       0.00923125      -0.00282040       0.00156367
C       -3.70146700       6.40604627       3.58428801      -0.00196691      -0.01070430       0.00476739
C       -4.92417609       8.55157901       3.62007047      -0.00223660       0.00110995       0.00259822
C        2.47534076       0.04261040       3.66723532      -0.00338257      -0.00972723       0.00341889
C        1.21092048       2.18515101       3.77241791       0.01063212      -0.00280797       0.00467038
C       -0.01173944       4.20465430       3.80846094      -0.00587916      -0.00134323       0.00572687
C       -1.23054977       6.38665771       3.72281348       0.00371365       0.00221123       0.00821262
C       -2.46282854       8.54441029       3.65477408      -0.00673922       0.00652135       0.00783242
C        4.92912045      -0.00329541       3.68337830       0.00408155       0.01103784       0.00812396
C        3.73122295       2.14306852       3.70414651       0.00818273      -0.00784272      -0.01055661
B        1.21830088       6.39060113       4.19592543      -0.00706579       0.01194065      -0.00443212
C       -0.00267050       8.54125778       3.80953648      -0.00447326       0.00094186       0.00527354
C        7.40241030      -0.01316267       3.71228258      -0.00551020      -0.00321427      -0.01439029
C        6.16733365       2.12508391       3.63778858       0.00405995       0.01308908       0.00354997
C        4.95462231       4.23506116       3.71401614      -0.00199637       0.00461839      -0.00551244
C        3.75662165       6.39707774       4.09530737      -0.00731495      -0.00519609       0.00169545
C        2.47391934       8.53866007       3.90637212       0.00211266       0.00186012       0.00353897
C        9.86869645      -0.01887748       3.67633295       0.00354348       0.00230790       0.00330617
C        8.62907932       2.12331332       3.59656039      -0.01030812       0.00055088       0.00341488
C        7.39555812       4.27082563       3.58525633       0.00018917      -0.00733454      -0.00955058
C        6.16121632       6.39539007       3.64238004       0.00136860       0.00046617      -0.00340166
C        4.94591478       8.53148436       3.73209303       0.00226688      -0.00020749      -0.00147795
C       -0.00458236       1.42060164       3.65232903       0.00253885       0.01058647       0.00859069
C       -1.26185246       3.52929118       3.63080511       0.00444749      -0.00286388      -0.00288609
C       -2.47671265       5.68742267       3.61069851       0.00723340      -0.00310944      -0.00553568
C       -3.69667637       7.83404326       3.60915577      -0.00525845      -0.00325204      -0.00017322
C       -4.92262839       9.98335032       3.64209926      -0.00608253       0.00074175       0.00052218
C        2.48414589       1.47931197       3.71857032       0.00758688      -0.01279746      -0.00716309
N        1.13248354       3.51235564       3.97703083      -0.00518109      -0.00397314      -0.01062656
C       -0.02715925       5.64439512       3.87009293      -0.00199725      -0.00175537       0.01075423
C       -1.23119959       7.82366802       3.72984877      -0.00577792       0.00422490       0.00939763
C       -2.47008291       9.98198039       3.66565316       0.00226700       0.00739263       0.00916729
C        4.93170794       1.42652643       3.67008411       0.01391471       0.00847055       0.00333791
O        3.78359679       3.51801885       3.72975508       0.00791303      -0.01427177      -0.00466401
C        1.23907168       7.86124101       3.96851864      -0.00030093       0.00340280      -0.00126163
C       -0.00289282       9.96618675       3.73067511      -0.00398795      -0.00081782      -0.00115387
C        7.39370740       1.41386077       3.63842753      -0.00911071      -0.00020365      -0.00625302
C        6.16096768       3.54905492       3.63035861      -0.00436543       0.00932282      -0.01080970
C        4.90718166       5.66933059       3.78026108      -0.00124118       0.00502334      -0.01005558
C        3.71107172       7.78645505       3.91459096      -0.00203300      -0.00531924      -0.00445522
C        2.47123383       9.95691706       3.75853428       0.00035138       0.00135715       0.00023048
C        9.85949604       1.40331438       3.60998143      -0.00720174       0.00108085      -0.00479399
C        8.62278180       3.55054299       3.56914757       0.00436648      -0.00122204      -0.00222539
C        7.39223424       5.69263833       3.58287627      -0.00181616      -0.01086274      -0.00310424
C        6.17480306       7.82494038       3.65417725       0.00180322       0.00077424      -0.00526209
C        4.93717529       9.95326040       3.67437594       0.00903418       0.00293085      -0.00000416
Hg       2.50398457       5.35725546       5.57439512      -0.00106207      -0.01215958       0.00647130
