49
Lattice="12.336457 0.0 0.0 -6.168228499999997 10.683685154694365 0.0 0.0 0.0 15.0" Properties=species:S:1:pos:R:3:forces:R:3 energy=-426.4621277253511 free_energy=-426.4621277253511 stress="-0.0011395958779563252 -0.0037641363679676715 9.454074315003674e-06 -0.0037641363679676715 0.0014356989880920305 -1.9362769891583267e-05 9.454074315003674e-06 -1.9362769891583267e-05 4.030579065001531e-06" pbc="T T T"
C        0.01014990      -0.01985673       3.73159760      -0.00231788       0.00503976       0.01519079
C       -1.24892527       2.10294165       3.74380996      -0.01040128      -0.00895788       0.00808275
C       -2.47019603       4.25235177       3.75800969       0.00929924       0.01129190       0.00249433
C       -3.67848635       6.39756850       3.74765224       0.00718226      -0.01086364      -0.00244049
C       -4.90412727       8.54266507       3.75541546       0.00809529      -0.00860839      -0.00407033
C        2.47081550       0.01067882       3.73072708      -0.00701930      -0.00274256       0.00472707
C        1.18974563       2.11790664       3.74800006       0.00878190      -0.00070454      -0.00972185
C       -0.03650839       4.18726053       3.98121511       0.00581847       0.00059763      -0.00756949
C       -1.20670637       6.36296931       3.92133452       0.00291356       0.00793204       0.01263171
C       -2.43999872       8.53099351       3.80580512      -0.00276563      -0.00359458      -0.00482074
C        4.93962060      -0.01071969       3.65409803      -0.00081594       0.00719672       0.01032703
C        3.67623225       2.11338451       3.35399974       0.00154062       0.00157599      -0.01201969
B        1.18258951       6.41071166       4.48588552      -0.01304713       0.00223116       0.00731417
C        0.01985334       8.52831390       3.89415629      -0.00692531      -0.01648729       0.00203699
C        7.40545815      -0.02066076       3.67534797       0.00300760      -0.00608159       0.00591716
C        6.15892964       2.13063723       3.46698443       0.00231249       0.00193985       0.00126123
C        4.96771240       4.31986868       3.28909277      -0.00465738       0.00259059      -0.00290676
N        3.77430015       6.41886344       3.60419875       0.00089617       0.00195872      -0.01268945
C        2.49001483       8.50886879       3.83707981      -0.00426679       0.00581243      -0.00864568
C        9.86953878      -0.03066557       3.69639525       0.00693306      -0.00260546       0.00236206
C        8.62698156       2.11604241       3.63676272      -0.00085982       0.00325108      -0.00374420
C        7.40840550       4.26673991       3.59108326      -0.01071721      -0.00434242      -0.00085268
C        6.20394756       6.42394673       3.62954044       0.00155281       0.00498587      -0.00941347
C        4.96229017       8.52762980       3.71279839      -0.00387857       0.00373627       0.00011858
C       -0.00827150       1.40635241       3.74179696       0.00103340       0.00452773       0.00858691
C       -1.24624605       3.51754947       3.81448015       0.00231501      -0.00469064       0.00071897
C       -2.45296583       5.67185259       3.79770774       0.01374324       0.00987187       0.00864458
C       -3.67250135       7.82339858       3.77723930       0.00784385      -0.01593343      -0.00281060
C       -4.91792241       9.96988071       3.75651021      -0.00550757      -0.00685849       0.00868569
C        2.44247624       1.44003698       3.62990308       0.00718607      -0.00192212       0.00737772
O        1.14843502       3.47392886       4.00464628       0.00938797       0.00173170      -0.00285260
C       -0.00847853       5.59795822       4.08176409       0.00027390       0.00316994      -0.01194096
C       -1.20428997       7.80064271       3.88881821      -0.00910741      -0.00325400       0.00913157
C       -2.45667070       9.96366199       3.73731207      -0.00396053       0.00214865      -0.00561361
C        4.92458267       1.41859238       3.47389668       0.00245030       0.01475918       0.01258303
P        3.58878627       3.63383242       2.50444674       0.00221904      -0.00566591       0.00450563
C        1.26474883       7.83536373       4.04012735       0.00093672      -0.00366153      -0.00281803
C        0.00473706       9.95771528       3.73249194      -0.00276006      -0.01290981      -0.00230255
C        7.39286971       1.40867682       3.58434611       0.00248221      -0.00313916       0.00356511
C        6.16671073       3.56467629       3.44104825      -0.01113361      -0.00507530       0.00343741
C        4.94960576       5.75790613       3.48270874       0.00171933       0.00159477      -0.00381501
C        3.73964941       7.77188551       3.72059492      -0.00700168       0.00091819      -0.00844314
C        2.47577656       9.93660777       3.72157602       0.00840977       0.00516318       0.00401631
C        9.86339441       1.39838807       3.68740123      -0.00655844      -0.00801963      -0.00726943
C        8.63043950       3.54502356       3.65633718       0.00205806       0.01018475      -0.00002699
C        7.42252408       5.69196290       3.65556377      -0.00268245      -0.00351561      -0.00788989
C        6.20210272       7.83403643       3.70916157      -0.00039944       0.00635186      -0.00566422
C        4.94219227       9.94560758       3.72075895       0.00180497       0.00392208      -0.00021038
Hg       2.31407135       5.62457165       6.14309181      -0.00541387       0.01515005      -0.00316457
