49
Lattice="12.336457 0.0 0.0 -6.168228499999997 10.683685154694365 0.0 0.0 0.0 15.0" Properties=species:S:1:pos:R:3:forces:R:3 energy=-426.58739288850427 free_energy=-426.58739288850427 stress="-0.0022616209550995756 -0.00319127718856487 7.53907617895199e-06 -0.00319127718856487 -0.0014300441072601661 3.7884494131914333e-06 7.53907617895199e-06 3.7884494131914333e-06 3.552118736232277e-06" pbc="T T T"
C        0.00025891      -0.02070169       3.72579831       0.00823210      -0.00829100       0.01015917
C       -1.25083572       2.10803942       3.69581598      -0.00414105      -0.00344101       0.00301113
C       -2.46795462       4.25901333       3.69362332      -0.01166490       0.00067846       0.00550495
C       -3.68384939       6.39899332       3.71841706      -0.00652968       0.00543405      -0.00536431
C       -4.91584724       8.54055145       3.75851132      -0.00153501      -0.00587851      -0.00474324
C        2.46020073       0.00313085       3.67157574       0.00102639       0.00761224      -0.00124815
C        1.18445669       2.10846515       3.65593527      -0.00536875       0.00209174       0.01032799
C       -0.03145807       4.19540783       3.82994120       0.00536628       0.00249692       0.00023400
C       -1.20363272       6.36783941       3.80511697      -0.00819914      -0.01198124       0.00864474
C       -2.45081079       8.53108670       3.74219548      -0.00249168       0.00608090      -0.00403410
C        4.93048961      -0.00710727       3.63144251       0.00392335      -0.00554515       0.00511989
C        3.67462258       2.10866745       3.33289472      -0.00414741       0.00759544       0.00149736
B        1.25816349       6.38236582       4.23217527       0.01264816       0.00339355       0.00319754
C        0.00342139       8.53946527       3.85336206       0.00030943       0.00135565       0.00443874
C        7.39558477      -0.00417559       3.72498057       0.01039035       0.00816600       0.00108757
C        6.15731117       2.13365922       3.49931401      -0.00291170      -0.01046802       0.00166170
C        4.96293247       4.30648604       3.44836405       0.00915158      -0.00835986       0.00127175
C        3.75084845       6.40890136       4.08541859      -0.01341185       0.00286386      -0.01288387
C        2.47100806       8.55198848       3.96935828       0.00756798      -0.01200736      -0.00375978
C        9.86469724      -0.01544423       3.77217122      -0.00968297      -0.00695611      -0.01308541
C        8.62459083       2.12418009       3.65734267       0.00156838       0.01120243      -0.00906734
C        7.40807993       4.26987931       3.62731552       0.00326737       0.00088717      -0.01097734
C        6.18994622       6.41653352       3.74717041      -0.00307090      -0.00370328      -0.00552279
C        4.94814524       8.53517213       3.84826729       0.00556669       0.00584778      -0.00110367
C       -0.01484680       1.40465180       3.68483406      -0.00007928      -0.00727863       0.00683271
C       -1.24408285       3.52396116       3.71595329      -0.00603511       0.00174402       0.00071255
C       -2.45161534       5.67747825       3.72208091      -0.01474689      -0.00388149       0.01238246
C       -3.68385188       7.82373738       3.74111245      -0.00151837       0.00420258      -0.00235575
C       -4.92884484       9.96528439       3.73149798       0.01019007      -0.00635301       0.00234800
C        2.43488864       1.43103153       3.55979712      -0.00849118       0.00713456      -0.00557884
O        1.14656337       3.46957608       3.88382113       0.01283186       0.01188607       0.00224291
C        0.00770614       5.60563081       3.91099618       0.00688219       0.00094004       0.00895096
C       -1.21438073       7.80541186       3.80448511      -0.00446238      -0.00527538      -0.00724290
C       -2.46679943       9.96227533       3.68292327      -0.00027310       0.00696175       0.00977289
C        4.92075070       1.42205996       3.47410985      -0.00730644      -0.00965193       0.00657715
P        3.61844078       3.67052821       2.56328518       0.00845836       0.00707279       0.00011516
C        1.24345105       7.85837502       4.01643140       0.00147380       0.00125287       0.00106967
C       -0.00643157       9.96817503       3.73357124       0.01060107       0.00732202       0.01435850
C        7.38887947       1.41806919       3.62243695       0.00656041       0.00938438       0.00093791
C        6.17192443       3.56024929       3.51071126       0.00962187      -0.00946016      -0.00606762
C        4.93547161       5.72143983       3.74358084      -0.00728901       0.00051031      -0.00654691
C        3.70701495       7.80578391       3.97935478       0.01152044       0.00588197      -0.00587096
C        2.46448818       9.96909131       3.82373398      -0.00180220      -0.01475346      -0.00490588
C        9.86089371       1.40788140       3.70405160      -0.00753598      -0.00141034      -0.00835434
C        8.63151318       3.55117476       3.65097050      -0.00341703       0.00632314      -0.00089121
C        7.41668611       5.69491111       3.68961621      -0.00098184       0.00019098      -0.00212064
C        6.18726396       7.83358360       3.79463403      -0.00139344      -0.00476144       0.00173285
C        4.93460433       9.95137088       3.78733321      -0.00086948       0.00477607      -0.00144483
Hg       2.53733694       5.43441966       5.69688922      -0.00780137      -0.00183235      -0.00102034
