49
Lattice="12.336457 0.0 0.0 -6.168228499999997 10.683685154694365 0.0 0.0 0.0 15.0" Properties=species:S:1:pos:R:3:forces:R:3 energy=-429.0744822710174 free_energy=-429.0744822710174 stress="0.0010965871090461115 0.0009025359805884112 -8.555808337452741e-07 0.0009025359805884112 -0.005457071276842823 4.900656430899717e-06 -8.555808337452741e-07 4.900656430899717e-06 -4.555232104369628e-07" pbc="T T T"
C       -0.00221930      -0.01180826       3.76057122      -0.00943995       0.00184709       0.00769864
C       -1.22185462       2.14339364       3.68297051      -0.00557912      -0.00652742       0.00330698
C       -2.46937919       4.27993584       3.53117157       0.01222092      -0.00852886       0.01218435
C       -3.70998532       6.40286865       3.56158126       0.00600687       0.00410182      -0.01778554
C       -4.94542265       8.52909230       3.67771228       0.00234719       0.00368005       0.01503688
C        2.47087201      -0.02614207       3.80841222      -0.00162593      -0.01195082       0.00514814
C        1.24769635       2.08595282       3.94044316       0.00948249      -0.00020535       0.00507776
C       -0.01763388       4.29044894       3.70649865       0.00047195       0.00848503       0.00529429
C       -1.20943010       6.41281262       3.59703943       0.01015388       0.00272210      -0.00405195
C       -2.46477094       8.53606188       3.67216029      -0.00263798       0.00051318       0.00112095
C        4.93806163       0.00133849       3.74987993       0.00336420      -0.01017959      -0.00053512
C        3.70155741       2.14392977       3.92369950       0.00372829       0.00256306      -0.00378023
B        1.42664834       6.37393400       3.84209049       0.00140326       0.00261102      -0.00839934
C        0.00862044       8.55153323       3.74641104      -0.00086962       0.00177901       0.00308940
C        7.40094237       0.02396373       3.71513592       0.00342605       0.00336245       0.00860658
C        6.16787932       2.13761108       3.66233346       0.00107747      -0.01170531       0.00229841
C        4.91149557       4.24662570       3.72953983      -0.00084149       0.00498945      -0.01068060
B        3.49964958       6.35951735       3.84924538      -0.00043358       0.00762569      -0.00712964
C        2.46762020       8.60779572       3.83106962      -0.00547833      -0.00165143      -0.01915552
C        9.87745996       0.02470616       3.72457199      -0.00756514      -0.00354102       0.00559572
C        8.64107576       2.14788915       3.59642968      -0.00922297       0.01162726      -0.00892422
C        7.39162153       4.27195230       3.53819012      -0.00741005       0.00846309       0.00684633
C        6.12386671       6.39505253       3.62408846      -0.00371949       0.00369409      -0.00052534
C        4.91976884       8.54261587       3.76148770       0.00603877      -0.01103494      -0.00883376
C        0.00243013       1.41514288       3.79471153      -0.00124746       0.00120385       0.00805587
C       -1.22962471       3.56656058       3.61453632       0.01094272      -0.00640231       0.00825804
C       -2.46365949       5.70160868       3.54042455       0.01122528      -0.00488266       0.00017060
C       -3.70528012       7.82474132       3.63074020       0.00015253       0.00530098      -0.01014538
C       -4.93749611       9.95092792       3.75243830      -0.00859960       0.00064633       0.01506872
C        2.47290200       1.38854408       3.92632566       0.00756524      -0.00753302      -0.00799498
B        1.26289167       3.56873856       4.04574323      -0.01642566      -0.00064840      -0.00029502
C        0.03005833       5.69909512       3.65711427       0.01102374       0.00873435      -0.00356398
C       -1.22592041       7.83391889       3.66610872      -0.00184009       0.00366737      -0.00564350
C       -2.46312720       9.95641347       3.74759947       0.00019978      -0.00696146       0.00531415
C        4.94167273       1.42306412       3.77413492       0.00156512      -0.01043119       0.00667379
C        3.73958130       3.53515286       4.01060148       0.00338152       0.00618051      -0.00136785
C        1.25740790       7.87889584       3.82415191      -0.00372930      -0.00281785       0.00162263
C        0.00304735       9.98104966       3.73449557       0.00706383       0.00084244      -0.00265228
C        7.40682285       1.43787963       3.64277236       0.00173217       0.00069360       0.00722356
C        6.16574265       3.55232220       3.60969731      -0.00287774      -0.00813941      -0.00968944
C        4.88656900       5.67763365       3.68555215      -0.00805846       0.00802090      -0.01040880
C        3.67148147       7.87123035       3.83313849      -0.00202538       0.00157501      -0.00257033
C        2.47096503      10.02045430       3.76203475      -0.00464227      -0.00078947      -0.01197293
C        9.87980316       1.44198548       3.65421406      -0.01364246       0.00016681       0.00035100
C        8.63500242       3.56810773       3.53309128      -0.00380688       0.01182218       0.00545650
C        7.38264838       5.69376937       3.55377678      -0.00264980       0.01117846       0.00926074
C        6.14945928       7.82284529       3.68129410       0.01041788      -0.00284534       0.00546539
C        4.93238995       9.97521561       3.74751046      -0.00486024      -0.00913675      -0.00257656
Hg       2.45748576       4.92217010       5.29977799       0.00423783      -0.00218460       0.00445690
