49
Lattice="12.336457 0.0 0.0 -6.168228499999997 10.683685154694365 0.0 0.0 0.0 15.0" Properties=species:S:1:pos:R:3:forces:R:3 energy=-419.5730287141816 free_energy=-419.5730287141816 stress="-0.0017836461618679585 -0.0006478172750055098 1.5242678033038031e-05 -0.0006478172750055098 -0.009371545745772423 -2.8188711120652966e-05 1.5242678033038031e-05 -2.8188711120652966e-05 6.1318155846514e-06" pbc="T T T"
C       -0.00795531      -0.04111679       3.62642830       0.00086898      -0.00115181      -0.00506948
C       -1.24177073       2.10369475       3.39804377      -0.00422054      -0.00273786       0.00829260
C       -2.49622298       4.24735679       3.45895836       0.00564100      -0.00383430       0.00733701
C       -3.71406200       6.37596807       3.64993011       0.00262067       0.00048725       0.00229113
C       -4.94212422       8.50069900       3.74468644       0.00685108       0.00399510       0.00630860
C        2.46018017      -0.07933444       3.67173097       0.00247434       0.00646748      -0.00180927
C        1.24820946       2.00197618       3.30213905      -0.00098553       0.00225881      -0.00448107
C       -0.10186890       4.25383749       3.01129370      -0.00560368       0.00274803      -0.00068927
C       -1.24960493       6.38807594       3.37690926      -0.00144954      -0.00350015      -0.00741753
C       -2.45666736       8.49689756       3.62739489      -0.00566904      -0.01118000       0.00518093
C        4.92744164      -0.03402111       3.77429408      -0.00319213      -0.00342265       0.00040083
C        3.65664171       2.05470493       3.94726170      -0.00309068       0.00067258      -0.00645971
S        1.49829346       6.33429091       2.93394222       0.01066530       0.00062076      -0.01487324
C        0.00352599       8.52939722       3.58985127      -0.00012089       0.00001762      -0.00456246
C        7.38790125       0.00189256       3.78010109       0.00670036       0.00152708      -0.00915330
C        6.14987547       2.11872213       3.91397712      -0.00142999      -0.00009111       0.00667314
C        4.96740268       4.27154395       4.24922945      -0.01228316       0.00369076       0.00223311
B        3.73824884       6.47806265       4.65025484       0.00582814       0.00358202      -0.00088752
C        2.46621077       8.58449926       3.87914743      -0.00125977       0.00009679       0.00403254
C        9.87127103       0.00543605       3.74564619       0.00031231      -0.00083655      -0.00739493
C        8.62156157       2.12475168       3.67177900      -0.00274006      -0.00337747       0.00827188
C        7.38806613       4.25015042       3.80416300       0.00152285       0.00173755      -0.00259113
C        6.17575322       6.39332289       3.98637038      -0.00047717       0.00131909       0.00081302
C        4.92997706       8.53997819       3.94577053       0.00196346      -0.00424450       0.00324746
C       -0.00886132       1.37849309       3.41995394      -0.00387829      -0.00038964      -0.00268529
C       -1.27061580       3.51888092       3.27565805       0.00080509      -0.00413252       0.00474859
C       -2.48803134       5.66671777       3.48812738       0.00161827      -0.00247002      -0.00279100
C       -3.70450268       7.79326110       3.66944577      -0.00175296      -0.00374039       0.00843891
C       -4.94715932       9.91565637       3.66895185       0.00618614       0.00413578      -0.00222562
C        2.45510260       1.33150994       3.65224351      -0.00794487       0.01031834      -0.00075694
S        1.42550291       3.53577311       2.56448755      -0.00012784      -0.00030133      -0.00433078
C       -0.08403423       5.64703888       3.10985621       0.00238687      -0.00297232       0.00989973
C       -1.22187055       7.80193372       3.51631834      -0.00314880      -0.00594820       0.00940539
C       -2.46215569       9.91574002       3.70698236      -0.00311485      -0.00848185      -0.00342168
C        4.91769436       1.39263440       3.90905267      -0.00392864       0.00169026      -0.00303941
P        3.46606167       3.56821102       4.78531269       0.00519641      -0.00125585      -0.01031955
C        1.26488354       7.89920723       3.56594099       0.00904564       0.00298192      -0.00765513
C       -0.00554951       9.95726437       3.73623527       0.00370852       0.00232167      -0.00837623
C        7.38525388       1.42180326       3.79035582       0.00109738      -0.00186689       0.00718683
C        6.16253650       3.53432228       3.98345124      -0.00487738       0.00045824       0.00403027
C        4.97266960       5.68599090       4.26504386      -0.00059356       0.00252658       0.00710561
C        3.68279505       7.88010177       4.10911995      -0.00167670       0.00067016       0.00523444
C        2.45978409      10.00074662       3.81649213       0.00431260       0.00173949       0.00076221
C        9.86814041       1.41860052       3.59887703      -0.00538720      -0.00134648       0.00597768
C        8.61279052       3.54248704       3.63692224       0.00343411      -0.00434343       0.00228981
C        7.39524880       5.67181987       3.80204001       0.00176296       0.00293004       0.00613219
C        6.16405623       7.80944821       3.90483707       0.00500940       0.00075588      -0.00217097
C        4.92994416       9.96131600       3.76617815      -0.00066756      -0.00401141      -0.00684378
Hg       2.62742542       6.02880440       6.47353233      -0.01039106       0.01588745      -0.00628859
