49
Lattice="12.336457 0.0 0.0 -6.168228499999997 10.683685154694365 0.0 0.0 0.0 15.0" Properties=species:S:1:pos:R:3:forces:R:3 energy=-428.33862026934753 free_energy=-428.33862026934753 stress="0.001513901889210026 -0.0016587341151481439 -1.1755511145412697e-05 -0.0016587341151481439 0.005086556394447496 -8.33902763861825e-06 -1.1755511145412697e-05 -8.33902763861825e-06 -2.67130551091711e-07" pbc="T T T"
C        0.01496259      -0.00559988       3.63763707       0.00143541       0.00383558      -0.00366366
C       -1.24025426       2.11406101       3.63235039      -0.00098666      -0.00334308       0.00321540
C       -2.47348150       4.26103604       3.62838133       0.00508764       0.00536456       0.00025263
C       -3.69364300       6.40412662       3.61560850      -0.00213528      -0.00255085       0.00100039
C       -4.91484083       8.54824936       3.61954565      -0.00117403      -0.00600187       0.00204050
C        2.47774081       0.04650319       3.67137768      -0.00041496      -0.00281928      -0.00275022
C        1.20176052       2.14760724       3.70761011      -0.00077929       0.00230231       0.00057048
C       -0.03224344       4.20595984       3.80847046      -0.00518349      -0.00685516      -0.00122123
C       -1.22032434       6.37592174       3.78441375      -0.00413335      -0.00084386      -0.00754758
C       -2.45259631       8.54075778       3.70732355      -0.00086317       0.00859404       0.00176818
C        4.93378825       0.00028884       3.71927565       0.00383294      -0.00006104      -0.00282721
C        3.73179599       2.16087676       3.66565431      -0.00722671      -0.00239520       0.01176325
B        1.17291210       6.39160449       4.37185963       0.01010084       0.00170551       0.00256128
C        0.01106792       8.53130617       3.86755834      -0.00339845      -0.00517620      -0.00459837
C        7.40776405      -0.01948490       3.72705053      -0.00524565      -0.00113630       0.00038925
C        6.16529752       2.13345200       3.64936780      -0.00581493      -0.00265290      -0.00390005
C        4.94228044       4.25420706       3.62193217       0.00010822       0.00610898      -0.00099403
N        3.75689077       6.40971182       3.79877747       0.00415758      -0.00324693       0.00070237
C        2.48544360       8.51054224       3.85651344       0.00522713       0.00434941      -0.00722064
C        9.87354382      -0.02648203       3.66707004      -0.00187643      -0.00464684      -0.00009642
C        8.63204724       2.12181145       3.62295744       0.01057469      -0.00004557       0.00125501
C        7.39447992       4.27173300       3.59023368       0.00082831      -0.00540517       0.00390251
C        6.16789569       6.39834895       3.58484101       0.00370008       0.00638804       0.00230938
C        4.95602213       8.52642572       3.65823633      -0.00551815       0.00312614       0.00280310
C        0.00869090       1.42501492       3.64921282       0.00045979       0.00565117      -0.00312465
C       -1.24376446       3.52892245       3.65931227      -0.00506009      -0.00499025       0.00425656
C       -2.46547246       5.68257907       3.65702415      -0.00220678       0.00194868       0.00273532
C       -3.68490125       7.83113933       3.64045436       0.00211752      -0.00024137       0.00055538
C       -4.91375462       9.98715246       3.64323190      -0.00062712      -0.00449826      -0.00411283
C        2.47142929       1.49910781       3.68073152      -0.00584654      -0.00451333      -0.00058179
O        1.15243374       3.51320280       3.86423703       0.00139705       0.00038869       0.00572871
C       -0.01820217       5.61446235       3.92422111      -0.00382507      -0.00461363       0.00559750
C       -1.21869051       7.81217901       3.80016977      -0.00652299       0.00020957      -0.00548633
C       -2.46549122       9.98289715       3.70155066       0.00360636       0.00720942       0.00228753
C        4.92616741       1.43831615       3.67995293      -0.00538576      -0.00417379      -0.00605817
O        3.77384232       3.53776239       3.64543486       0.00002438       0.00024665      -0.00387301
C        1.25561541       7.83553007       4.01377210       0.00457288       0.00947771       0.00402173
C        0.00274419       9.96275581       3.76908888      -0.00263314      -0.00748536      -0.00698567
C        7.39443507       1.41315356       3.65881823       0.00249633       0.00236816       0.00447120
C        6.15227317       3.56145554       3.61213813      -0.00460013      -0.00079033      -0.00055015
C        4.90550345       5.69617588       3.63747346       0.00870276       0.00844974      -0.00391671
C        3.73313418       7.76098095       3.76761964       0.00029270      -0.00247112      -0.00099942
C        2.47935013       9.93813952       3.74048521      -0.00350916       0.00146262      -0.00127074
C        9.87023590       1.40354979       3.62852362       0.00478905      -0.00848561       0.00657061
C        8.62746684       3.55042233       3.60098028       0.00951954       0.00253255      -0.00287081
C        7.39793404       5.69121253       3.58117010      -0.00059916      -0.00441146       0.00090411
C        6.18523610       7.82582564       3.60749986      -0.00510120       0.00363253       0.00412414
C        4.94420879       9.95002150       3.65222214      -0.00049363       0.00174635      -0.00132777
Hg       2.30865939       5.43362563       5.92534821       0.00813012       0.00675637       0.00019093
