49
Lattice="12.336457 0.0 0.0 -6.168228499999997 10.683685154694365 0.0 0.0 0.0 15.0" Properties=species:S:1:pos:R:3:forces:R:3 energy=-423.18091340905426 free_energy=-423.18091340905426 stress="-0.0020116227147668787 -0.00348887859322479 -2.656961475372153e-06 -0.00348887859322479 -0.005488962932721681 -1.892204521125731e-05 -2.656961475372153e-06 -1.892204521125731e-05 -1.9710000373089666e-06" pbc="T T T"
C       -0.01236058      -0.01809347       3.86821811       0.00792656       0.00644867       0.00188418
C       -1.27023896       2.10294396       3.81868903       0.00226924       0.00452550       0.00128751
C       -2.48917816       4.25228157       3.76819427       0.00957090      -0.00339154      -0.00836619
C       -3.69685998       6.39167764       3.78767538      -0.01119338      -0.00352522       0.00875280
C       -4.93342476       8.52758166       3.87944253      -0.00726435      -0.00340009      -0.00293107
C        2.45230604      -0.02147203       3.69344717       0.00567856      -0.00750231       0.00278364
C        1.18595298       2.14053923       3.62348636      -0.00500517      -0.00048161      -0.00924342
C       -0.02712441       4.17214021       3.62630373      -0.00615102      -0.00324934      -0.00496843
C       -1.20976792       6.36437617       3.63588465       0.00407392      -0.00274610       0.00455223
C       -2.45374005       8.51192924       3.69573882      -0.00218090       0.00357027       0.00062268
C        4.91639004      -0.01983891       3.58295678       0.00071409      -0.00219791       0.00113094
C        3.65446634       2.06227143       3.29967190      -0.00326852      -0.00628590      -0.00022789
S        1.54649275       6.21474787       3.23967421       0.00331744       0.00784882       0.00540017
C        0.00787178       8.51751035       3.60731124       0.00728112       0.00294341       0.01023316
C        7.37155181       0.00495558       3.70633392      -0.00480663      -0.00114468       0.00608026
C        6.12983323       2.13981115       3.51313119       0.00382638      -0.00990150      -0.00787107
C        4.97400183       4.32680962       3.42266196      -0.00286933       0.00521919       0.01137942
B        3.65787306       6.39507775       4.30409685       0.00993582      -0.00148775       0.00008853
C        2.46200276       8.58055186       3.86554516       0.00356337      -0.00604136       0.00597060
C        9.84946133       0.00174188       3.89382373      -0.00192005       0.00931990      -0.00345465
C        8.59729477       2.12862934       3.75859918       0.00113698       0.01389899      -0.00412452
C        7.38967988       4.26741154       3.70827249      -0.00368145       0.00317393      -0.00471666
C        6.16534551       6.40136702       3.87917146      -0.00328526       0.00668708       0.00175923
C        4.92608239       8.54384684       4.01297178       0.00047460      -0.00154995      -0.00118241
C       -0.03100493       1.40069614       3.78942808      -0.00151154       0.00657182      -0.01208163
C       -1.28014752       3.51183268       3.75990644       0.00491371      -0.00311145      -0.00394648
C       -2.46770012       5.67054994       3.73490718      -0.00366391      -0.00525586      -0.00310878
C       -3.69567153       7.81365377       3.79344503      -0.00767207       0.00003264      -0.00041531
C       -4.94252984       9.94984443       3.83278116       0.00378886      -0.00324485      -0.00176651
C        2.43596313       1.39766562       3.54189677      -0.00316971      -0.00735714      -0.00108514
N        1.13768562       3.48171586       3.57366292      -0.00923329      -0.00168918       0.00259580
C       -0.03334550       5.59251005       3.53964310       0.00362249      -0.00343667      -0.00046456
C       -1.21598740       7.79534913       3.62283550       0.00388261       0.00518800       0.01217669
C       -2.47465733       9.94551533       3.65451221       0.00459648      -0.00079296       0.00236487
C        4.90384483       1.41415054       3.45989055       0.00070111      -0.01072876       0.00167047
S        3.57773872       3.67625135       2.68554706      -0.00168251      -0.01373378      -0.00050267
C        1.26814889       7.87628954       3.61917185       0.00516887      -0.01201898      -0.00200300
C       -0.01284197       9.95855288       3.63388475      -0.00265946       0.00184100       0.01061264
C        7.35722451       1.43085717       3.66550390       0.00614939      -0.00135701      -0.01044621
C        6.15740947       3.55675479       3.53348500      -0.00612984      -0.00085595      -0.00017449
C        4.92966397       5.67812935       3.81414805       0.00384582       0.01229949      -0.00810619
C        3.67407996       7.88049530       4.05062794       0.00338803      -0.00757937      -0.00984461
C        2.44013371      10.00274444       3.84033019      -0.00431590      -0.00034075       0.01179725
C        9.83208688       1.41298002       3.83909808      -0.00081339       0.01351014       0.00160509
C        8.60886783       3.54674147       3.75572152       0.00459823       0.01112297      -0.00141048
C        7.40277671       5.68709413       3.79645739      -0.01121533       0.00157105       0.00120048
C        6.16804221       7.82270993       3.96713627      -0.00489600      -0.00073786      -0.00422600
C        4.92056704       9.97259684       3.94451619       0.00519703       0.00373611      -0.00534011
Hg       3.02313432       5.71407090       6.31488054      -0.00103262       0.00563680       0.00605984
