49
Lattice="12.336457 0.0 0.0 -6.168228499999997 10.683685154694365 0.0 0.0 0.0 15.0" Properties=species:S:1:pos:R:3:forces:R:3 energy=-428.7872304691039 free_energy=-428.7872304691039 stress="-0.002388390973592824 -0.0017849271875680756 9.780797662672152e-06 -0.0017849271875680756 -0.00022654004533543233 3.5129979503706303e-06 9.780797662672152e-06 3.5129979503706303e-06 -5.9618227231587e-07" pbc="T T T"
C        0.00114838      -0.00370878       3.69875326       0.00184753       0.00300135       0.00195544
C       -1.24564737       2.12564076       3.74812977      -0.00061763      -0.00212015       0.00490611
C       -2.48845653       4.26722772       3.62937165       0.00399851       0.00323537      -0.00526182
C       -3.69993934       6.41019968       3.51640694       0.00175201      -0.00811666       0.00404257
C       -4.92730634       8.54915689       3.55062996       0.00042079       0.00244879       0.00201113
C        2.47254432      -0.02015856       3.76592228       0.00331299       0.00118932      -0.00003491
C        1.23709451       2.09631573       3.96442871      -0.00017465       0.00291435       0.00183832
C       -0.05820920       4.28712186       3.92703202      -0.00267344      -0.00518300       0.00330737
C       -1.25861200       6.41802027       3.71979897       0.00298472       0.00743214       0.00190451
C       -2.46213631       8.54488938       3.65100285      -0.00855849       0.00474992       0.00091634
C        4.94291487      -0.01355128       3.77297706       0.00443739       0.00901525      -0.00401811
C        3.69270571       2.11572477       3.94096855      -0.00527489      -0.00676547       0.00251120
C        1.14731323       6.40361360       4.23469891      -0.00177614      -0.00353696      -0.00248561
C        0.01602748       8.51903345       3.81724958      -0.00087649      -0.00045782      -0.00179895
C        7.40801707      -0.02070449       3.74174132      -0.00097689      -0.00302437       0.00541724
C        6.15647276       2.14664309       3.71620224       0.00347378      -0.00016164      -0.00854704
C        4.92906894       4.34999747       3.66021459       0.00105392      -0.00221783       0.00015706
O        3.79074698       6.47900827       3.44673740      -0.00069467      -0.00381772       0.00770832
C        2.50184927       8.49462502       3.78748085       0.00228393      -0.00234838      -0.00446512
C        9.86513117      -0.01966318       3.68333506      -0.00288536      -0.00106843      -0.00113697
C        8.62417740       2.12655194       3.64518527       0.00117854       0.00493462       0.01047983
C        7.38957002       4.27581362       3.53738127      -0.00328024      -0.00107512       0.00150644
C        6.18413650       6.43157175       3.43716158       0.00117385       0.00305963      -0.00436938
C        4.95029678       8.54959899       3.56849215       0.00016657       0.00038001       0.00005238
C       -0.00518629       1.41728667       3.80906050       0.00169798       0.00301312       0.00422504
C       -1.25492717       3.55541962       3.75972092      -0.00058155      -0.00365501      -0.00677150
C       -2.47764589       5.69462306       3.60162164       0.00785259       0.00280233       0.00605063
C       -3.69109918       7.83573068       3.55416919      -0.00517639      -0.00610759       0.00291144
C       -4.92963719       9.96873137       3.66846826       0.00272882       0.00265010       0.00876909
C        2.46957061       1.39520255       3.91339119      -0.00493170      -0.00271044      -0.00302408
B        1.24000467       3.57559890       4.15347020       0.00545763      -0.00009048       0.00259875
C       -0.03371244       5.71958045       3.94137447      -0.00365188      -0.00324761       0.00449471
C       -1.23019744       7.83299464       3.72202578      -0.00508472       0.00827276      -0.00772302
C       -2.45900328       9.96103477       3.72940387       0.00490373       0.00693242      -0.00443090
C        4.93284939       1.42109983       3.81302223       0.00084607       0.00666550       0.00189796
B        3.67184855       3.61216129       4.04319439       0.00145851      -0.01324904      -0.01016408
C        1.25329541       7.75966244       3.95914893       0.00223052      -0.00332883       0.00147006
C        0.00929989       9.94711026       3.77075420      -0.00060335      -0.00033311       0.00241593
C        7.39240009       1.41516803       3.68955786       0.00333533      -0.00162141       0.00213714
C        6.14373385       3.58438895       3.62724881      -0.00008647      -0.00361815      -0.00768574
C        4.96774323       5.75612883       3.49028652       0.00240625      -0.00100887       0.00279223
C        3.74556645       7.84021655       3.61580052       0.00062333      -0.00186527      -0.01357012
C        2.47615746       9.92697537       3.73080851      -0.00189885      -0.00198581       0.00110562
C        9.86003434       1.41289881       3.68232379      -0.00067554      -0.00003824       0.00097024
C        8.62180182       3.55460900       3.58909739       0.00049946       0.00635015      -0.00031845
C        7.40644025       5.69584713       3.47575135      -0.00103260      -0.00283735      -0.00281106
C        6.18474985       7.84868509       3.48990222       0.00126744       0.00478112      -0.00708171
C        4.93538260       9.97048436       3.64693419      -0.00057637       0.00090046       0.00323536
Hg       2.47901546       4.96394254       5.31688040      -0.01130388       0.00086203       0.00191008
