49
Lattice="12.336457 0.0 0.0 -6.168228499999997 10.683685154694365 0.0 0.0 0.0 15.0" Properties=species:S:1:pos:R:3:forces:R:3 energy=-423.35946057624426 free_energy=-423.35946057624426 stress="-0.0014849846800705272 0.0013035164684452615 9.458705932700635e-06 0.0013035164684452615 -0.0043468150014920335 -1.5984922146063788e-06 9.458705932700635e-06 -1.5984922146063788e-06 2.501189585425661e-06" pbc="T T T"
C        0.00339350      -0.01624925       3.75975395      -0.00841455      -0.00921048       0.01014410
C       -1.23083469       2.11802828       3.50585586      -0.00142804      -0.00287304      -0.00163372
C       -2.49666312       4.26195561       3.56712372       0.00609218       0.00791761      -0.01004401
C       -3.72344558       6.39107187       3.75310673       0.00515125      -0.00012319       0.00029028
C       -4.94459254       8.52054421       3.87700457      -0.00343788       0.00475544       0.00360613
C        2.46790471      -0.01779664       3.76900182       0.00776294      -0.00194535      -0.00043372
C        1.25265707       2.03643144       3.30299213       0.00067217      -0.00401996      -0.00321450
C       -0.12624168       4.26803074       3.03890803      -0.00562838       0.00509995      -0.00083293
C       -1.26059157       6.40506476       3.45714029      -0.00387960      -0.00059750       0.00513841
C       -2.46541264       8.52268829       3.73479336       0.00596776      -0.00045901      -0.00061730
C        4.93014526      -0.01320157       3.78072944      -0.00443964       0.00866295       0.00639241
C        3.71397783       2.15622974       3.75482991       0.01371092      -0.00478457       0.00908365
S        1.47627587       6.34681084       2.90562376      -0.00357800      -0.00433783       0.00148474
C       -0.00013052       8.53855235       3.64090787      -0.00762288      -0.00353481      -0.00048428
C        7.39793568       0.00050675       3.81742005       0.00134282      -0.00076838       0.00017633
C        6.16970609       2.12070805       3.81203369      -0.00533659      -0.00455780       0.00112691
C        4.89365428       4.19860509       3.95096863       0.00401806      -0.00399883      -0.00201657
B        3.70107797       6.41231963       4.47809406       0.00485658      -0.00079065      -0.00439592
C        2.46568418       8.57697785       3.91228641       0.01081341      -0.00806717      -0.00122682
C        9.87935427       0.00870998       3.84317170       0.00551628       0.00314159       0.00421082
C        8.63677483       2.12987596       3.73867948       0.00247685       0.01091641      -0.00490804
C        7.38377465       4.25551908       3.80425720      -0.00776766      -0.00785370       0.00114537
C        6.14054734       6.37447684       3.98140316      -0.00283737       0.00527859      -0.00620181
C        4.92787795       8.54018605       4.01787096      -0.00277305       0.00628937       0.00374372
C        0.00303882       1.40076352       3.52219206      -0.00474701      -0.01051290       0.00555063
C       -1.27462200       3.53280433       3.37260065      -0.00503643       0.00091760      -0.00783266
C       -2.49547260       5.68333636       3.59092864       0.00689785       0.00173533       0.00650555
C       -3.71078063       7.81294856       3.79392943       0.00223527       0.00536129      -0.00285447
C       -4.93723367       9.94941158       3.81093127      -0.00170059       0.00241962       0.00251425
C        2.47282987       1.40154835       3.62854922       0.01075925      -0.00185466       0.00662995
S        1.32607483       3.52717366       2.44781713      -0.00421218       0.00830253       0.00009191
C       -0.10317246       5.66237099       3.14506543      -0.00278747       0.00866238      -0.00820686
C       -1.23348720       7.82086228       3.59643342      -0.00197676      -0.00676402       0.00243491
C       -2.46699399       9.94986010       3.78278718       0.00687792      -0.00148507       0.00739734
C        4.93756028       1.41111173       3.79476246       0.00173445      -0.00047590       0.00397446
N        3.73584360       3.49397380       3.90679347       0.01307608      -0.00474577       0.00222965
C        1.26102145       7.89982568       3.59057975      -0.00651600      -0.00957689      -0.00944065
C       -0.00032440       9.96485109       3.76928641      -0.00926635       0.00197484       0.00042379
C        7.40508717       1.41929393       3.79886430      -0.00007287       0.00564618      -0.00086725
C        6.16455559       3.52866064       3.84627772      -0.00969847      -0.00550806       0.00330884
C        4.92193169       5.63228961       4.09591411       0.00100481       0.00036324      -0.01141185
C        3.67773381       7.86750680       4.10717619       0.00770331      -0.00068886      -0.00394543
C        2.46662484       9.99812428       3.88250955       0.00898028      -0.00527744      -0.00093475
C        9.88217534       1.42478956       3.70443112       0.00045256       0.00293844      -0.00215177
C        8.61999369       3.54819211       3.70793048       0.00415967       0.01051858      -0.00327971
C        7.38364534       5.67686309       3.84298372      -0.00022573      -0.00524716      -0.00388683
C        6.15401741       7.80812927       3.98178595      -0.00674165       0.00772723       0.00066918
C        4.93842682       9.97166317       3.88140415      -0.00425095      -0.00439209       0.00495287
Hg       2.55609055       5.65614868       6.14882898      -0.01788655       0.00582189      -0.00240431
