49
Lattice="12.336457 0.0 0.0 -6.168228499999997 10.683685154694365 0.0 0.0 0.0 15.0" Properties=species:S:1:pos:R:3:forces:R:3 energy=-427.952966276616 free_energy=-427.952966276616 stress="-0.0034530343458442363 -0.003552636949929765 -1.8986656924011846e-05 -0.003552636949929765 -0.002617845513658421 8.36500224150243e-06 -1.8986656924011846e-05 8.36500224150243e-06 4.692222086138269e-06" pbc="T T T"
C       -0.00369883      -0.01723775       3.73589091      -0.00309898      -0.00738585       0.00578471
C       -1.25713874       2.10983833       3.69526893      -0.00344015      -0.00369701      -0.00187080
C       -2.46729147       4.25431585       3.69001384      -0.00828779       0.00355291      -0.00085047
C       -3.67951630       6.39956998       3.71654019      -0.00391725       0.00450068       0.00149168
C       -4.91537787       8.54251635       3.76409478       0.00424832      -0.00182954      -0.00178134
C        2.46634064      -0.00755581       3.68889458      -0.00758245       0.00244636      -0.00008528
C        1.19776337       2.14654096       3.68944811       0.00189608       0.00298724       0.00119874
C        0.00923618       4.19078670       3.83409709       0.00498660       0.00357665       0.00430598
C       -1.20879458       6.37544496       3.82982840      -0.00326877      -0.00098757       0.00242117
C       -2.45077463       8.52974618       3.76061674      -0.00117790       0.00108328      -0.00076217
C        4.92872825      -0.00856803       3.64161330      -0.00115882      -0.00511684       0.00616194
C        3.66746336       2.07269440       3.31233461      -0.00014488       0.00007710       0.00409066
B        1.24655053       6.38740164       4.26953418       0.00937987      -0.00540827       0.00302937
C        0.00141120       8.54201052       3.87877434       0.00221172       0.00010353       0.00397772
C        7.39084058      -0.00454746       3.71824196       0.00992206       0.01353079       0.00728855
C        6.14669567       2.13732863       3.47257421      -0.00532074      -0.00151066      -0.00102370
C        4.98779787       4.32776926       3.37836418       0.00427234      -0.00294382      -0.00079809
C        3.75745739       6.40611990       4.07500386      -0.00160168       0.00151807      -0.00571784
C        2.47014292       8.55078993       3.97772556      -0.00133718      -0.00709867      -0.00553307
C        9.85954785      -0.01492136       3.76117415      -0.00409400      -0.00708563      -0.00899135
C        8.61757231       2.12569071       3.63327706       0.00290081      -0.00011243      -0.00256766
C        7.41022474       4.27379692       3.60008098       0.00245860      -0.00105844      -0.00092585
C        6.19744996       6.41994825       3.72788561      -0.00273907       0.00472999      -0.00922639
C        4.94908142       8.53785666       3.84356549       0.00087466       0.00445146      -0.00353964
C       -0.02255981       1.40282541       3.70171812       0.00078874      -0.00621350       0.00068384
C       -1.25279381       3.52066617       3.71497565      -0.00490470       0.00193996       0.00122414
C       -2.45511575       5.67839616       3.73042594      -0.00704130       0.00440548      -0.00081737
C       -3.68346605       7.82414189       3.74903774       0.00264098       0.00010344      -0.00006861
C       -4.93131696       9.96108738       3.74621330      -0.00225911      -0.00556256       0.00645350
C        2.45014367       1.41176799       3.57217600      -0.00214579       0.00266332      -0.00035430
N        1.15902253       3.47765523       3.86933609       0.00860967       0.00356255       0.01005544
C        0.00123860       5.62983424       3.94026128       0.00273169       0.00397006       0.00320300
C       -1.21687438       7.81187442       3.82921454      -0.00156851      -0.00071366       0.00199712
C       -2.46339051       9.95930181       3.70074157      -0.00724933       0.00085734       0.00167163
C        4.91855570       1.42011705       3.46697044      -0.00473974      -0.00414181       0.00288935
S        3.59049904       3.66853645       2.65326385      -0.00075179       0.00386780      -0.00778113
C        1.24270095       7.86491327       4.04368899      -0.00019912      -0.00838010      -0.00161402
C       -0.00624857       9.96743465       3.74543165       0.01043517       0.00750232       0.00517189
C        7.37687971       1.42169151       3.60053353       0.00052367       0.01225058       0.00481288
C        6.16696053       3.56560913       3.47204912       0.00447856      -0.00561699       0.00223636
C        4.93871686       5.72373442       3.72010672      -0.00342216      -0.00104001      -0.00730044
C        3.70740222       7.80178536       3.97793063       0.00377169       0.00231810      -0.00533971
C        2.46081740       9.96757158       3.81842380       0.00079374      -0.00438291      -0.00214198
C        9.84740249       1.40466713       3.68947649      -0.00284529      -0.00723275      -0.00515391
C        8.63023596       3.54953775       3.63126734      -0.00096286      -0.00240995      -0.00172490
C        7.41916316       5.69615735       3.67018634      -0.00299030       0.00236241       0.00224461
C        6.18721153       7.83708700       3.79046527       0.00087374       0.00619006      -0.00184912
C        4.93024832       9.95327569       3.78386602      -0.00538253       0.00090721       0.00270407
Hg       2.56024865       5.38154436       5.64211610       0.01483347      -0.00552971      -0.00727918
