49
Lattice="12.336457 0.0 0.0 -6.168228499999997 10.683685154694365 0.0 0.0 0.0 15.0" Properties=species:S:1:pos:R:3:forces:R:3 energy=-425.9076587868723 free_energy=-425.9076587868723 stress="-0.0018894457769784293 -0.003846302945546736 -1.4245630696665758e-06 -0.003846302945546736 -0.0013931686892892448 4.619782501825494e-06 -1.4245630696665758e-06 4.619782501825494e-06 -2.8308294586695596e-06" pbc="T T T"
C       -0.00034107      -0.02277187       3.72596860      -0.01338596      -0.00042378       0.01141116
C       -1.25526458       2.10932078       3.68705945      -0.00112011      -0.00299298       0.00146462
C       -2.46613111       4.25872930       3.69397630      -0.00201507       0.00766244      -0.00353984
C       -3.67774840       6.40022318       3.72583797       0.00278999       0.00360108       0.00295526
C       -4.91359108       8.54054401       3.77138924       0.00689062      -0.00384932      -0.00986324
C        2.46235899      -0.00054021       3.68946064      -0.01033423       0.00452706      -0.00007858
C        1.17787611       2.10254322       3.67138731       0.00558665       0.00649184      -0.00212661
C       -0.02681838       4.19200608       3.83716210      -0.00403374       0.00947452       0.00781295
C       -1.19923696       6.36559239       3.81695165      -0.00262345       0.00958590       0.00433698
C       -2.44822820       8.52823828       3.75728616       0.00325140      -0.00548577       0.00399860
C        4.92684746      -0.00663300       3.64401284       0.00259059      -0.00627939       0.01281877
C        3.66719648       2.08516883       3.31250893       0.00909476      -0.00424917       0.00512144
B        1.26270523       6.38285169       4.24213416      -0.00039784      -0.00330102      -0.00594505
C        0.00424232       8.53977261       3.86434439      -0.00026784      -0.00443335       0.00309106
C        7.38988717      -0.00127678       3.71923335       0.01362102       0.00949274       0.00662479
C        6.14541297       2.14137846       3.48180128      -0.00821899      -0.00086930      -0.01105989
C        4.98799068       4.32986924       3.37854991       0.00049814      -0.00785152       0.00940242
C        3.75012785       6.40658339       4.06828698       0.00647933       0.00530149      -0.00653155
C        2.47067551       8.55282588       3.96556629      -0.00775816      -0.00192711      -0.00641292
C        9.86054400      -0.01347571       3.76039081       0.00380830      -0.01036537      -0.01353154
C        8.61846081       2.12900035       3.64167493       0.00551050      -0.01021777       0.00004984
C        7.41067815       4.27581534       3.61535557      -0.00506591       0.00071807      -0.00559110
C        6.19741327       6.41970876       3.74127885      -0.01208172       0.00334958      -0.01504737
C        4.94935365       8.53618241       3.84340608       0.00083546       0.00602094      -0.00271178
C       -0.01755589       1.40355250       3.68290002       0.00170375       0.00039640       0.01381889
C       -1.24392813       3.52240311       3.71154468      -0.00112973       0.00401589       0.00335430
C       -2.44737974       5.67656034       3.73173364       0.00222627       0.01069380      -0.00048388
C       -3.68097180       7.82376905       3.75457328       0.00860366      -0.00494002      -0.00178355
C       -4.92960246       9.96372823       3.74497722      -0.01214705      -0.00278517       0.00556249
C        2.43233329       1.42838568       3.57591687       0.00302534       0.00934194      -0.00403886
O        1.13708830       3.45462113       3.92605704       0.00026352       0.00507428      -0.00223444
C        0.01503527       5.60417080       3.92196339      -0.00965477       0.00966771       0.00453110
C       -1.21182349       7.80336436       3.81630989      -0.00080962       0.00060475       0.00670106
C       -2.46565022       9.96140932       3.70082765      -0.00535879      -0.00455684       0.00691555
C        4.91078047       1.42631059       3.47300359      -0.00139626      -0.00265023       0.00051644
S        3.60775436       3.66584668       2.62097872       0.01375735       0.00441549      -0.00417600
C        1.24496749       7.85977574       4.02444910      -0.00409695      -0.00965230      -0.00040829
C       -0.00703692       9.96884052       3.74194372       0.01374367       0.00032152       0.00458980
C        7.37652627       1.42558245       3.60924155      -0.00223170       0.00698854       0.00176405
C        6.16797189       3.56847967       3.48187335      -0.00050590      -0.01101331       0.00365867
C        4.93792543       5.72565911       3.72238119      -0.00660104      -0.01215619      -0.00127264
C        3.70721194       7.80397589       3.96947035      -0.00031459       0.00220302      -0.00446906
C        2.46087970       9.97094918       3.81509238       0.00652260       0.00036182      -0.00310031
C        9.85503847       1.41007382       3.69057779       0.00632292      -0.01512310      -0.01088193
C        8.63268567       3.55295032       3.64283346      -0.00151959      -0.00424179      -0.00546784
C        7.42146663       5.69729189       3.68644575      -0.00739137       0.00869115      -0.00352268
C        6.18904631       7.83687521       3.79941485      -0.00112767       0.00720578      -0.00464266
C        4.93196228       9.95260606       3.78071595      -0.00701065       0.00002148       0.00255400
Hg       2.55825729       5.41971084       5.67447033       0.01147286      -0.00686438       0.00586739
