49
Lattice="12.336457 0.0 0.0 -6.168228499999997 10.683685154694365 0.0 0.0 0.0 15.0" Properties=species:S:1:pos:R:3:forces:R:3 energy=-428.5031333273957 free_energy=-428.5031333273957 stress="-0.0033102849788956908 0.0013652144920521469 -1.2905487541650971e-05 0.0013652144920521469 -0.0004032748522742831 -1.6135545757015754e-07 -1.2905487541650971e-05 -1.6135545757015754e-07 -2.9590257463651372e-06" pbc="T T T"
C        0.00968178       0.00160615       3.76870996       0.00593729       0.00679813      -0.00283517
C       -1.22683509       2.12956713       3.79222936      -0.00224759       0.00271952       0.00160032
C       -2.49363286       4.27114177       3.61567806       0.00747474       0.00466340       0.01157815
C       -3.72011254       6.41521772       3.53594493      -0.00061697      -0.01255931      -0.01419326
C       -4.93327841       8.55440444       3.62075204      -0.00100607       0.00162598      -0.00286166
C        2.48391847       0.02567259       3.68177692      -0.00444435      -0.00403140      -0.00116244
C        1.26822545       2.14032733       3.97729299      -0.00052412      -0.00354154      -0.00339641
C       -0.08811186       4.28440931       3.97278705      -0.00078509      -0.00664226       0.00540775
C       -1.27202407       6.42194052       3.71203718       0.00421854       0.00528649       0.00089442
C       -2.47210656       8.55534864       3.61281247      -0.01668773       0.00864058       0.00561603
C        4.93937322      -0.00250276       3.62580638       0.00238333       0.00546135      -0.00631740
C        3.75075770       2.13000060       3.62661927      -0.00354800      -0.00897023       0.00053100
B        1.19895002       6.41274300       4.18153491      -0.01102219       0.00030044       0.00352851
C       -0.00682850       8.55285137       3.78638782      -0.00181544      -0.00575351      -0.00293868
C        7.41483130      -0.01095276       3.69537267      -0.00731850      -0.00032218      -0.00747361
C        6.18561064       2.12103709       3.53030204       0.00235678       0.00231437       0.00335064
C        4.96042019       4.23030779       3.54501977      -0.00205496      -0.00190941       0.00726907
C        3.75655764       6.37678325       4.02753001       0.00039243      -0.00253750      -0.00441766
C        2.47777290       8.54374748       3.92729628       0.00768661       0.00138827      -0.00561094
C        9.88050115      -0.00888650       3.76122942       0.00438000      -0.00273719      -0.00327082
C        8.64709764       2.12615451       3.60821214      -0.00038302       0.00927185       0.00470987
C        7.39527432       4.27182256       3.49720323      -0.00889351      -0.00261860       0.00504265
C        6.15074135       6.39675273       3.57385818       0.00297562       0.00656807       0.00206702
C        4.94200567       8.53042395       3.77395644       0.00875309       0.00000444      -0.00097770
C        0.02159719       1.43253274       3.86196236      -0.00132934       0.00761260      -0.01662230
C       -1.26708316       3.55198478       3.77823585       0.00144699      -0.00046320       0.00158001
C       -2.50143312       5.70016227       3.59281281       0.01060676       0.00193855      -0.00408673
C       -3.70769591       7.84223563       3.57309407      -0.01045483      -0.00775224      -0.00472014
C       -4.92323976       9.98258253       3.69555224      -0.00181608       0.00100993      -0.00624886
C        2.50529438       1.45831276       3.76996537      -0.00500561      -0.00963970      -0.00005745
B        1.17627947       3.58408517       4.31278041      -0.00363870      -0.00952501      -0.00339365
C       -0.08908743       5.69606856       3.91788180      -0.00424399      -0.00605006       0.00469766
C       -1.24529949       7.84617779       3.69487950      -0.01228780       0.00714320       0.00427005
C       -2.46514463       9.98369483       3.62795609      -0.00159377       0.00930612       0.00598480
C        4.95319591       1.42142208       3.57643786       0.00443175       0.00302422       0.01010123
O        3.79239568       3.49349695       3.48765200       0.00452383      -0.01319064      -0.00902410
C        1.23408233       7.87428515       3.97099196       0.00653636      -0.00299805      -0.00000382
C        0.00433550       9.97034683       3.69060696      -0.00417381      -0.00488423       0.00356679
C        7.41233439       1.41411242       3.59489305      -0.00041612       0.00343119       0.00010709
C        6.16799480       3.54501696       3.49452706      -0.00652820      -0.00218256       0.00583705
C        4.90215319       5.66506845       3.67466200       0.00306541       0.00307464      -0.00901304
C        3.70782700       7.77839737       3.92568079       0.00837767      -0.00067196       0.01318515
C        2.48161742       9.96176091       3.79130059      -0.00208506       0.00340939      -0.00633560
C        9.88005392       1.41437060       3.70775149      -0.00100531      -0.00044432       0.00484628
C        8.62667365       3.55408091       3.55099990       0.00081964       0.01078737      -0.00359054
C        7.38063976       5.69490919       3.50674743      -0.00417770      -0.00549921       0.00222803
C        6.16566097       7.82641415       3.64702086       0.00683935       0.00443849       0.00624418
C        4.94418277       9.95902806       3.77176194       0.01147687      -0.00101970      -0.00201348
Hg       2.47126892       5.05808411       5.28821565       0.01542081       0.00572539       0.00632169
