49
Lattice="12.336457 0.0 0.0 -6.168228499999997 10.683685154694365 0.0 0.0 0.0 15.0" Properties=species:S:1:pos:R:3:forces:R:3 energy=-425.79030543428496 free_energy=-425.79030543428496 stress="-0.0051329617284529925 0.0021036535139857216 -2.5589548592182696e-05 0.0021036535139857216 -0.003944309177053761 1.6065565552493939e-06 -2.5589548592182696e-05 1.6065565552493939e-06 3.140048647852435e-06" pbc="T T T"
C        0.00177403       0.01479179       3.68439533       0.00512074      -0.00167110      -0.00024936
C       -1.23565134       2.13932762       3.73674174       0.00199514       0.01410058      -0.00131984
C       -2.46566729       4.27698212       3.66507544      -0.00437979      -0.00091922      -0.00261113
C       -3.69539414       6.41812733       3.55211596       0.00179295      -0.00483173       0.01483721
C       -4.94343088       8.55718481       3.54388930       0.00256155       0.00128263       0.00171920
C        2.46491577       0.02887253       3.75974271       0.00442966      -0.00280954      -0.00176797
C        1.21906479       2.15998515       4.05395359       0.00954674       0.00745530       0.00972421
C       -0.05899171       4.24409924       4.22736946      -0.00142505      -0.00063964      -0.00111330
C       -1.27134235       6.41845077       4.00187608      -0.00459881      -0.00196860       0.00605603
C       -2.47401459       8.55989941       3.73262243      -0.01042707      -0.00109366      -0.00168799
C        4.93721027       0.00664958       3.67953084      -0.00401358       0.00033175       0.00156382
C        3.72885751       2.16152436       3.82770759      -0.00669296      -0.00231878      -0.00867819
P        1.14485871       6.54142059       5.25837024       0.01138205       0.01156609      -0.00910436
C       -0.01005988       8.56637837       3.92472226       0.00408137      -0.00085200       0.00426774
C        7.40377529       0.00682639       3.63934720       0.00523201      -0.00019487       0.00911353
C        6.19060104       2.12093304       3.50760264       0.00143836       0.00176720       0.00109581
C        4.97877905       4.23825708       3.49872231      -0.00318700      -0.00508007      -0.00906263
S        3.49639226       6.33984811       2.77564507      -0.01065795       0.00052605       0.00360413
C        2.46344620       8.57909953       3.80050369      -0.00247943      -0.00793647       0.00130231
C        9.87603811       0.00906263       3.61260304      -0.00724162       0.00728443       0.00008794
C        8.64997618       2.13666403       3.51908177      -0.00457951       0.00860969       0.00726550
C        7.43238467       4.27183320       3.40290310       0.01074389      -0.00107095       0.00584036
C        6.17622213       6.41421505       3.32934360       0.00168069      -0.00569491      -0.00177351
C        4.93124087       8.55313601       3.48019725      -0.00919286      -0.00471409      -0.00459755
C       -0.00941001       1.42971270       3.82062471       0.00683335       0.00619899      -0.00373388
C       -1.25883244       3.55401427       3.84436836      -0.00433196       0.00906655       0.00291914
C       -2.47712655       5.70366309       3.71687593      -0.00408160      -0.00624049       0.01034113
C       -3.70513836       7.84585449       3.60425401      -0.00336997      -0.00426687      -0.00517371
C       -4.93553395       9.98642681       3.66896889       0.00935311      -0.00044856      -0.00079836
C        2.47141913       1.44531795       3.91517822       0.00114892      -0.00374369      -0.00595766
C        1.10791911       3.50483827       4.40289076       0.00093013      -0.00551914       0.01320431
C       -0.12746103       5.68142292       4.39627165       0.00080906       0.00001483      -0.00251629
C       -1.25154926       7.85057104       3.91359125      -0.00605252      -0.00021217      -0.00498154
C       -2.47229350       9.98765653       3.71993693      -0.00325182      -0.00162791      -0.00533955
C        4.95728884       1.42159199       3.63687578      -0.00570812       0.00143704      -0.00469487
C        3.85834464       3.53976811       3.93981701      -0.00307056      -0.00658163      -0.01451620
C        1.23787714       7.90450688       4.13733483       0.01484109       0.00141532       0.00127809
C        0.00043510       9.98000481       3.71250702       0.00182101       0.00053956       0.00550232
C        7.41990990       1.41821907       3.52560142       0.00165156       0.00137268       0.00339656
C        6.21804930       3.53761575       3.42032360       0.00623387       0.00107087       0.00335905
C        4.99424740       5.65604095       3.25390723      -0.00087859      -0.00572343      -0.00682085
C        3.67344724       7.90296635       3.46471834      -0.01289740       0.00998413      -0.00357014
C        2.47157810       9.99162072       3.67806448      -0.00155885      -0.00729295      -0.00304028
C        9.87523733       1.42821084       3.60137446      -0.00363070       0.01440216      -0.00049624
C        8.65631654       3.56056901       3.49689664       0.00276718       0.00074154      -0.00137821
C        7.42182650       5.69925424       3.41123979       0.00788844      -0.00262096       0.00088967
C        6.16124629       7.84204829       3.41153207      -0.00045192      -0.00107808       0.00359701
C        4.93844947       9.98295715       3.60025079      -0.00567846      -0.00060270      -0.00833695
Hg       2.71016168       4.56012814       5.44725275       0.00955522      -0.01141321       0.00235551
