49
Lattice="12.336457 0.0 0.0 -6.168228499999997 10.683685154694365 0.0 0.0 0.0 15.0" Properties=species:S:1:pos:R:3:forces:R:3 energy=-425.16138626013384 free_energy=-425.16138626013384 stress="0.003296647693695991 -0.004712189982262737 5.530657613314367e-06 -0.004712189982262737 -0.0035454596252816745 -4.3022947202695333e-07 5.530657613314367e-06 -4.3022947202695333e-07 2.936899079639176e-06" pbc="T T T"
C        0.01454707      -0.02573805       3.67140453      -0.00304662      -0.00419711       0.00796761
C       -1.24266084       2.10964731       3.62202482       0.00163860      -0.00062688       0.01118958
C       -2.46898416       4.25597003       3.67663773       0.00508191       0.00738275       0.00908804
C       -3.68433182       6.38401170       3.75859761      -0.00851324      -0.00173814       0.00663520
C       -4.91035304       8.51900434       3.75928252      -0.00118414       0.00475155       0.00021071
C        2.47377056      -0.02390583       3.70816245      -0.00787791       0.00529183      -0.00456276
C        1.19568834       2.08606645       3.65110177       0.00136728      -0.00232104      -0.01098327
C       -0.01924289       4.17372459       3.76016895       0.00434435       0.00408794      -0.00467525
C       -1.15923101       6.34255220       3.81349348      -0.00125345      -0.00292541       0.00095533
C       -2.42694407       8.50436253       3.79511596      -0.00053850      -0.00356773       0.00397761
C        4.94381930      -0.02661300       3.68097261      -0.01416051       0.00811290       0.00483346
C        3.67560389       2.08732142       3.37244566      -0.00300173      -0.00561567      -0.01406235
P        1.76009978       6.19321433       4.27475807       0.00491550       0.00601599      -0.00099197
C        0.04176454       8.51851416       3.87483427       0.00836337       0.00422646      -0.00114205
C        7.39508522       0.01281909       3.68987366       0.00323989      -0.00584754      -0.00536652
C        6.14495085       2.14075620       3.52952031      -0.00283486       0.00288525       0.00262330
C        4.92387175       4.30623661       3.46240070       0.00640435       0.00125968      -0.00178841
C        3.61284295       6.46121363       3.80310650      -0.00084322       0.00360555       0.00541525
C        2.49836521       8.60795445       3.81051450       0.00899462      -0.00824172      -0.00221770
C        9.87861989       0.00771665       3.65188641       0.00314506      -0.00298056      -0.00188912
C        8.62106957       2.13714588       3.61827971      -0.00867592       0.00744432      -0.00628789
C        7.38528027       4.27201231       3.65420685       0.00929980       0.00322483      -0.00421639
C        6.14207324       6.40325006       3.75003986       0.00430644       0.00149474       0.01304919
C        4.96034857       8.54903753       3.71451139       0.00466736      -0.00371778      -0.00338701
C       -0.00519408       1.39693821       3.63661014       0.00371775      -0.00474850      -0.00273754
C       -1.24196736       3.51875146       3.65323881       0.00271000       0.00265341       0.00152429
C       -2.43429097       5.66859633       3.74753653      -0.00659071       0.00443529      -0.00323586
C       -3.67213259       7.80463910       3.78011838      -0.00424940      -0.00178474       0.00723766
C       -4.91878464       9.94464367       3.72844682      -0.00449004       0.00427325      -0.01470875
C        2.44513167       1.40228029       3.59260896       0.00011320       0.00033105      -0.00395612
O        1.15972967       3.44372485       3.86675932      -0.00716619      -0.00657932      -0.00042251
C        0.06795993       5.56778011       3.84134395       0.00237595       0.00270756       0.00617791
C       -1.18316902       7.78336501       3.84336013       0.00621302      -0.00085078      -0.00113762
C       -2.44964164       9.93619876       3.73751453      -0.01150906       0.00087852       0.00452684
C        4.92004646       1.40713823       3.51885710      -0.00487667       0.00472011       0.00564007
P        3.61376776       3.62938205       2.55498890      -0.00434282      -0.01573084      -0.00053949
C        1.31419858       7.87619040       3.97140779       0.00513585      -0.01385135      -0.00280702
C        0.01234428       9.95488465       3.75499238      -0.00578415       0.01055837      -0.00469137
C        7.38244007       1.43345615       3.61143445      -0.00601053      -0.00319530      -0.00903804
C        6.14423527       3.56667508       3.54400259       0.00515984       0.00669805       0.00721665
C        4.86449486       5.71896238       3.70218281      -0.00070910       0.00346077      -0.00065484
C        3.71863529       7.86270290       3.76388401       0.00757841      -0.00066075       0.00148714
C        2.47260478      10.01131282       3.70549902       0.00830700      -0.00995878       0.00135627
C        9.86622671       1.42291412       3.62023159      -0.00599590       0.00283381       0.00074408
C        8.62018235       3.55804775       3.64483413       0.00771164       0.00893960      -0.00168891
C        7.39110427       5.69246842       3.72503981       0.00034300      -0.00193538       0.00508012
C        6.18395867       7.82083773       3.74886312       0.00433263       0.00059788       0.00438525
C        4.94689522       9.96584249       3.67472525       0.00104053      -0.00703024      -0.00062073
Hg       1.90256463       5.79454160       6.88289871      -0.00685268      -0.00476590      -0.00351209
