49
Lattice="12.336457 0.0 0.0 -6.168228499999997 10.683685154694365 0.0 0.0 0.0 15.0" Properties=species:S:1:pos:R:3:forces:R:3 energy=-427.49669874869613 free_energy=-427.49669874869613 stress="0.004831313989692572 -0.0007575470196309073 -2.445517044076458e-05 -0.0007575470196309073 -0.0022830036710220413 7.322309870070416e-06 -2.445517044076458e-05 7.322309870070416e-06 -3.5935017599144675e-06" pbc="T T T"
C        0.01521753      -0.01493404       3.56344690      -0.00580583      -0.00050315       0.00967617
C       -1.22520243       2.12765439       3.42109843       0.00487976       0.00244330       0.00543602
C       -2.47809230       4.26327643       3.59387712      -0.01452081       0.00316452       0.00465727
C       -3.71314957       6.38544747       3.75741887       0.00644477       0.00839506       0.00306094
C       -4.92954958       8.51857180       3.72795442       0.00335191      -0.01622846       0.00592965
C        2.48621318      -0.03198592       3.67658635       0.00270247       0.00251510       0.00046728
C        1.27603218       2.07285975       3.27478888      -0.00306328       0.00677599      -0.00936783
C       -0.02168721       4.27157820       3.34770440       0.00429911      -0.00838731      -0.00445425
C       -1.20398296       6.37974409       3.80047730      -0.01070365       0.00433158      -0.00267034
C       -2.44697757       8.51261675       3.84288180       0.00643280       0.00711585      -0.01063986
C        4.94837484      -0.02273070       3.81580632       0.00401214      -0.00753630       0.01410576
C        3.72462377       2.13521898       3.62249707       0.00224423       0.00528336       0.00286364
P        1.70666249       6.15746902       4.24864739       0.01027581      -0.00400712       0.00576414
C        0.03425457       8.52327909       3.95011102      -0.00658236       0.00804757       0.00774015
C        7.40696588       0.01061233       3.80768905      -0.00389649      -0.00230494      -0.01522573
C        6.16192923       2.13334964       3.76210510      -0.00917979      -0.00178995      -0.00955990
C        4.85590048       4.22049817       3.72516699       0.00638561       0.00595734      -0.00922343
C        3.60331180       6.44738047       3.86185635      -0.00786007      -0.00577780       0.01283749
C        2.49350550       8.60096237       3.87139003       0.00905522      -0.00166153      -0.00008818
C        9.88631904       0.01517734       3.65484546      -0.01512381      -0.00554482      -0.01084658
C        8.63560916       2.13995648       3.64699769       0.01083765      -0.00872472       0.00566374
C        7.36818618       4.26532686       3.71747744      -0.00008262       0.00735779       0.00976732
C        6.10547348       6.38176590       3.75465660      -0.00396505      -0.00788338       0.00089187
C        4.94974557       8.54577311       3.71421163       0.00099453       0.00344496      -0.01028840
C        0.01740884       1.40861274       3.40172097       0.00220788       0.00372585       0.00204708
C       -1.24724557       3.54473825       3.42199780      -0.01004197       0.00573553       0.00363318
C       -2.46571423       5.68136123       3.71902127      -0.00716316       0.00250644      -0.00481612
C       -3.69474473       7.80701197       3.78653253       0.01316355       0.00421021      -0.00392787
C       -4.92435185       9.94226680       3.65648452      -0.00079459      -0.00946359       0.00187191
C        2.48969794       1.38184103       3.52196577      -0.00027915       0.00682716      -0.00498524
P        1.43488727       3.66660012       2.58307734      -0.00551905      -0.00138929      -0.00570003
C        0.02590932       5.63650802       3.70493090       0.00900930       0.00096415       0.00632088
C       -1.20764634       7.80343102       3.89840438      -0.00596975       0.00402852       0.00130607
C       -2.45156814       9.93774693       3.79912140       0.00673741       0.00190997      -0.00169605
C        4.94572512       1.40609790       3.75470183      -0.00537793      -0.01090227       0.00404117
N        3.71185933       3.49441474       3.60411105       0.00888974       0.00805290      -0.01225144
C        1.30286008       7.87477916       4.02157955       0.00080103       0.01316611       0.00331409
C        0.01848060       9.95651207       3.87440165       0.00024081      -0.00167343       0.00598575
C        7.40266955       1.43107594       3.74608965       0.00080093      -0.00002941      -0.00604937
C        6.13189435       3.55226380       3.74492953      -0.00072326       0.00561215      -0.00402876
C        4.82221921       5.68558028       3.78566549      -0.00174722      -0.00241231       0.00291080
C        3.71070114       7.84972128       3.80414450       0.00811581      -0.00236928       0.00222382
C        2.48283601      10.00958571       3.77697624      -0.00981171      -0.00628873       0.00014630
C        9.87965380       1.43012896       3.56779102       0.01008778      -0.00789863       0.00034519
C        8.61948830       3.56066544       3.64836498      -0.00692419      -0.00473307      -0.00228391
C        7.36088776       5.68567591       3.73810510       0.00749790       0.00660153       0.01296645
C        6.16124402       7.80934997       3.72635405      -0.00308771      -0.01145554       0.00795584
C        4.95010257       9.97083377       3.64212853      -0.01253236       0.00547887      -0.01256981
Hg       1.76045571       5.61287809       6.86642691       0.01128767      -0.00468679      -0.00325686
