49
Lattice="12.336457 0.0 0.0 -6.168228499999997 10.683685154694365 0.0 0.0 0.0 15.0" Properties=species:S:1:pos:R:3:forces:R:3 energy=-426.3556535764752 free_energy=-426.3556535764752 stress="0.005126991794742382 0.0013069851849801207 1.3732320040200989e-05 0.0013069851849801207 -0.0028096340981714914 -2.249182228097859e-06 1.3732320040200989e-05 -2.249182228097859e-06 -2.0553211723857198e-07" pbc="T T T"
C       -0.00396029       0.00071954       3.91504758      -0.00231239       0.00083052       0.00040965
C       -1.21555479       2.16302946       3.84923523      -0.00043584       0.00560280       0.00524560
C       -2.42301998       4.29419948       3.69934075       0.00412808      -0.00080023       0.00376662
C       -3.68032454       6.41541795       3.69406963       0.00543272      -0.00924036       0.01392151
C       -4.94971885       8.53603918       3.84856590       0.00220192      -0.00030804      -0.00448142
C        2.46545692      -0.01007122       3.79617617       0.00041213       0.00413793      -0.00179624
C        1.25040624       2.15804156       3.98110563       0.00208037       0.00490206      -0.00347783
C        0.07511069       4.28141644       3.97752950      -0.00527962       0.00204800      -0.00139535
C       -1.17018116       6.41959386       3.74825737       0.00137423       0.00195290       0.00545266
C       -2.46562870       8.54512284       3.74133097      -0.00459783       0.00124086       0.00246266
C        4.93019016       0.01172252       3.61625111      -0.00453244       0.00157234      -0.00590496
C        3.66709996       2.05901923       3.30758702       0.00469486      -0.00825548       0.00566318
C        1.33681150       6.49121758       3.79089634       0.00502394       0.00097961       0.00980821
C       -0.00812113       8.58019557       3.72213643       0.00007523       0.00428256      -0.00014851
C        7.39470343       0.04817519       3.67462273      -0.00084078       0.00241032       0.00564196
C        6.16839690       2.15490349       3.36789198      -0.00016874       0.00472652      -0.01183744
C        5.01179252       4.31413647       3.09698504      -0.00728239      -0.00496747      -0.00375923
P        3.23969860       6.16686105       4.04038362       0.00010693       0.00037997      -0.00587966
C        2.44699698       8.63583765       3.89520185       0.00230966      -0.00070987      -0.00321813
C        9.87593975       0.04158538       3.85187182       0.00015750      -0.00051662      -0.00132841
C        8.65043803       2.16889358       3.62827178       0.00135178      -0.00023010      -0.00280469
C        7.43302195       4.29269419       3.47909858       0.00563863       0.00169881       0.00200161
C        6.14870702       6.40781278       3.66663313      -0.00467300      -0.00115173       0.00220895
C        4.90801781       8.54307893       3.96541623      -0.00188566      -0.00035632       0.00029714
C        0.00497544       1.43052794       3.92196375      -0.00179553       0.00255294      -0.00416927
C       -1.19424989       3.58463177       3.82267505       0.00100767       0.00407928       0.00129454
C       -2.42007658       5.71669951       3.70711305       0.00546516      -0.00460307       0.00920106
C       -3.70151341       7.83466233       3.76788964       0.00067872      -0.00798747      -0.00074238
C       -4.94139880       9.96038691       3.88534943       0.00120307       0.00266526       0.00152059
C        2.47204375       1.41300021       3.73252696       0.00654406       0.00135635      -0.00351932
C        1.21143212       3.52389242       4.31497564      -0.00658451      -0.00919046       0.00164736
C        0.11310080       5.73069829       3.83527080      -0.00422433      -0.00144997       0.00043266
C       -1.22073200       7.84167992       3.72327095      -0.00208798       0.00425142       0.00053471
C       -2.46694332       9.96976095       3.71787913      -0.00438527       0.00292594       0.00154480
C        4.93244593       1.42869646       3.42190718       0.00193205      -0.00024079      -0.00087768
S        3.56520638       3.57011819       2.47631788       0.00508211      -0.00600439       0.00268285
C        1.23212361       7.89705510       3.78834799       0.00182969      -0.00287849      -0.00198210
C       -0.00253922      10.00227533       3.66992013      -0.00344867       0.00546481      -0.00106022
C        7.39913638       1.46288622       3.55257254      -0.00208218       0.00272531      -0.00313643
C        6.20249701       3.57089807       3.27397940       0.00168697       0.00201906      -0.00342232
C        4.91408466       5.66575363       3.48400651      -0.00497535      -0.00566844      -0.00488438
C        3.63510325       7.88928240       4.04051684       0.00157177       0.00169769       0.00026867
C        2.46181539      10.04275961       3.81571756       0.00229205      -0.00096827      -0.01095967
C        9.87945195       1.45941602       3.77506106       0.00128970       0.00092796       0.00072384
C        8.66942877       3.58723561       3.59160814       0.00593603      -0.00000965       0.00262120
C        7.41013707       5.71104255       3.60442180       0.00161465      -0.00014533       0.00935167
C        6.14450761       7.82392857       3.85887371      -0.00171882       0.00260844      -0.00521439
C        4.92537780       9.97994506       3.92978879      -0.00192668      -0.00156158      -0.00410227
Hg       2.56569956       4.36167336       5.88885922      -0.00788370      -0.00279554       0.00139857
