49
Lattice="12.336457 0.0 0.0 -6.168228499999997 10.683685154694365 0.0 0.0 0.0 15.0" Properties=species:S:1:pos:R:3:forces:R:3 energy=-426.4502153180298 free_energy=-426.4502153180298 stress="-0.0035968582002733943 -0.0005625009467517624 9.8661107804988e-06 -0.0005625009467517624 -0.0014603301736306254 -1.1343590555882075e-05 9.8661107804988e-06 -1.1343590555882075e-05 -1.7069537021877373e-06" pbc="T T T"
C       -0.00071119      -0.02210698       3.72064053      -0.00168155       0.00757737       0.00281065
C       -1.23365660       2.12387235       3.66894766       0.00163497      -0.00159241      -0.00047627
C       -2.47783191       4.25649325       3.85928939      -0.00347613      -0.00232702       0.00142554
C       -3.70465375       6.39654421       3.90908595       0.00158775      -0.00819093      -0.00212441
C       -4.92822053       8.53609717       3.86293957       0.00588208      -0.01002965      -0.00867824
C        2.47415663      -0.04334502       3.67603024      -0.00591112      -0.00322025      -0.01093896
C        1.23407619       2.04961097       3.32506127       0.00859879      -0.00489275      -0.00282746
C       -0.02542176       4.31183768       3.76500981      -0.00865415      -0.00123989       0.00513382
C       -1.26153783       6.40907321       4.04302456       0.00333410       0.00622127       0.01569776
C       -2.46828412       8.53432556       3.92047883      -0.01105788       0.00093505      -0.00224352
C        4.94457611      -0.03185069       3.68893527       0.00426886      -0.00283112      -0.00523755
C        3.70919725       2.02046995       3.16453548      -0.00303026       0.00094161       0.00008141
C        1.13584644       6.43860547       4.51647119       0.00300682       0.00046583       0.00513922
C       -0.00073437       8.53071365       3.99546664      -0.00146361      -0.00280392       0.00029530
C        7.40690689      -0.03028491       3.78082535       0.00365363       0.00542190       0.00931312
C        6.17136065       2.11680698       3.50993372      -0.00071627       0.00427315       0.00485791
C        4.98726460       4.32723309       3.26452384       0.00982693       0.00099580      -0.00660179
N        3.77879437       6.43238329       3.52661307       0.00473350       0.00251797       0.00432055
C        2.48224154       8.49767455       3.92615053       0.00082636       0.00581853       0.00271884
C        9.86735837      -0.02694681       3.77323741       0.00162673      -0.00323199      -0.00676620
C        8.63208963       2.11514687       3.73661082       0.00506424      -0.00701440      -0.01023069
C        7.39907150       4.25936048       3.70994646      -0.00171224       0.00725200       0.00422523
C        6.19162595       6.41784757       3.72221286      -0.00920217       0.00069246       0.00146873
C        4.94792527       8.52985503       3.78468640       0.00625969       0.00328459       0.00622522
C       -0.00819803       1.39854729       3.57860378       0.00526815       0.00864761       0.00487843
C       -1.23774091       3.55222005       3.76153195      -0.00449245      -0.00422580       0.00847887
C       -2.48045560       5.68255825       3.94426052       0.00540749       0.00066254       0.00582181
C       -3.69878056       7.82082091       3.91798422       0.00084876      -0.01431443      -0.01116404
C       -4.93342721       9.95150124       3.77602564      -0.00573024      -0.00715853      -0.00682412
C        2.47498491       1.34099565       3.38240132       0.00167157       0.00389817       0.00524166
P        1.30893185       3.70448165       2.81284271       0.00336972      -0.01405272      -0.00238919
C       -0.01331256       5.71616552       4.12326436       0.00374742      -0.00154403       0.00488425
C       -1.23996157       7.82755302       4.00944038      -0.00869168       0.00683918       0.00088074
C       -2.45832626       9.94482855       3.77476804      -0.00340283       0.00126936       0.00188358
C        4.95025212       1.38112708       3.44196430      -0.00118466       0.00492889       0.00039915
P        3.62532670       3.60673240       2.40983621      -0.01597088       0.00372042       0.00970290
C        1.24045058       7.79107807       4.15317071       0.00300834      -0.00546788      -0.00589104
C        0.00583896       9.94345714       3.82477202       0.00763597      -0.00230981      -0.00537298
C        7.39852287       1.40083917       3.67896044       0.00014855       0.00202376       0.00515901
C        6.16493331       3.56012603       3.49105254       0.00403491       0.00207184      -0.00309215
C        4.95112486       5.75585184       3.48446399      -0.00006964      -0.00501899      -0.00797004
C        3.72585462       7.77394237       3.74076185       0.00294979       0.00327715      -0.01035970
C        2.47311113       9.92244355       3.83204234       0.00118205       0.00756758       0.00224315
C        9.86876784       1.40428486       3.73754772       0.00622992      -0.00798890      -0.00300387
C        8.62809558       3.54400715       3.77862547      -0.00211470      -0.00314147      -0.01001490
C        7.40418626       5.68338266       3.79101583      -0.00703534       0.00759536       0.00225852
C        6.17967552       7.82829458       3.80981150       0.00293096       0.00095495       0.00105399
C        4.93400635       9.94899014       3.77957077       0.00065934       0.00374378       0.00367856
Hg       2.35209322       5.54490303       6.06934411      -0.01379959       0.00899878       0.00192920
