49
Lattice="12.336457 0.0 0.0 -6.168228499999997 10.683685154694365 0.0 0.0 0.0 15.0" Properties=species:S:1:pos:R:3:forces:R:3 energy=-423.806094159793 free_energy=-423.806094159793 stress="-0.0008757581119408725 -0.0012075106420850843 8.959968978590565e-07 -0.0012075106420850843 -0.0011693787713930013 3.144025187818949e-05 8.959968978590565e-07 3.144025187818949e-05 2.066640631484372e-06" pbc="T T T"
C        0.00042316      -0.00700855       3.84213272      -0.00878936      -0.00134586      -0.00080680
C       -1.23115822       2.14231252       3.93633336      -0.00159251      -0.00340204      -0.01634534
C       -2.46408734       4.27899682       3.73838451       0.00493293       0.00204573       0.00145748
C       -3.69038629       6.41401209       3.61458678       0.00144483      -0.00512796      -0.00536957
C       -4.93264593       8.54565660       3.67624826       0.00429908      -0.00301581       0.01407760
C        2.47432181      -0.03287990       3.70743863       0.00238154      -0.00181120      -0.00224759
C        1.26758560       2.07576245       4.06746057      -0.00753806      -0.01320967       0.00228578
C       -0.03487981       4.34606704       4.05888039       0.00336065      -0.00020009       0.00123474
C       -1.24632539       6.43453268       3.68541306      -0.00861629       0.00302615       0.00035357
C       -2.46146206       8.54600073       3.60060190       0.01074206       0.00511210      -0.00272415
C        4.94290795      -0.00440632       3.54080626       0.00591787      -0.00278868       0.00391774
C        3.66985219       2.07943935       3.45563695       0.00714409       0.00128559       0.00363961
N        1.17237703       6.43910469       3.96585262       0.00331616       0.00682457       0.00411815
C        0.01281788       8.53635965       3.62858687      -0.00137995      -0.00775654       0.00402328
C        7.41329259      -0.01070427       3.61087697       0.00043406       0.00086218      -0.00586457
C        6.16094653       2.15494620       3.45882895      -0.01513650       0.00218253       0.00920078
C        4.98053344       4.37900598       3.31394462       0.00541811       0.00824203      -0.00043455
O        3.78656245       6.46113647       3.41433037      -0.00485924       0.00364313      -0.00882056
C        2.49327242       8.49149513       3.67733868       0.00553093      -0.00280801      -0.00069120
C        9.86636479      -0.01030946       3.75757213       0.00210413      -0.00628427      -0.00245509
C        8.63692648       2.13859611       3.67547192       0.00621268       0.00442341      -0.00648066
C        7.40730580       4.28392145       3.54731397      -0.00297936      -0.00317294       0.00567800
C        6.19656158       6.43867429       3.56508151      -0.00315987       0.00510238      -0.01072858
C        4.93678284       8.54237337       3.69230654       0.00299745       0.00734033      -0.00719271
C        0.00563502       1.42058347       3.98387229      -0.00742132      -0.00363341      -0.00428288
C       -1.22319303       3.58093943       3.91815823       0.00160809      -0.00450192      -0.00702728
C       -2.45943454       5.70184668       3.66646641      -0.00260941      -0.00185736       0.00715675
C       -3.69369482       7.83529159       3.62332100       0.01297521      -0.00025929       0.00425158
C       -4.93542371       9.96256807       3.75392029      -0.00676937      -0.00072565       0.01125724
C        2.47319762       1.37916167       3.76609202       0.00895555      -0.00402561      -0.00046265
P        1.46038675       3.69964357       4.69875436      -0.01020890       0.01035293      -0.00551522
C        0.00189024       5.77318167       3.88656240       0.00483038       0.00702506      -0.00637857
C       -1.23004778       7.84082171       3.61470541      -0.00221891      -0.00278701       0.00220756
C       -2.45545315       9.96405190       3.60100486       0.00753911       0.00371010      -0.00654039
C        4.92897967       1.43414561       3.45785069       0.00029732      -0.00652507       0.01146519
S        3.42276003       3.72796080       2.98013522      -0.01333957       0.00928479      -0.00547094
C        1.23151623       7.77127791       3.74236204       0.00143020       0.00651709       0.00588539
C        0.01424890       9.96179548       3.57671560       0.00179736      -0.00852069      -0.00050105
C        7.39662860       1.43018013       3.57514686      -0.00505601       0.00960308      -0.00354382
C        6.15776205       3.59103789       3.43380334      -0.00727911       0.00222680       0.01549510
C        4.99299533       5.77834306       3.42381341      -0.00578554       0.00568177       0.00849384
C        3.73854265       7.82990968       3.61334132       0.00486097       0.00394343       0.00172606
C        2.47698550       9.93100158       3.68108119       0.00376800      -0.00459013      -0.00590936
C        9.87250026       1.42867217       3.79701326       0.00285464      -0.00774598      -0.00687554
C        8.64319321       3.56488338       3.65155296       0.00491821       0.00564357       0.00569848
C        7.41910459       5.70011450       3.57597571      -0.00453765      -0.00441225      -0.00309002
C        6.17993254       7.84948702       3.65657484      -0.00167088       0.00306737      -0.00457138
C        4.93018918       9.97052111       3.77712387      -0.00087562      -0.00138136       0.00365872
Hg       2.17030251       4.38804387       7.26794346      -0.00024817      -0.01525732       0.00304784
