50
Lattice="12.336457 0.0 0.0 -6.168228499999997 10.683685154694365 0.0 0.0 0.0 15.0" Properties=species:S:1:pos:R:3:forces:R:3 energy=-444.28105535669255 free_energy=-444.28105535669255 stress="-0.0013358058601181562 -1.802623123413764e-05 1.0829400891103087e-05 -1.802623123413764e-05 -0.0013588976038605136 -8.44293778876405e-06 1.0829400891103087e-05 -8.44293778876405e-06 -3.37040230686779e-07" pbc="T T T"
C       -0.00417032      -0.00001262       3.68016943       0.00202137       0.00465209       0.00000508
C       -1.23268169       2.14299261       3.65083965       0.00075354       0.00198599       0.00415701
C       -2.46276709       4.27325529       3.65598847       0.00200703       0.01142316       0.00051709
C       -3.70383893       6.40911368       3.68573822      -0.00110932      -0.00448304       0.00038889
C       -4.93421045       8.54849602       3.70392218      -0.00161062       0.00129861      -0.01483126
C        2.46412242      -0.00408977       3.70374961       0.00043814       0.00364775      -0.01305426
C        1.23093483       2.12603627       3.67132541       0.00478758       0.00363725       0.00296352
C        0.03002201       4.29255368       3.65406033      -0.00380200       0.00012022       0.01178274
C       -1.24494208       6.41568789       3.66758503       0.00356559       0.00776789      -0.00114607
C       -2.47318585       8.54869570       3.70077202      -0.00347714       0.00052898      -0.01672575
C        4.93233153       0.00092378       3.68799233      -0.00167517       0.00125286      -0.00182319
C        3.69635898       2.12671951       3.68312901      -0.00056034       0.00113647      -0.00139026
N        2.46310647       4.17866146       3.70283974       0.00139995      -0.01126545      -0.00114049
N        1.14869090       6.45811197       3.68240195      -0.00375439      -0.00319181      -0.00226068
C       -0.01236412       8.55212226       3.66891468       0.00212975      -0.01110605       0.00802590
C        7.40257977      -0.00591986       3.65856967      -0.01061167      -0.00913400       0.00091224
C        6.16022376       2.14404514       3.66816020       0.00074559      -0.00206651      -0.00004798
C        4.89743829       4.29340414       3.67748387       0.00548871      -0.00700795       0.00134748
N        3.77957981       6.45856962       3.72226841       0.01299112       0.00397371       0.00215593
C        2.46412122       8.50888415       3.66531481      -0.00205940       0.00747601       0.00084221
C        9.86208929      -0.00645963       3.65299544       0.00732852      -0.00795428       0.01223311
C        8.63200774       2.13712637       3.64610849       0.00071348      -0.00151954       0.01383015
C        7.39053660       4.27382556       3.66757955      -0.00096628       0.00636017      -0.00181574
C        6.17347249       6.41602101       3.68574193      -0.00396514       0.00494228      -0.00368452
C        4.94079757       8.55150972       3.67940904      -0.00382105      -0.00556215      -0.00412950
C       -0.00463863       1.42658146       3.66670751       0.00375140       0.00693506      -0.00283861
C       -1.20626389       3.57843353       3.65080210      -0.00311841       0.00389958       0.00460434
C       -2.46863140       5.69500602       3.67072306       0.00625192       0.00892563      -0.00573448
C       -3.70363893       7.83237254       3.70238436      -0.00239720      -0.00556224      -0.00976473
C       -4.93967848       9.97212462       3.70041948       0.00010347       0.00377998      -0.00480242
C        2.46375609       1.41704863       3.68880925       0.00199281       0.00104176      -0.00502417
C        1.27527923       3.56771133       3.66503848       0.00025941       0.00282758       0.00028067
C        0.02594178       5.73380541       3.65850302      -0.00079550       0.00032653       0.00309726
C       -1.24273437       7.83825858       3.67844574      -0.00090529       0.00276202       0.01194233
C       -2.46824762       9.97249334       3.70363542      -0.00107328       0.00276154      -0.01142718
C        4.93222331       1.42767631       3.68178211      -0.00140559       0.00321638      -0.00444277
C        3.65172478       3.56837914       3.67781717       0.00102232      -0.00177674       0.00113466
C        1.21367332       7.79267911       3.66404830       0.00672198      -0.00767052      -0.00009002
C        0.00014348       9.97218359       3.67275809      -0.00843223      -0.01336612      -0.00298325
C        7.39717356       1.42475346       3.65548993      -0.00288967      -0.00801222       0.00495141
C        6.13376418       3.57949183       3.67066248       0.00536185      -0.00295430       0.00110231
C        4.90233535       5.73457553       3.68628445       0.00170479      -0.00471543      -0.00644167
C        3.71446600       7.79253576       3.67946960      -0.00736740      -0.00171781      -0.00087536
C        2.46413483       9.93657410       3.65542636      -0.00225394       0.00582510       0.01087592
C        9.86683653       1.42417256       3.64546779       0.00401561      -0.00654844       0.01170771
C        8.63200296       3.56252332       3.65406024       0.00080301       0.00835599       0.00724780
C        7.39704438       5.69539105       3.68028590      -0.00633607       0.00545898       0.00107957
C        6.17148800       7.83819814       3.69109462      -0.00323801       0.00299306       0.00429011
C        4.92805929       9.97133182       3.67077340       0.00672821      -0.00791010      -0.00619056
Hg       2.58181227       5.58013078       7.61671094      -0.00546207       0.00421208       0.00118950
