49
Lattice="12.336457 0.0 0.0 -6.168228499999997 10.683685154694365 0.0 0.0 0.0 15.0" Properties=species:S:1:pos:R:3:forces:R:3 energy=-427.61221140328894 free_energy=-427.61221140328894 stress="0.0023765094315968504 -0.00048515964134991614 -7.673460803124671e-06 -0.00048515964134991614 0.01067832712786642 -1.9061751766890356e-05 -7.673460803124671e-06 -1.9061751766890356e-05 3.353492773434119e-07" pbc="T T T"
C        0.00539477       0.00221707       3.71059875       0.00411344      -0.00550659      -0.00436546
C       -1.23953731       2.12369278       3.73533380      -0.00279995      -0.00631136      -0.00710516
C       -2.46637148       4.26775325       3.67367458      -0.00136343      -0.00419450      -0.00020001
C       -3.69884699       6.40950421       3.61274082      -0.00115749       0.01320902      -0.00213541
C       -4.93425239       8.55258293       3.64295203      -0.00205119      -0.00117963      -0.00299591
C        2.46849682       0.06573395       3.68924547       0.00030825      -0.00189259       0.00087533
C        1.19796374       2.17121397       3.76725596       0.00217582       0.00131365       0.00324910
C       -0.02881831       4.25206565       3.82349849       0.00899830       0.00603070      -0.00101656
C       -1.23437246       6.39904773       3.69467371      -0.00902997      -0.00762505      -0.00123421
C       -2.47019962       8.55857478       3.65923259       0.00529319      -0.00387526       0.00103693
C        4.93086112       0.00754112       3.69519826       0.00069307      -0.00700291       0.00047498
C        3.73386050       2.18613281       3.70340314      -0.00607046       0.00050341      -0.00965362
N        1.13892044       6.39644299       4.12923550      -0.00267357       0.00733130      -0.00696860
C        0.00185621       8.51540821       3.75549746       0.00718548      -0.00689629       0.00390936
C        7.41073583      -0.04162471       3.73125758       0.00478494       0.00384079      -0.00118298
C        6.17385639       2.13293024       3.66517212       0.00046793      -0.00274263       0.00224630
C        4.96039604       4.27246123       3.62045065      -0.00759076      -0.00465980      -0.00979529
O        3.77804248       6.39936907       3.71844609       0.00675338       0.00833239      -0.01194640
C        2.48371256       8.44608843       3.80595168      -0.00290828       0.00080066       0.00388721
C        9.86502740      -0.04423667       3.73327846      -0.00620690      -0.00178661      -0.00057605
C        8.63662329       2.11545485       3.68771645      -0.00361168       0.00310518      -0.00375163
C        7.40417607       4.26882000       3.61356968       0.00290243       0.00372346       0.00396876
C        6.16849889       6.39530461       3.59664316       0.00526026      -0.00264082      -0.00209028
C        4.93569633       8.51316268       3.69492500      -0.00401311       0.00110339      -0.00252966
C        0.00647405       1.44089900       3.74104974       0.00341369      -0.00510604      -0.00308082
C       -1.22895731       3.55279901       3.73906524       0.00720317      -0.00077664       0.00281556
C       -2.46246128       5.68935149       3.64575566      -0.01209245      -0.00186052       0.00067702
C       -3.69838757       7.84009643       3.62863133       0.00136965       0.00787491       0.00603990
C       -4.92323644       9.99924227       3.68000791       0.00451909      -0.00594649       0.00804736
C        2.46663552       1.52356328       3.72052590      -0.00177226      -0.00034626       0.00704643
O        1.14916343       3.54732483       3.88283332       0.00597783       0.00113417       0.01028547
C        0.00067329       5.68900882       3.85690210      -0.00117136       0.00746573       0.00397343
C       -1.23880247       7.82793301       3.69553719       0.00461729      -0.00941988      -0.00078646
C       -2.47533285      10.00168811       3.67964271      -0.00087101      -0.00488724      -0.00221828
C        4.92712173       1.44757242       3.68742749      -0.00482854      -0.00150446       0.00147261
O        3.77598138       3.56581062       3.71630197      -0.01382431       0.00019997      -0.01353932
C        1.21091472       7.74117501       3.89774495       0.00501252       0.00023068      -0.00538923
C        0.00216811       9.94905698       3.72235602       0.00739360      -0.00387815       0.00822081
C        7.39961391       1.40171284       3.69187219       0.00243345       0.00237885      -0.00293597
C        6.16712659       3.56211455       3.62183637      -0.00027901      -0.00132414      -0.00010615
C        4.96112397       5.68762256       3.60912164       0.00230747      -0.00315048      -0.00245576
C        3.73466163       7.78231091       3.73664120      -0.00345055       0.00438448       0.01130360
C        2.47240274       9.89297683       3.75681043      -0.00194154      -0.00088898       0.00509104
C        9.87243915       1.40039130       3.71793989      -0.00903429      -0.00013361       0.00117057
C        8.63924980       3.54712637       3.65111363      -0.00087695       0.00053208       0.00898298
C        7.40597981       5.68718775       3.59601921       0.00634669       0.00622769       0.00524264
C        6.17792197       7.82546725       3.63845688      -0.00315262      -0.00166816      -0.00802050
C        4.93429896       9.94995379       3.71643104      -0.00323575       0.00122041       0.00618662
Hg       2.37890016       5.26052249       5.76474412       0.00647649       0.01626219      -0.00012430
