50
Lattice="12.336457 0.0 0.0 -6.168228499999997 10.683685154694365 0.0 0.0 0.0 15.0" Properties=species:S:1:pos:R:3:forces:R:3 energy=-438.7435959293697 free_energy=-438.7435959293697 stress="0.0012638466437848617 0.002554446553571759 -8.205304504317891e-06 0.002554446553571759 0.0011555065691300488 2.7160247853672503e-07 -8.205304504317891e-06 2.7160247853672503e-07 -5.5781969477594864e-06" pbc="T T T"
C       -0.00373576       0.00729084       3.68309934      -0.01242824       0.00109614       0.00797419
C       -1.21352720       2.16008919       3.72950818      -0.00136598       0.00085330       0.00849040
C       -2.44130480       4.28260793       3.75123222       0.00175616       0.00240854      -0.00250243
C       -3.70595432       6.40984834       3.69990670       0.00298853      -0.00964141       0.00480034
C       -4.95014582       8.54501391       3.64472388       0.00078750      -0.00603298      -0.00787528
C        2.46080925       0.00174101       3.73733542      -0.00325049      -0.00219320      -0.00445793
C        1.25123509       2.16354391       3.69563976       0.00101243       0.00057107      -0.00492043
C        0.05380156       4.33208651       3.72664658       0.00426181      -0.00114957      -0.00747356
C       -1.23400861       6.42123324       3.77802649       0.00678258       0.00007253      -0.00078696
C       -2.47375147       8.54756661       3.75897236       0.00056468      -0.00058390      -0.00996524
C        4.93367621       0.00210867       3.78409437       0.01494045       0.00766741       0.00804902
C        3.70108659       2.12989217       3.70512107      -0.00309482      -0.00349752      -0.00739458
N        2.50724000       4.22851775       3.42408078      -0.00115627      -0.01300340      -0.00863819
O        1.14564170       6.47323965       3.93158721       0.00771048       0.00336760      -0.00176684
C       -0.00918505       8.54811669       3.78163030      -0.00508456       0.00108014       0.00769411
C        7.40713094      -0.00370035       3.78810491       0.00213577      -0.00310985       0.00873896
C        6.17887290       2.13285491       3.75967885      -0.00028882       0.00657245      -0.00472738
C        4.94762543       4.25282859       3.52330603      -0.00573040      -0.00561675      -0.00924583
P        3.57551419       6.31526591       2.53866082       0.00149697       0.01631763       0.00585900
C        2.43980424       8.51698410       3.65458898      -0.00569364       0.01532039       0.00325192
C        9.86809285       0.00038082       3.71876655       0.00019950      -0.00741241       0.00065430
C        8.65012174       2.14033355       3.77020743      -0.00401047      -0.00740909       0.00230877
C        7.41568431       4.27020097       3.69926455      -0.00262159       0.00591178      -0.00415718
C        6.16717747       6.40382244       3.49633481      -0.00210536       0.00183143       0.00618990
C        4.91201676       8.53607862       3.51990014       0.00194870      -0.00478198       0.00852050
C        0.01331189       1.44484066       3.70927021      -0.00156889       0.00375713       0.00931753
C       -1.18405803       3.59827986       3.74135413       0.00207451       0.00295900       0.00430834
C       -2.46508277       5.69892796       3.74539238       0.00780589       0.00035441       0.00908748
C       -3.71353130       7.83635885       3.70292366       0.00258352      -0.01100664      -0.00689815
C       -4.94278191       9.97288417       3.68900811      -0.01089715      -0.00240025      -0.00015979
C        2.47033917       1.42880018       3.72219935      -0.00242010      -0.00333018      -0.01124084
C        1.30959865       3.60108851       3.62138034       0.00124163      -0.00362765      -0.00754393
C       -0.01767256       5.74057088       3.80532799       0.00422027      -0.00183908      -0.00895126
C       -1.24561916       7.84342613       3.78189050      -0.00193145      -0.00017647       0.00587497
C       -2.47337232       9.97557711       3.76550020       0.00948615       0.00591307      -0.00429689
C        4.93732201       1.42636936       3.75925997       0.00306024       0.00813725      -0.00019858
C        3.67556968       3.55507907       3.55284077      -0.00650325      -0.00774513      -0.00510053
C        1.18890528       7.83891663       3.75380946      -0.00333436       0.01251333       0.00660664
C        0.00090606       9.97876475       3.78830514       0.00817017      -0.00284246       0.00699282
C        7.41274092       1.42564133       3.78478895      -0.00556675      -0.00583336       0.00378999
C        6.17421386       3.55443223       3.68597079      -0.00286304       0.00454856      -0.00348305
C        4.95654983       5.65783847       3.33946209       0.00476308      -0.00333499      -0.00695759
C        3.66901603       7.83458843       3.40929692      -0.00034496       0.01284814       0.00976299
C        2.46056986       9.95386735       3.74480588      -0.00066459       0.00478671       0.00034745
C        9.88402983       1.43341912       3.74932884      -0.00008844      -0.00878060      -0.00159779
C        8.65284676       3.56444036       3.75176584      -0.00301513       0.00052149      -0.01325152
C        7.40370974       5.69376896       3.63918837      -0.00298453       0.00378142       0.00311865
C        6.15379974       7.82817939       3.52655056       0.00032606      -0.00233260      -0.00239392
C        4.92968496       9.97318756       3.64947617      -0.00408579      -0.00850317       0.01078380
Hg       2.48336477       5.49751267       7.99114492       0.00278198       0.00299373       0.00346358
