50
Lattice="12.336457 0.0 0.0 -6.168228499999997 10.683685154694365 0.0 0.0 0.0 15.0" Properties=species:S:1:pos:R:3:forces:R:3 energy=-440.6358659085025 free_energy=-440.6358659085025 stress="0.0033170379462066023 -5.853579493637354e-06 3.4977760517439933e-06 -5.853579493637354e-06 0.003181259849112479 -1.434965271703487e-05 3.4977760517439933e-06 -1.434965271703487e-05 6.7927419741031764e-06" pbc="T T T"
C       -0.00833607      -0.00168217       3.67575971       0.00026825       0.00021913       0.00124206
C       -1.23126257       2.14962238       3.67071299      -0.00704083      -0.00518291      -0.00279679
C       -2.45844145       4.27521993       3.67120166       0.00348641      -0.00216067      -0.00133632
C       -3.70379911       6.40504915       3.68125905      -0.00023916       0.00659645      -0.00942145
C       -4.94529073       8.54051332       3.68192455       0.00092245       0.00272665      -0.00143715
C        2.46446978      -0.00645996       3.67909409      -0.00284546      -0.00376519      -0.00333472
C        1.23401712       2.13509385       3.67159771       0.00206718       0.00208426      -0.00150996
C        0.03797323       4.31723021       3.67155922      -0.00157184       0.00505773       0.00669148
C       -1.22480776       6.41065332       3.67637344      -0.00601134       0.00052204       0.00173957
C       -2.46246697       8.54072767       3.68189744       0.00339394      -0.00287847      -0.00040735
C        4.93728175      -0.00147824       3.67606461      -0.00396160      -0.00130067      -0.00041617
C        3.69412104       2.13508938       3.67219480       0.00576494       0.00243517      -0.00201912
N        2.46423835       4.20513805       3.70703317      -0.00242249       0.00482503       0.00139220
O        1.17231049       6.43957328       3.70070692      -0.00505257      -0.00204777       0.00342000
C        0.00893494       8.53324373       3.67565676       0.00189619      -0.00125101      -0.00229629
C        7.40754435      -0.01234579       3.67095681       0.00163097      -0.00252337       0.00176614
C        6.15970486       2.14982132       3.66987771       0.00843592      -0.00562173      -0.00326213
C        4.89051089       4.31758690       3.67071923       0.00310142      -0.00326888       0.00510185
O        3.75732204       6.43998246       3.71017522       0.00112775       0.00120180       0.00100086
C        2.46456396       8.47436061       3.67749103      -0.00515627       0.00504252      -0.00001022
C        9.85752808      -0.01244440       3.67297434       0.00143622      -0.00179502      -0.00454719
C        8.63267831       2.13777566       3.66289653      -0.00560164      -0.00006321       0.01855550
C        7.38671285       4.27524062       3.67008552       0.00117609      -0.00120637      -0.00001618
C        6.15394341       6.41091149       3.67610018       0.00526725      -0.00121945       0.00058945
C        4.91996253       8.53350104       3.67716717       0.00001913      -0.00316286      -0.00063813
C       -0.00261411       1.43046697       3.67332986      -0.00113044       0.00074987      -0.00582371
C       -1.20235059       3.58704933       3.67103560       0.00362221      -0.00349525      -0.00189251
C       -2.46439472       5.69264534       3.67706359      -0.00340793       0.00040477      -0.00263333
C       -3.70386616       7.82981770       3.68368536       0.00142011       0.00610824      -0.00502322
C       -4.94160453       9.96928680       3.67966359      -0.00216880       0.00022985      -0.00018264
C        2.46405210       1.41969164       3.67414892       0.00458105      -0.00041299       0.00311167
C        1.28596602       3.57611853       3.67384065       0.00168942       0.00796256       0.00331269
C       -0.00205789       5.72777204       3.67594577      -0.00815652       0.00437696      -0.00165272
C       -1.23250787       7.83197381       3.67895859       0.00301259      -0.00231390      -0.00202962
C       -2.46577736       9.96955983       3.68017968      -0.00437261      -0.00488530      -0.00253835
C        4.93099700       1.43068080       3.67406286       0.00559649       0.00036968      -0.01005351
C        3.64250530       3.57611672       3.67387160      -0.00539671       0.00600753      -0.00091829
C        1.20445772       7.81254534       3.67710139      -0.00389887      -0.00089811       0.00307524
C        0.00574283       9.96859007       3.67348956      -0.00055834      -0.00008427       0.00596653
C        7.39756216       1.42718680       3.66644692       0.00276213      -0.00547328       0.00549988
C        6.13056783       3.58726210       3.66949864       0.00281208      -0.00581396       0.00221880
C        4.93128851       5.72815440       3.67646402       0.00574655      -0.00176028       0.00143112
C        3.72469859       7.81261108       3.68063931      -0.00256491       0.00412367      -0.00388588
C        2.46432265       9.92813863       3.67464465       0.00150579       0.00025955      -0.00674235
C        9.86765910       1.42696883       3.66780141      -0.00962847      -0.00246575       0.00363662
C        8.63239164       3.56199974       3.66593123       0.00089629      -0.00045897       0.01027204
C        7.39320084       5.69264570       3.67644334       0.00356847       0.00066198      -0.00253664
C        6.16116456       7.83205917       3.67941239       0.00339727      -0.00107283      -0.00134456
C        4.92301199       9.96869506       3.67494243       0.00231390      -0.00258842       0.00403612
Hg       2.56445025       5.59474575       7.56057802      -0.00173164       0.00720544      -0.00335330
