50
Lattice="12.336457 0.0 0.0 -6.168228499999997 10.683685154694365 0.0 0.0 0.0 15.0" Properties=species:S:1:pos:R:3:forces:R:3 energy=-438.9003624270337 free_energy=-438.9003624270337 stress="0.005327056767896391 -3.96796639660981e-06 1.6153274106737545e-06 -3.96796639660981e-06 0.005319933841879351 -1.3602499122218508e-06 1.6153274106737545e-06 -1.3602499122218508e-06 -1.232680935986085e-05" pbc="T T T"
C       -0.00661074       0.00134793       3.67552797      -0.00524833       0.00362020       0.00305421
C       -1.22793623       2.14916082       3.66036462      -0.00089653       0.00321778       0.00886383
C       -2.45374392       4.27159991       3.66203263       0.00674424       0.00591052       0.00180940
C       -3.70303729       6.40366173       3.67504160       0.00226111      -0.00402438      -0.00231610
C       -4.94467124       8.54143136       3.68488967       0.00173038      -0.00374792      -0.00508691
C        2.46486672       0.00790100       3.68524517       0.00614773      -0.00063038      -0.00752460
C        1.23955871       2.15445473       3.67638042      -0.00008753      -0.00167455      -0.00727423
C        0.06068014       4.30870404       3.66778584      -0.00400590      -0.00597431       0.00996979
C       -1.21512958       6.40653417       3.67049668      -0.00551000       0.00065619       0.00147777
C       -2.46231442       8.54162189       3.68034861       0.00940581      -0.00433985      -0.00272568
C        4.93707013       0.00150491       3.67447210       0.00472301      -0.00117786       0.00372876
C        3.69118923       2.15432717       3.67834234       0.00026565      -0.00328137      -0.00276181
O        2.46542515       4.21516079       3.69777193      -0.00131175       0.00227617       0.00226760
O        1.18308258       6.43697200       3.70899068      -0.01141979       0.00675755      -0.01072124
C        0.01035379       8.52910678       3.67113378      -0.00447308       0.00598095      -0.00282411
C        7.40813931      -0.01427299       3.66157256      -0.00305953      -0.00996379       0.00334602
C        6.15907165       2.14933802       3.66654370      -0.00499057      -0.00144414       0.00000547
C        4.87026305       4.30828750       3.67285996       0.00004181       0.00048279       0.00479568
O        3.74827429       6.43755248       3.69974917      -0.00010500      -0.00183188      -0.00110623
C        2.46485616       8.47331359       3.66820283       0.00520639       0.00456336       0.01129125
C        9.85908317      -0.01473256       3.66098378      -0.00210878      -0.00113592       0.00382152
C        8.63387153       2.13530007       3.65669088      -0.00162743       0.00136651       0.00616638
C        7.38434308       4.27148340       3.66645190      -0.00008351       0.00536801       0.00048396
C        6.14605812       6.40628745       3.67849287       0.00137601       0.00130002      -0.00517597
C        4.92000812       8.52936865       3.67689642       0.00229046       0.00073989      -0.00797960
C       -0.00213176       1.43281702       3.67119750      -0.00127672       0.00455150      -0.00563455
C       -1.19653877       3.58252089       3.66102218      -0.00029483       0.00044357       0.00789469
C       -2.46104328       5.69159791       3.66842830       0.00293841       0.00201583       0.00188834
C       -3.70349893       7.82997326       3.68174538       0.00698534      -0.00587730      -0.00064365
C       -4.93999464       9.97212663       3.68377222      -0.00066912       0.00053453      -0.00067958
C        2.46524839       1.43006855       3.68220068       0.00078143      -0.00055931      -0.00336359
C        1.26514084       3.55091777       3.67333696      -0.00309193      -0.00101132       0.00110794
C        0.00723708       5.73061364       3.67528520      -0.00891351      -0.00696156      -0.00642474
C       -1.23039121       7.83038720       3.67428833       0.00473403      -0.00189662       0.00150601
C       -2.46663461       9.97237718       3.68247538       0.00978884      -0.00220133      -0.00652564
C        4.93310573       1.43303402       3.67370554      -0.00333612      -0.00282113      -0.00287423
C        3.66568120       3.55067560       3.67752517       0.00271787      -0.00062230      -0.00826704
C        1.20685866       7.80844374       3.67557564       0.00126452       0.01238266      -0.00520825
C        0.00657053       9.96563716       3.66800774      -0.00299328      -0.00401215       0.00351803
C        7.40049640       1.42369845       3.66050217      -0.00424596      -0.00804869       0.00049500
C        6.12738754       3.58242374       3.66768112      -0.00004033       0.00072636       0.00443862
C        4.92394295       5.73033614       3.67710085       0.00155450      -0.00235092      -0.00164742
C        3.72333003       7.80911458       3.67427119       0.00186104       0.00130030       0.00180767
C        2.46520395       9.92515433       3.66129161      -0.00000594      -0.00022632       0.00757629
C        9.86713478       1.42324687       3.65670097       0.00027035       0.00054343       0.00714332
C        8.63355722       3.55921696       3.66086507       0.00366023       0.00832104      -0.00096599
C        7.39171992       5.69134784       3.67338609      -0.00136633       0.00435417       0.00137444
C        6.16031734       7.83010957       3.68299247      -0.00132545      -0.00109206      -0.00800331
C        4.92411705       9.96549377       3.67090732      -0.00347482      -0.00116602      -0.00055651
Hg       2.51871126       5.64795827       7.69912610      -0.00078708       0.00066009       0.00645899
