49
Lattice="12.336457 0.0 0.0 -6.168228499999997 10.683685154694365 0.0 0.0 0.0 15.0" Properties=species:S:1:pos:R:3:forces:R:3 energy=-424.14113382320033 free_energy=-424.14113382320033 stress="0.0023146744780750384 -0.0017737799170122366 -1.480258899329687e-05 -0.0017737799170122366 0.007230174771314555 -4.874318078899879e-06 -1.480258899329687e-05 -4.874318078899879e-06 7.427981527051941e-06" pbc="T T T"
C       -0.03072882       0.03996003       3.56447879       0.00322319       0.00065775      -0.00720258
C       -1.27579975       2.17005212       3.55151023      -0.00265151      -0.00046966       0.01215948
C       -2.49885265       4.30401923       3.55381251      -0.00952006       0.00970801       0.00083829
C       -3.72222261       6.44307726       3.55231519       0.00265953      -0.01889931      -0.00079897
C       -4.96133328       8.58740313       3.54680897       0.00781257       0.00378206      -0.00579039
C        2.42926077       0.06057473       3.60714877      -0.00750644      -0.00135708       0.00859177
C        1.16304088       2.20247800       3.61987653       0.00119858      -0.00552632       0.00270080
C       -0.05381464       4.30402160       3.51229106       0.00034961      -0.01221897       0.00315627
C       -1.24600708       6.41927249       3.51714654       0.00199485       0.00173759       0.01611185
C       -2.48251074       8.57593660       3.55692785      -0.00592603       0.00604581       0.00337281
C        4.90806852       0.02219107       3.71069787       0.00338014       0.00028938       0.00076364
C        3.64779235       2.13160546       4.05167007      -0.00944375      -0.00339073      -0.00021415
O        1.15353529       6.42210315       3.55112023       0.00407878       0.00825661      -0.00810774
C       -0.01020486       8.53863317       3.60961922       0.00965548      -0.00740359      -0.00821720
C        7.37683277       0.00073824       3.68988064      -0.00519284       0.00226385      -0.00072939
C        6.13199605       2.17393685       3.85328197       0.00120791       0.00981709      -0.00268358
C        4.94515770       4.39608388       4.06839631      -0.01189227      -0.01075193      -0.00104931
O        3.75040855       6.47152982       3.85109244      -0.00828958       0.01045177       0.01090381
C        2.44017116       8.48287822       3.64720416       0.00515843       0.01444207      -0.00466465
C        9.82534978       0.00274498       3.61114172      -0.00343019      -0.00656212       0.00474374
C        8.59428758       2.15820442       3.65381469       0.00111883       0.00155052      -0.00215713
C        7.37168178       4.31042830       3.69639943       0.00798178      -0.00869075      -0.01217047
C        6.15531108       6.46364848       3.65836553       0.00742924       0.00979713      -0.00141321
C        4.90062984       8.56304343       3.60902459      -0.01223716       0.00395547      -0.00626517
C       -0.03401578       1.47764206       3.56145732       0.00273767       0.00100005       0.00826774
C       -1.26067192       3.60027735       3.53049710      -0.01699315       0.00314931       0.00448929
C       -2.48817733       5.71885976       3.53048378       0.00504739       0.00069255       0.01114862
C       -3.72273324       7.87090551       3.53945546       0.00145806      -0.01186222       0.00207138
C       -4.96304417      10.02222841       3.55449215       0.00289303       0.00279107      -0.00429924
C        2.40694392       1.49341314       3.73517993      -0.00777038      -0.01603445       0.00558815
O        1.13158186       3.58581799       3.51339896       0.00871306      -0.00634624       0.00562768
C       -0.03545129       5.71701558       3.51686188       0.00883378      -0.00345665      -0.00410458
C       -1.25309430       7.84770209       3.55434649       0.00174204       0.00321382       0.00272197
C       -2.49829432      10.01178565       3.61950222      -0.00493849       0.00893511       0.00304365
C        4.89493227       1.45256909       3.87677525      -0.00170175       0.00268587      -0.00124341
P        3.60356599       3.66240759       4.91280988       0.00856147       0.00813979      -0.00598713
C        1.18402980       7.80300662       3.60873456       0.01493667       0.00360322      -0.00623682
C       -0.02172570       9.98031693       3.67395272       0.00261351      -0.01308015      -0.00698583
C        7.36236156       1.44583118       3.73116146      -0.00067761       0.00774345      -0.00169456
C        6.13341735       3.61580070       3.86835389       0.00634069       0.00241594      -0.00527705
C        4.94921796       5.79839279       3.86425861      -0.00675628       0.00423231       0.00208120
C        3.70906334       7.83895077       3.68237437      -0.01107705       0.00373562       0.00048439
C        2.43429525       9.93764963       3.64684646      -0.00586625       0.00175270       0.00752933
C        9.83290412       1.44837990       3.59722351      -0.00285982      -0.00751830       0.00311008
C        8.59884779       3.58761408       3.63007004       0.00217020       0.00119418      -0.01057742
C        7.38368054       5.73162890       3.62800450       0.00501403      -0.01428346      -0.00529410
C        6.15077659       7.87640097       3.58773226      -0.00022132       0.01373125       0.00164981
C        4.89808211       9.99682526       3.58362840      -0.00143661      -0.00338444      -0.00733812
Hg       3.96885125       3.41256251       7.56309306       0.00807807      -0.00053498      -0.00065355
