49
Lattice="12.336457 0.0 0.0 -6.168228499999997 10.683685154694365 0.0 0.0 0.0 15.0" Properties=species:S:1:pos:R:3:forces:R:3 energy=-415.53811565776385 free_energy=-415.53811565776385 stress="-0.0033975937498510285 -7.917328836097493e-07 1.258804888908854e-05 -7.917328836097493e-07 -0.005865084626355745 4.344901629093536e-06 1.258804888908854e-05 4.344901629093536e-06 -5.559493236159541e-07" pbc="T T T"
C        0.00336449      -0.01978143       3.87868919      -0.00472318       0.00112424       0.00925177
C       -1.23515525       2.11708671       3.81915325      -0.00400064       0.00125022      -0.00024881
C       -2.47266242       4.25948630       4.06465798      -0.00557485      -0.00331621      -0.00924336
C       -3.69882286       6.39910540       4.13572933       0.00503792      -0.01112581      -0.00390525
C       -4.94086654       8.52679357       3.98757846       0.00082683       0.00317787       0.01287677
C        2.46760883      -0.02688073       3.82257113       0.00165193       0.01117392       0.00474212
C        1.20693212       2.01731590       3.29478626       0.00224040      -0.00091319       0.00829654
C       -0.18239622       4.26852796       3.28039653      -0.00654310       0.00383227      -0.00262775
C       -1.26850412       6.40334389       3.78495082      -0.00519613       0.00327911       0.00064115
C       -2.45827425       8.52685126       3.98571326      -0.00147343      -0.00083071       0.00719362
C        4.93276318      -0.01956294       3.87915522       0.00247446      -0.00645401       0.00874705
C        3.72636645       2.01742010       3.30878557       0.00404116       0.01146230       0.00133863
S        1.06693634       6.46470750       2.38293772       0.00376929       0.00628606       0.00806146
C       -0.00309425       8.53886685       3.69666988       0.00035583      -0.00163326      -0.00033032
C        7.40135066      -0.01371951       3.92051371       0.00937677       0.00010884      -0.00431464
C        6.17191300       2.11698210       3.82356423      -0.00098522       0.00084709       0.00470755
C        5.11469129       4.27007514       3.30873429       0.00355048      -0.00262173      -0.00108178
S        3.85269036       6.45238335       2.42333647       0.00371307       0.00576552      -0.00729622
C        2.46710490       8.57707229       3.46694339      -0.00411680      -0.00620435      -0.00396865
C        9.87070338      -0.01416249       3.92134910      -0.00288181       0.00311345      -0.00244873
C        8.63714835       2.12104586       4.06227021      -0.00380241       0.00670322      -0.00146963
C        7.41235553       4.25916459       4.06716894       0.00150122       0.00370248       0.00557457
C        6.20600076       6.40450672       3.80052401       0.00134475      -0.00574926      -0.00182568
C        4.93910203       8.53859541       3.70614303      -0.00261565      -0.00106386       0.00180882
C       -0.00272956       1.40179321       3.69724377      -0.00549765      -0.00211402      -0.00575737
C       -1.26840511       3.53691670       3.78607069      -0.00501388       0.00005710      -0.00198861
C       -2.47288440       5.68153229       4.06480803      -0.00060644      -0.00788105      -0.01309947
C       -3.69943211       7.81943402       4.06394550       0.00118133      -0.00877632      -0.00756167
C       -4.93456659       9.95358415       3.91831504       0.00085896       0.00861399       0.00006809
C        2.46648849       1.36275882       3.46384432       0.00512191       0.01107257      -0.00585699
S        1.06441806       3.47508505       2.38117260       0.01332749      -0.00587971       0.00345736
C       -0.18283008       5.67161301       3.27864863      -0.00628290       0.00044049       0.00668369
C       -1.23513169       7.82306482       3.81928335      -0.00363964       0.00399151      -0.00761991
C       -2.46582631       9.95424487       3.91949128      -0.00299279       0.00001527      -0.00891027
C        4.93886483       1.40203363       3.70189609      -0.00086609      -0.00131647       0.00467006
S        3.85076102       3.49019552       2.42458089      -0.00035169      -0.00097109      -0.01019599
C        1.20737104       7.92348529       3.29569824       0.00028232      -0.00706696       0.00782575
C        0.00243379       9.96035278       3.87890106       0.00983161      -0.00264199       0.00614418
C        7.39546931       1.41348421       3.98635088      -0.00170845       0.00171471       0.00686123
C        6.20613217       3.53641165       3.79674252       0.00636830      -0.00015621       0.00037295
C        5.11526851       5.67221506       3.30919361      -0.00121456      -0.01003010       0.00061412
C        3.72723874       7.92270372       3.31167499      -0.00383099      -0.00251086       0.00223374
C        2.46748918       9.96638864       3.82711201       0.00396190      -0.00385589      -0.00598967
C        9.87819741       1.41326406       3.98577669      -0.00347305       0.00423785       0.00565841
C        8.63806776       3.54155199       4.13442741      -0.00393339       0.00450819      -0.01026155
C        7.41204400       5.68122554       4.06978018       0.00528408      -0.00281033      -0.00590742
C        6.17177411       7.82364934       3.82852037       0.00141206      -0.00112347      -0.00567448
C        4.93342943       9.96042398       3.88138428      -0.00614029       0.00080198       0.00787345
Hg       2.44649556       5.60591296       8.30753517      -0.00004900      -0.00023341       0.00188116
