49
Lattice="12.336457 0.0 0.0 -6.168228499999997 10.683685154694365 0.0 0.0 0.0 15.0" Properties=species:S:1:pos:R:3:forces:R:3 energy=-428.49137538840336 free_energy=-428.49137538840336 stress="0.0008290795076024289 0.0015981560054802617 -2.9225543317601865e-06 0.0015981560054802617 -0.0015900968224008315 1.542059599344403e-05 -2.9225543317601865e-06 1.542059599344403e-05 3.858855623770302e-06" pbc="T T T"
C        0.02238397      -0.01211544       3.78240762       0.00207168      -0.00313349      -0.00323706
C       -1.21307815       2.12151930       3.59351700      -0.00568946       0.00506874      -0.00756642
C       -2.46874743       4.26845923       3.77337821       0.00621632      -0.00572346      -0.00812097
C       -3.69648977       6.39972922       3.94632118       0.01081088       0.00690047      -0.00542805
C       -4.92935100       8.52882416       3.93084440      -0.00539794      -0.00003247       0.00912052
C        2.48952516       0.00518081       3.87769679      -0.00116628       0.00347072       0.00303496
C        1.28244467       2.07153846       3.39685588       0.00657346      -0.00717732      -0.00032361
C       -0.13390915       4.27355217       3.08668361       0.00261909       0.01204330       0.00523171
C       -1.24053702       6.41982088       3.70327234       0.00368139       0.00094307       0.00722020
C       -2.45196597       8.53578608       3.88440291      -0.00906505       0.00495099      -0.00362201
C        4.94377789      -0.00108635       3.91708735      -0.00172723      -0.00766318       0.00288229
C        3.75083894       2.13473659       3.92129280       0.01463016       0.00320905       0.00040500
S        1.27574877       6.54911062       2.29407817      -0.00029990      -0.00687247      -0.00628370
C        0.00719677       8.55732120       3.66154714      -0.00570945       0.00492608      -0.01665909
C        7.41838042       0.00506266       3.86618233      -0.00336886       0.01358908       0.00176490
C        6.19336716       2.12472840       4.01109815       0.00325644      -0.01421338       0.00690755
C        4.96154873       4.21125604       4.06112670       0.00466180      -0.01495367       0.00978684
B        3.60948295       6.33738422       3.85460052      -0.00223251      -0.00617533      -0.01252048
C        2.48487035       8.57143726       3.68293040      -0.00182489      -0.00032165       0.01094427
C        9.89553844       0.00217881       3.82100551      -0.00531555      -0.00388537      -0.00285694
C        8.66099849       2.13512473       3.88407311      -0.00267752       0.00195345       0.00664092
C        7.41182123       4.26278422       4.01137496       0.00203685       0.00111977      -0.01226336
C        6.15807508       6.37497107       3.98416274      -0.00857495      -0.00193790       0.00398524
C        4.93757485       8.52739386       3.86588863       0.00306831      -0.00343171       0.00376665
C        0.03442892       1.41462907       3.57840327      -0.00210727       0.00077490       0.00267660
C       -1.26858085       3.53658581       3.49547227       0.00673705       0.00498239       0.00116354
C       -2.46011216       5.69310717       3.83543144       0.00885897      -0.00441481      -0.00241704
C       -3.69130185       7.82206435       3.93551877      -0.00438086       0.00619419       0.00192639
C       -4.91573892       9.96231660       3.86639643       0.00060005      -0.00300868       0.01376042
C        2.50838542       1.44428208       3.75859507       0.01581214       0.00299810      -0.00147427
S        1.32871804       3.54020063       2.41724530      -0.00698078       0.01102159       0.01216169
C       -0.05049594       5.65713904       3.35236490       0.00324222       0.00755075       0.00778138
C       -1.21991241       7.82888531       3.74352930      -0.00781716       0.00233992      -0.00705477
C       -2.45188852       9.96887977       3.91057418      -0.00751661       0.00233407       0.00967919
C        4.94842428       1.43023588       3.97465151       0.00583509      -0.00963549       0.00513351
O        3.77419848       3.50435841       4.11881523      -0.00261683       0.00112198      -0.00138992
C        1.25068750       7.92200141       3.40589188      -0.00136280       0.00614205      -0.00902929
C        0.01301169       9.97663579       3.84144037       0.00078292       0.00551212      -0.00411776
C        7.42180208       1.42629660       3.94152249       0.00200046       0.00524382       0.00227229
C        6.18620860       3.53168626       4.05762502       0.00350086      -0.01685785      -0.00669947
C        4.93930526       5.61030187       3.98740388      -0.00448586      -0.01687854       0.00570352
C        3.68748182       7.84783073       3.78450019       0.00239873      -0.00322754       0.00007875
C        2.48469190       9.99412439       3.81232635      -0.00968844       0.00514801      -0.00167443
C        9.90158536       1.42547727       3.78238180      -0.00603406       0.00124533       0.00386718
C        8.64697414       3.55568483       3.91264087       0.00323886      -0.00064797      -0.00085297
C        7.40390529       5.68125183       4.00042740       0.00219230       0.00987896      -0.01510523
C        6.16789352       7.80627918       3.93329629      -0.00290704      -0.00230139      -0.00014990
C        4.95320290       9.96297627       3.82807149       0.00101141      -0.00363535      -0.00673226
Ir       1.91502338       5.23062041       3.86836538      -0.00689014       0.00546610      -0.00231652
