49
Lattice="12.336457 0.0 0.0 -6.168228499999997 10.683685154694365 0.0 0.0 0.0 15.0" Properties=species:S:1:pos:R:3:forces:R:3 energy=-437.3819794211669 free_energy=-437.3819794211669 stress="-0.007621838028852752 0.0040099913241097235 3.113275702169727e-06 0.0040099913241097235 -0.00011681666472322499 -8.15784264639129e-07 3.113275702169727e-06 -8.15784264639129e-07 2.591417150197162e-06" pbc="T T T"
C        0.00381595       0.00418477       3.60134999      -0.00022386       0.00314092       0.00610274
C       -1.22317865       2.14004860       3.47337453      -0.00496267      -0.00440183      -0.00724598
C       -2.47506455       4.28058498       3.70198029      -0.00835074       0.00010968      -0.00385066
C       -3.72096743       6.41893018       3.88088031      -0.00662639       0.00774130      -0.00590549
C       -4.95074418       8.55752241       3.80528337       0.00307328       0.01057522       0.00873836
C        2.46356279       0.03053770       3.82620010       0.00159102       0.00222250       0.00174179
C        1.28291294       2.10251613       3.32348288      -0.00204026       0.00644019      -0.00083452
C       -0.10605234       4.38378440       3.24554788       0.00618035      -0.00775449       0.00222168
C       -1.31313590       6.46853122       3.74719188      -0.00337501      -0.00218965      -0.00891435
C       -2.49832520       8.57756172       3.93380311      -0.00071168      -0.00455438      -0.01052751
C        4.93647486       0.00625605       3.97169106      -0.00396826       0.00031735       0.00021922
C        3.73828890       2.17521041       3.92147405      -0.00373978      -0.00356007       0.00225542
N        1.06348548       6.40796672       3.78034137       0.01144174      -0.00580287      -0.00119252
C       -0.02634497       8.54231661       3.90067483       0.00068855       0.00074317       0.00540462
C        7.41644066      -0.03011204       3.88346121       0.00130215       0.00071150      -0.00493324
C        6.20868508       2.09990526       4.00508544       0.00617526       0.01029468      -0.00711835
C        5.01947660       4.20961632       4.00148015      -0.00320081      -0.00060831       0.00497714
B        3.70154908       6.31315196       3.64942742       0.00610286       0.00006749       0.00294448
C        2.44748829       8.50076347       3.75973264      -0.00336724      -0.00720537       0.00149536
C        9.87171115      -0.02077148       3.66970699      -0.00573664       0.00376631       0.00743545
C        8.66253524       2.11637524       3.79660310      -0.00001642      -0.00027657       0.00541060
C        7.43612028       4.25441319       3.93206059       0.01130599      -0.00067045       0.00377942
C        6.18549800       6.39880205       3.83402589       0.00926494      -0.00694377       0.00479405
C        4.92669455       8.53103693       3.66550667       0.00375422      -0.00245107       0.00123319
C        0.01922492       1.43126112       3.43776315      -0.00052565      -0.00098908      -0.00356910
C       -1.25656386       3.57852782       3.45226825      -0.00804387      -0.00405564      -0.00584047
C       -2.50275945       5.70866942       3.79254819      -0.01212901       0.00442807      -0.01054701
C       -3.72375193       7.85003338       3.88913456      -0.00289050       0.00572534      -0.00442573
C       -4.93711899       9.98886702       3.74179010       0.00380733       0.00827824       0.00384494
C        2.48381891       1.46548842       3.70451795      -0.00440822       0.00053315      -0.00139907
P        1.38291685       3.71672856       2.46265831       0.00520193       0.00308642       0.00266874
C       -0.11392631       5.77869596       3.53774264       0.00597248      -0.00224560       0.00069733
C       -1.27291464       7.86931519       3.89407175       0.00082951      -0.00113368      -0.00872564
C       -2.48255025      10.00041260       3.94039619      -0.00260090      -0.00588348       0.00047837
C        4.95950590       1.42523291       3.99432155       0.00431780       0.00306535      -0.00780159
N        3.83737342       3.54089498       4.04189136      -0.00947776      -0.00397129       0.00134300
C        1.19153113       7.78125552       3.83472549       0.00066191      -0.00315565       0.00782376
C        0.00089067       9.95961497       3.93937955      -0.00138799       0.00245982      -0.00145917
C        7.43658021       1.39249706       3.91141654       0.00357889       0.00240790       0.00296124
C        6.23752142       3.50635947       4.01484373       0.00604052       0.01103496       0.00427024
C        5.01087892       5.61775917       3.84920561       0.00428552      -0.00198808      -0.00020585
C        3.67851667       7.82655969       3.65650042       0.00055990      -0.00311310       0.00621446
C        2.46750587       9.93754434       3.77292114      -0.00269798      -0.00592038      -0.00222939
C        9.89082855       1.41323451       3.64362515      -0.00549117       0.00312217      -0.00345190
C        8.66068287       3.54613571       3.82629650       0.00170110      -0.00533278      -0.00184533
C        7.41156489       5.68620682       3.89650752       0.00548411      -0.00494762       0.00481664
C        6.16051317       7.82915983       3.75274026       0.00849446      -0.00175034       0.00353382
C        4.93757289       9.96300423       3.63078897      -0.00397637       0.00429827       0.00769168
Ir       2.34862484       4.89595763       4.02629892      -0.01186665      -0.00366443      -0.00307485
