49
Lattice="12.336457 0.0 0.0 -6.168228499999997 10.683685154694365 0.0 0.0 0.0 15.0" Properties=species:S:1:pos:R:3:forces:R:3 energy=-433.54998931489655 free_energy=-433.54998931489655 stress="-0.008640056979537411 -0.001515416463307615 2.812657443746579e-06 -0.001515416463307615 -0.007729778651365854 -2.2794116690559817e-06 2.812657443746579e-06 -2.2794116690559817e-06 1.7405779215466483e-06" pbc="T T T"
C       -0.00516076      -0.01258539       3.87162632      -0.00659507       0.00133095       0.00075866
C       -1.25325314       2.12070856       3.84500922      -0.00725702       0.00400655      -0.00621977
C       -2.48340716       4.27016401       3.65672943      -0.00050869       0.00282684       0.00423587
C       -3.68738636       6.41501754       3.59522147       0.00571262       0.00383851       0.00181319
C       -4.92849679       8.54511431       3.73839742       0.00802990       0.00372190       0.00608686
C        2.46871119      -0.03158500       3.88369666       0.00618926       0.00009745      -0.00034002
C        1.23448551       2.08406389       4.04313482      -0.00229998      -0.00425493       0.00531752
C       -0.09863503       4.28633357       4.00075624      -0.01236649       0.00603152       0.00449108
C       -1.26127159       6.42127016       3.83216780      -0.00121723       0.00290447       0.00390835
C       -2.46333471       8.54454848       3.78791226       0.00026241      -0.00569061       0.00122601
C        4.93435372      -0.00184942       3.74600735      -0.00077102      -0.00040584      -0.00929637
C        3.66648194       2.07486949       3.63423510       0.00543910       0.01346907      -0.00069972
B        1.27164922       6.35238591       4.22863547       0.00987600      -0.00900365      -0.00953745
C        0.00374958       8.54867852       3.90796899      -0.01076367      -0.00776021      -0.00085211
C        7.39435043       0.00665324       3.72968923       0.00353381      -0.00399789      -0.00587414
C        6.15961987       2.12961971       3.44328944      -0.00437208       0.00264948      -0.00038809
C        5.04007979       4.31917496       3.18105206      -0.00408607       0.00187636      -0.01309788
B        3.74165172       6.37147717       3.83095798      -0.00316770      -0.00602084      -0.01193494
C        2.46557966       8.56719387       3.91323333       0.00464776      -0.00030502      -0.00147267
C        9.86191730       0.00105072       3.78078416       0.00781147       0.01046688       0.00725348
C        8.62935588       2.13271027       3.58893372      -0.00222769      -0.01045224       0.01318491
C        7.42958526       4.27677096       3.38894636       0.00183974      -0.00650693       0.00359550
C        6.22245232       6.43683862       3.49404286      -0.00493473      -0.00021399      -0.00053709
C        4.94120165       8.55372253       3.77313752       0.00374743       0.00126841       0.00467627
C       -0.01115929       1.41165140       3.94730523      -0.01030853      -0.00044997      -0.00629141
C       -1.27713240       3.54072190       3.82649320      -0.00746190       0.00296265      -0.00111549
C       -2.47413712       5.69626397       3.67319172       0.00587493       0.00569483       0.00519485
C       -3.69263222       7.83525258       3.70262594       0.00568401       0.00046695       0.00414620
C       -4.93778500       9.95837426       3.85541359       0.00157089       0.00362953       0.00453419
C        2.45899365       1.38896001       3.91197865       0.00772403       0.00404049       0.00767916
B        1.21768236       3.57052072       4.25722510      -0.00499852       0.00397313      -0.01033230
C       -0.07935595       5.67426858       4.00014583      -0.00428394       0.00339954       0.00256891
C       -1.23640632       7.84113112       3.84818816      -0.00837466      -0.00429233       0.00222057
C       -2.46242325       9.96491076       3.81580692       0.00319099      -0.00643196      -0.00500463
C        4.92492090       1.42645835       3.58854779       0.00000361       0.00606790      -0.00501960
S        3.46706025       3.66457554       2.99727806       0.01156895      -0.00607921      -0.00424723
C        1.24525585       7.85855778       4.02210058      -0.00119345      -0.00307989       0.00069767
C       -0.00139642       9.97437788       3.79205058      -0.00381660      -0.00617887       0.00133773
C        7.38898153       1.42649718       3.57128131      -0.00447996      -0.00524071       0.00152198
C        6.20356600       3.54339364       3.27417913      -0.00620414       0.00148657      -0.00344030
C        5.02646590       5.69291875       3.41201305      -0.00735145      -0.00204449       0.00279091
C        3.69824013       7.87723115       3.84795202       0.00475969      -0.00816731       0.00292053
C        2.45920394       9.98880910       3.80594886       0.01245030       0.00676073       0.00066182
C        9.85728823       1.42061733       3.73109067       0.00019462       0.00421306       0.00107222
C        8.63925532       3.55568254       3.52295392       0.00415485      -0.01039648       0.00711015
C        7.43576803       5.70245516       3.45884633       0.00043418       0.00028179      -0.00312749
C        6.18275737       7.84579997       3.67583913       0.00521308       0.00394176      -0.00049985
C        4.93260968       9.97457925       3.81168673      -0.00260393       0.00381576       0.00216952
Ir       2.62749264       4.93219354       4.70901189       0.00173086       0.00175030      -0.00384559
