49
Lattice="12.336457 0.0 0.0 -6.168228499999997 10.683685154694365 0.0 0.0 0.0 15.0" Properties=species:S:1:pos:R:3:forces:R:3 energy=-428.33179323922747 free_energy=-428.33179323922747 stress="-0.0060888723893441 -0.0006153390883076609 1.9371384289746595e-05 -0.0006153390883076609 -0.001505673849923965 -1.6488096677984929e-06 1.9371384289746595e-05 -1.6488096677984929e-06 3.1979112676814743e-07" pbc="T T T"
C       -0.00581093       0.00490045       3.97274022      -0.00466668       0.00189129       0.00053095
C       -1.26188053       2.11337175       4.15628730       0.00400699       0.00481108       0.00837490
C       -2.48894884       4.27078035       4.17394526      -0.00379253       0.00711633       0.00581698
C       -3.69130849       6.42098455       4.02307429       0.00091471      -0.00067163      -0.00095545
C       -4.93084339       8.56407014       3.92962935       0.00022448      -0.00387567      -0.00927503
C        2.45803757       0.03862309       3.88463623       0.00001676      -0.00302491      -0.00451372
C        1.19027826       2.13455398       3.91683112      -0.00780834       0.00310398      -0.00699150
C       -0.09323304       4.24380171       4.06110060      -0.00134231      -0.00329579      -0.00490475
C       -1.24633584       6.40725790       3.95218393       0.00667576       0.00352894      -0.00458510
C       -2.46337833       8.55809772       3.93082036      -0.00182411      -0.00006985       0.01335405
C        4.92329884       0.01670302       3.79577788       0.00631489      -0.00050808      -0.00497200
C        3.68690236       2.11190028       3.39677452      -0.01131447      -0.00156214       0.00251476
S        1.06283131       6.36618434       2.56982427       0.00890420      -0.00300730      -0.00616542
C       -0.01476301       8.54941392       3.70892016      -0.00271837       0.00418341      -0.00527475
C        7.39255304      -0.00288148       3.83305647      -0.00547413      -0.00217977       0.00690461
C        6.18196077       2.12970909       3.61868359      -0.00165109       0.00253076       0.00307766
C        5.15608224       4.29521247       3.06191771       0.00293662      -0.00485729       0.00171127
B        3.76102626       6.38889918       3.37173894       0.00728853       0.00080783      -0.00762620
C        2.45242219       8.55157622       3.60464938      -0.00499719       0.00511409       0.00310683
C        9.85642614      -0.01241242       3.94690421      -0.00625430      -0.00573375      -0.00178648
C        8.62076979       2.12942205       4.00692087       0.00258063      -0.01071019       0.00604677
C        7.43611824       4.27656650       3.82759789       0.00620478       0.00546293      -0.00271923
C        6.23448078       6.42997192       3.66027850       0.00277278       0.00051215       0.00270620
C        4.93851864       8.55430278       3.76036494       0.00051264      -0.00037784       0.00343501
C       -0.01599705       1.42979660       4.04175668      -0.00199565       0.00578250      -0.00219513
C       -1.28000544       3.52944744       4.22497557      -0.00182807       0.00721484      -0.00000694
C       -2.46944072       5.69549374       4.10846925       0.00293389       0.00563300      -0.00403723
C       -3.69699312       7.84837890       3.97839351      -0.00095740      -0.00326262       0.00021176
C       -4.93437556       9.99651741       3.94555146      -0.00353027      -0.00097487      -0.00319481
C        2.44328105       1.48617686       3.74038816      -0.01177689      -0.00234469      -0.00675580
O        1.11760109       3.52564808       4.12149189      -0.00722204      -0.00255536      -0.01029397
C       -0.07714366       5.61010250       3.76268770       0.00800962      -0.00149927      -0.00100453
C       -1.23935505       7.83314437       3.84235831      -0.00120772       0.00404024      -0.00047470
C       -2.47823074       9.99695914       3.87256046       0.00540495      -0.00124815      -0.00450296
C        4.92795328       1.43965551       3.60497312      -0.00511088       0.00158991       0.00732212
S        3.80478001       3.49427962       2.28119815       0.01448532       0.00341412      -0.00230687
C        1.21013868       7.88978426       3.43325460      -0.00454589       0.00471305       0.00017364
C       -0.01044242       9.97960222       3.79875531       0.00267988      -0.00082908       0.00302450
C        7.39086216       1.42419418       3.84580118      -0.00292744      -0.00448205       0.00137311
C        6.25825898       3.54181108       3.48783702       0.00515265       0.00324460       0.00700135
C        5.08591773       5.66921684       3.29088145       0.00700112      -0.00602620       0.01490015
C        3.69606853       7.86929033       3.57544046       0.00001405       0.00316646       0.00724142
C        2.45415136       9.97221017       3.82342951      -0.00938263       0.00059567      -0.00160589
C        9.85262410       1.40953739       4.07316467       0.00707446      -0.00849031      -0.00128340
C        8.62966439       3.55423752       4.04839815      -0.00107625      -0.00354758       0.00311008
C        7.43614996       5.70491733       3.86265654       0.00313540       0.00325015      -0.00003419
C        6.18471273       7.85056790       3.79755073       0.00152280      -0.00180853       0.00127736
C        4.92992446       9.97128073       3.91291277      -0.00379017      -0.00240807       0.00001230
Ir       2.50208454       4.91528949       3.31517490       0.00042690      -0.00235633      -0.00576172
