50
Lattice="12.336457 0.0 0.0 -6.168228499999997 10.683685154694365 0.0 0.0 0.0 15.0" Properties=species:S:1:pos:R:3:forces:R:3 energy=-442.0462014947907 free_energy=-442.0462014947907 stress="-0.003304907565599828 0.003828931087257864 -2.534817601205574e-06 0.003828931087257864 -0.002356591108497413 1.753074133319959e-05 -2.534817601205574e-06 1.753074133319959e-05 -6.546850913347716e-06" pbc="T T T"
C       -0.05189837      -0.00107113       3.87832750       0.00210522      -0.00380716      -0.01060450
C       -1.25749917       2.15196173       3.92963509      -0.00337898      -0.00690737       0.00113367
C       -2.48350645       4.28429555       3.95039831       0.00309058       0.00268101       0.00346846
C       -3.73660406       6.41812947       3.92220761      -0.00328404      -0.00747879       0.00489030
C       -5.00580660       8.53404498       3.84660863       0.00488412       0.00122304      -0.00618010
C        2.40902069       0.00202623       3.98610952      -0.00051218       0.00140942       0.00156126
C        1.20195240       2.15625973       3.80197712      -0.00592102      -0.00305115       0.00111496
C       -0.03876285       4.29421565       3.56994288      -0.00243437      -0.00214705       0.00158118
C       -1.28969910       6.43193949       3.65393752      -0.00607026       0.00998735       0.00687094
C       -2.52217644       8.55585131       3.91505286       0.00174152       0.00002840      -0.00593261
C        4.88302508       0.00537999       4.14759842      -0.00466973      -0.00613951      -0.00535990
C        3.67214789       2.12106820       4.05564712      -0.00350337      -0.00123448      -0.00220464
B        2.52105119       4.30210361       3.45087605       0.00820518       0.00460825      -0.00391063
S        1.03739224       6.56720430       2.36618325      -0.00429077      -0.00531600       0.00841010
C       -0.08210154       8.60315130       3.73025545       0.00755552       0.00257863       0.00195223
C        7.35932831       0.01841454       4.11289081       0.00395610      -0.00789090       0.00632748
C        6.14823354       2.12301050       4.27092802       0.00603419       0.00482213      -0.00739791
C        4.98277031       4.19192330       3.85182414      -0.00539231       0.00443983      -0.01044661
S        4.78819848       5.42487241       1.39933823       0.00768392       0.01561642      -0.00862603
C        2.37749663       8.64203103       3.56339670      -0.00110463       0.00403426       0.00133262
C        9.83760321       0.01524792       3.96678525       0.00311647       0.00084392      -0.00286533
C        8.62036645       2.14391006       4.16680691       0.00578051       0.00657438      -0.00820475
C        7.40515982       4.27023006       4.07969280       0.00463067       0.00163381       0.00007797
C        6.16262728       6.38340885       3.65501893      -0.00559178      -0.00223914      -0.00348456
C        4.85181039       8.52946979       3.65626600      -0.00781572      -0.00002522      -0.00568483
C       -0.03406755       1.43267720       3.87086095      -0.00402971      -0.00724511       0.01096363
C       -1.25971341       3.57715240       3.84038401      -0.00170243      -0.00636822       0.00057778
C       -2.50225982       5.70751415       3.87745638      -0.00407060       0.00056578       0.00037665
C       -3.76318699       7.83855461       3.89335078       0.00317493      -0.00448110       0.00969921
C       -4.99436223       9.96256850       3.89621871       0.00520056       0.00192923       0.00475392
C        2.42395680       1.42834625       3.95314715      -0.00551711      -0.00074910      -0.00466853
C        1.19048531       3.57791545       3.59377792       0.00461801       0.00148216       0.00886228
C       -0.12407525       5.69457916       3.32711021      -0.01485208       0.00397038       0.00102761
C       -1.29940745       7.85864013       3.73915424       0.00592697       0.00802480       0.01026484
C       -2.52276529       9.97954228       4.03172038      -0.00516296      -0.00418866       0.00284049
C        4.90167391       1.42059117       4.21665445       0.00071991      -0.00252791      -0.00072883
C        3.76055619       3.52071517       3.85921550      -0.00152438      -0.00257988      -0.01102417
C        1.12953312       8.02693741       3.32139317       0.00587674       0.01139490      -0.00856402
C       -0.05294410       9.99691398       4.04930526      -0.00071731      -0.00567081       0.00476088
C        7.38110238       1.43055114       4.24193698       0.00769832      -0.00222770      -0.00311003
C        6.18474136       3.54044690       4.15030104      -0.00054953       0.00869440      -0.01128741
C        5.09465759       5.48756062       3.18429129      -0.00148248       0.00032808      -0.00393041
C        3.58490172       7.93815446       3.43811071      -0.00507362      -0.00283575       0.01419161
C        2.41889268      10.02311564       3.93338106       0.00489505      -0.00555363       0.01557124
C        9.84969430       1.43951403       4.05234628       0.00034989      -0.00050270       0.00289220
C        8.63054429       3.56616938       4.10739986       0.00751936       0.00747866       0.01201838
C        7.37642518       5.69434764       3.91033275      -0.00144681      -0.00648117       0.00168146
C        6.09855069       7.79539469       3.69092612      -0.00211534      -0.00018882      -0.00637987
C        4.88231664       9.96989673       3.83872954      -0.00093911       0.00169226      -0.00015411
Ir       3.17289978       6.09782800       2.76544941      -0.00161112      -0.00820418      -0.00845357
