50
Lattice="12.336457 0.0 0.0 -6.168228499999997 10.683685154694365 0.0 0.0 0.0 15.0" Properties=species:S:1:pos:R:3:forces:R:3 energy=-447.78733078790987 free_energy=-447.78733078790987 stress="-0.0026755148540032925 0.004281974914277988 -1.721250487670745e-05 0.004281974914277988 -0.003857470395906888 4.359356665954152e-06 -1.721250487670745e-05 4.359356665954152e-06 2.339441676123185e-06" pbc="T T T"
C       -0.04953628      -0.01002170       3.84582783       0.00766619      -0.00260831      -0.00499982
C       -1.24943576       2.15104250       3.88528532      -0.00094601      -0.00377903       0.00362203
C       -2.47061867       4.28524802       3.86138340      -0.00354040       0.00193527       0.00004550
C       -3.72787129       6.41290344       3.79823401      -0.00116867       0.00233656      -0.00357893
C       -5.00249800       8.52642021       3.76309233       0.00418238      -0.00285580      -0.00156102
C        2.41442535      -0.00832587       3.87998822      -0.00161092      -0.00626047       0.00116820
C        1.20241612       2.13286736       3.73093182       0.00311304       0.00735886       0.00061829
C       -0.01041677       4.29422588       3.68080859      -0.00074651       0.00671048       0.00055906
C       -1.25822725       6.43142996       3.84243210       0.00390056      -0.00291068      -0.01379563
C       -2.52991560       8.55174417       3.95016190       0.00823525       0.00042212      -0.00454043
C        4.88793278       0.00155304       4.07053097       0.00205726       0.00552202      -0.00155791
C        3.68605373       2.10668803       3.79445694       0.00053066      -0.00536633       0.01253735
B        2.49343169       4.29673690       3.38706378       0.00519921      -0.00295701       0.00579491
C        1.16426295       6.53414092       3.61314651      -0.00352320       0.00495980      -0.01030584
C       -0.07651206       8.57371186       4.08146376       0.00133590      -0.00423643      -0.00330615
C        7.36470413       0.01955613       4.18291612       0.00322478       0.00640595      -0.00152372
C        6.15632449       2.12060028       3.99476711       0.00295638       0.00551526       0.00644018
C        4.99165516       4.17467967       3.46362112      -0.00066690       0.00463897       0.00625495
S        4.41359777       5.76501019       1.27762536      -0.01052640       0.00060426       0.00340688
C        2.39591669       8.60815209       4.00972714      -0.00571787      -0.00655416      -0.00570197
C        9.84654627       0.01482778       4.04345263      -0.00040744      -0.00087773      -0.01065082
C        8.62536202       2.14774451       4.04208025      -0.00595712       0.00256232      -0.01076134
C        7.41326124       4.26463503       3.79239344       0.00096427      -0.00565847      -0.00969516
C        6.16467033       6.38771836       3.42998948      -0.00819102      -0.00359619       0.00367687
C        4.85666621       8.52268885       3.72834552      -0.00483432      -0.00204178       0.00244567
C       -0.03143795       1.42210828       3.82702085       0.00749755       0.00118000       0.01334138
C       -1.24135752       3.57863582       3.81835300      -0.00259177       0.00024061       0.00859104
C       -2.48329676       5.71084873       3.83922767      -0.00067738       0.00198062      -0.00761245
C       -3.75818689       7.83248328       3.82989222       0.00675959       0.00229623      -0.00434400
C       -4.99166639       9.95333297       3.82746434       0.00191848      -0.00625522      -0.00470355
C        2.43154027       1.41253392       3.80084432      -0.00056610      -0.00450611       0.00172704
C        1.18579150       3.55668694       3.60420956      -0.00323430       0.00776888      -0.00048181
C       -0.00207926       5.73506401       3.69553550       0.00760454       0.00348332       0.00667921
C       -1.29255579       7.84778989       3.97009642       0.00531851      -0.00547770      -0.00191256
C       -2.52026080       9.97151466       3.97933583       0.00110860       0.00057022       0.01409942
C        4.91342698       1.41302509       3.97932062       0.00336507       0.00709676       0.01237988
C        3.77461958       3.49767706       3.55690497       0.00504085      -0.00980221       0.01410846
C        1.16020699       7.89453817       3.95728785      -0.00375073      -0.01081137      -0.00198236
C       -0.04957086       9.98802920       4.15324466       0.00042301       0.00339182       0.00649154
C        7.38469203       1.43396437       4.11348497       0.00161062       0.00580709       0.00145409
C        6.19412069       3.52724682       3.77927133       0.00311294      -0.00445425      -0.01416979
C        5.06276232       5.53608590       2.92676134      -0.00215512       0.00312632      -0.01109869
C        3.57952638       7.91923623       3.72002943      -0.01532065       0.00138419       0.00270407
C        2.43415614      10.01701237       4.14740340       0.00131233      -0.00181356       0.00979717
C        9.85706026       1.44182699       4.01807800      -0.00848829      -0.00178086       0.00043037
C        8.63715413       3.56679622       3.92057525      -0.00300312       0.00132148       0.00565752
C        7.38470273       5.69255260       3.67051879      -0.00297536      -0.00248757      -0.00213319
C        6.10047526       7.79225303       3.60516087      -0.00180440       0.00264361      -0.00639867
C        4.88598293       9.96293990       3.88777185       0.00520846      -0.00163534      -0.00862407
Ir       3.00027799       6.16454590       2.93314059      -0.00124241       0.00746353       0.00140877
