49
Lattice="12.336457 0.0 0.0 -6.168228499999997 10.683685154694365 0.0 0.0 0.0 15.0" Properties=species:S:1:pos:R:3:forces:R:3 energy=-437.5431039340427 free_energy=-437.5431039340427 stress="-0.008983713805002557 -1.9628931835982863e-06 -4.447166061079312e-06 -1.9628931835982863e-06 0.0033116084853532955 -8.912076544371278e-07 -4.447166061079312e-06 -8.912076544371278e-07 -1.1395484330369975e-07" pbc="T T T"
C       -0.00036184       0.01257767       3.77596443      -0.00541169       0.00246193      -0.01289407
C       -1.26078862       2.11097350       3.60346987       0.00784040       0.00109407      -0.00406428
C       -2.50653282       4.26489956       3.50742324      -0.00426965       0.00308120       0.00424488
C       -3.71454120       6.42379695       3.61470775      -0.00799195      -0.00410280       0.00636107
C       -4.92825543       8.57620332       3.76952875      -0.00115544      -0.00233573      -0.00170177
C        2.47826480       0.06135398       3.80919293      -0.00886146      -0.00129023      -0.01503968
C        1.22339247       2.17479944       3.71945017       0.01204997      -0.00006315      -0.00468593
C       -0.09529399       4.27713839       3.45936459      -0.00196273      -0.00176717      -0.00373812
C       -1.29959384       6.43711285       3.47090065      -0.00475443      -0.00917292      -0.00168937
C       -2.48138949       8.57788021       3.67916292      -0.00095734       0.00191710      -0.00664167
C        4.93534838       0.00847813       3.80778094       0.00297773       0.00491899      -0.00450348
C        3.74074500       2.15591419       3.94765836       0.00139504      -0.00165091       0.00345268
C        1.12376424       6.38540798       3.61423989       0.00738407       0.00029943       0.00103685
C       -0.01219096       8.53541901       3.69259760       0.00269800      -0.00042304      -0.00297526
C        7.41500010      -0.04677591       3.79342149       0.00174111      -0.00153484      -0.01776564
C        6.19356732       2.11506191       3.82906891      -0.00575340       0.00228342       0.00130116
C        5.02869479       4.28135719       3.98254492       0.00874609       0.00058087       0.01629814
O        3.86218392       6.42269542       4.24940612      -0.00882645       0.01587032       0.00820143
C        2.49361704       8.45802858       3.84562761       0.00503152       0.00002950      -0.00903589
C        9.86408353      -0.04183381       3.77798587      -0.00627937      -0.00020906      -0.01068971
C        8.63257640       2.10927150       3.67941364      -0.00722601       0.00823200       0.00191878
C        7.40793783       4.27117908       3.69903948      -0.00166998      -0.00120183      -0.00429611
C        6.20495755       6.42614235       3.82816749       0.00831746      -0.00310809       0.00146756
C        4.94950977       8.53292528       3.87607773       0.00545322      -0.00084861      -0.00304095
C       -0.01246738       1.43096426       3.69280978       0.01191575       0.00482317       0.00095774
C       -1.29960832       3.52954390       3.46947787      -0.00308746       0.00165311       0.00948700
C       -2.50632015       5.70157039       3.50736104      -0.01132988      -0.00293380       0.01073536
C       -3.70404598       7.85691456       3.67999306      -0.00226045      -0.00168686       0.00329363
C       -4.92079059      10.01341052       3.79195436      -0.01121349      -0.00153444      -0.00617988
C        2.49395260       1.50874421       3.84460633       0.00250930      -0.00477612      -0.00034804
C        1.12452962       3.58083513       3.61182376      -0.00672230       0.00144442       0.00806340
C       -0.09563147       5.68919554       3.46049389       0.00473283       0.00037684      -0.00561845
C       -1.26049342       7.85579023       3.60224077      -0.00115049      -0.00798390       0.00633417
C       -2.47251006      10.00807500       3.77549853      -0.00125846       0.00636914      -0.00051906
C        4.94977787       1.43362538       3.87664411      -0.00125722       0.00113335      -0.00168617
O        3.86206695       3.54378861       4.25290480       0.00510855      -0.01627511      -0.00406487
C        1.22347439       7.79147711       3.72001872       0.00638000       0.00363683       0.00079819
C       -0.00085567       9.95380200       3.77534380       0.00374795       0.00115451      -0.00553322
C        7.40828977       1.39027336       3.76804480      -0.00670355       0.00246339       0.01014740
C        6.20471378       3.54053494       3.82558176       0.00414579       0.00069095       0.00872543
C        5.02933325       5.68487446       3.98441024       0.00676951       0.00441075       0.00974407
C        3.74055581       7.81057798       3.94530628       0.00347538       0.00196274       0.01180657
C        2.47779651       9.90543974       3.81098630      -0.00175255      -0.00533524      -0.01184967
C        9.85515526       1.38827464       3.68003583      -0.00223858       0.00460939      -0.00217713
C        8.62166242       3.54256079       3.61399597      -0.00270384       0.00796560       0.01060617
C        7.40798182       5.69573186       3.69921288       0.00147487      -0.00848017       0.00425784
C        6.19324942       7.85161805       3.83004811       0.00480264      -0.00394521       0.00523343
C        4.93569362       9.95789223       3.80826344      -0.00414264      -0.00014985       0.00104629
Ir       2.36718834       4.98302748       3.89546778       0.00224365      -0.00265395      -0.00478081
