49
Lattice="12.336457 0.0 0.0 -6.168228499999997 10.683685154694365 0.0 0.0 0.0 15.0" Properties=species:S:1:pos:R:3:forces:R:3 energy=-436.406497447596 free_energy=-436.406497447596 stress="-0.007282353423890753 -1.771527456883957e-06 1.3308707833320088e-06 -1.771527456883957e-06 -0.0019854156453652824 -4.819358517598626e-06 1.3308707833320088e-06 -4.819358517598626e-06 -1.119888656748876e-06" pbc="T T T"
C       -0.00166698       0.01620874       3.59647580      -0.00315019      -0.00673828      -0.00960571
C       -1.24804385       2.12152694       3.42631484       0.00329599      -0.00222572       0.01194271
C       -2.48196978       4.27363090       3.29675118      -0.00464201      -0.00344379       0.00236033
C       -3.70182520       6.42904429       3.36198906      -0.00076130      -0.01074314      -0.00472251
C       -4.93226832       8.57013254       3.57710383       0.00351678       0.00869107       0.00721075
C        2.46715297       0.03881814       3.65395913      -0.00119019      -0.00836620       0.00770876
C        1.21418112       2.15590786       3.83660269       0.00461676       0.00239013       0.00282358
C       -0.10727978       4.23957524       3.85489556       0.00610866       0.00128322       0.00238899
C       -1.29247396       6.42126236       3.68440097       0.01781610       0.00715092       0.00493328
C       -2.47014847       8.57004094       3.57018440      -0.00990387       0.00893158       0.00073881
C        4.93563970       0.01555041       3.59216179       0.00454147      -0.00096960      -0.01021743
C        3.72027574       2.15565581       3.84182088      -0.00527977       0.00138463       0.00553221
P        1.02202438       6.36844955       5.12073796      -0.00565193       0.00779890      -0.00842180
C       -0.01455384       8.56920070       3.87312325      -0.00778066       0.00331092       0.00515797
C        7.40601200      -0.01024451       3.55502247      -0.00064815       0.00456986      -0.00535412
C        6.18225212       2.12126400       3.43477369      -0.00146214      -0.00002904       0.00834470
C        5.04335877       4.23851521       3.87552150      -0.00043941      -0.00084154      -0.00621919
P        3.90513712       6.36992152       5.12708533      -0.00264307      -0.00085948       0.01087452
C        2.46661065       8.59378703       4.11021134      -0.00059561      -0.00484381       0.00617471
C        9.86442618      -0.00959384       3.55661387       0.00194482      -0.00321159       0.00016517
C        8.63490637       2.11978161       3.27950519       0.00286361       0.00455167       0.00531146
C        7.41602974       4.27354481       3.30778992      -0.00127947      -0.00130355      -0.00873161
C        6.22671011       6.42132794       3.69924814      -0.01201876       0.00487044       0.01134586
C        4.94897819       8.57064634       3.88428329       0.00916260       0.00010808      -0.00184392
C       -0.01477931       1.43150912       3.59324847       0.00677099      -0.00715955      -0.00345564
C       -1.27862996       3.53945605       3.43466239      -0.00571258      -0.00413549       0.00486945
C       -2.48660542       5.70531473       3.38285021       0.01305170       0.00028001      -0.01058604
C       -3.70142483       7.85663078       3.48162150      -0.00466540      -0.00235630       0.00833740
C       -4.92958144      10.00017543       3.61448852      -0.00168064       0.00047420      -0.01445631
C        2.46724403       1.46264045       3.80647960      -0.00204062      -0.00585768       0.00728788
C        1.06726957       3.52320752       4.13314558       0.00399573       0.01238108       0.00063970
C       -0.17887149       5.63925043       4.05111884      -0.00015037      -0.01120048       0.00364637
C       -1.25151686       7.85310333       3.72194095      -0.00449908       0.00880877       0.00788853
C       -2.47287446       9.99994850       3.60809241       0.00090721       0.00244066       0.00341287
C        4.94884591       1.43088609       3.59717971      -0.00427768       0.00027225      -0.00257959
C        3.86721924       3.52167958       4.14541532      -0.00396585       0.01303013      -0.00279459
C        1.20325779       7.94346798       4.27096557      -0.00644757      -0.00326584      -0.00533371
C       -0.00154355       9.97910300       3.64378610       0.00081808       0.00173310      -0.00088921
C        7.40944885       1.40335009       3.37011880      -0.00046122       0.00593163      -0.00007335
C        6.21372757       3.53910359       3.45153500       0.00736988      -0.00574492       0.00236362
C        5.11548735       5.63853707       4.07161396       0.00124914      -0.01298786      -0.00917320
C        3.72985456       7.94489447       4.27777825       0.00448198      -0.00499622      -0.00722772
C        2.46702224       9.97319288       3.70588213      -0.00029908       0.00212270      -0.00424528
C        9.86068408       1.40366263       3.36821545       0.00556642       0.00007936      -0.00562793
C        8.63500384       3.55236884       3.22616851      -0.00338966       0.00004039      -0.00558269
C        7.41970575       5.70546261       3.39160170      -0.01114502      -0.00208582      -0.00163783
C        6.18583933       7.85356559       3.73495157       0.00158752       0.00723807      -0.00108582
C        4.93556473       9.98012231       3.65031830       0.00048200      -0.00502119      -0.00186378
Ir       2.46358080       4.66396152       5.10496467       0.00603385      -0.00148666       0.00026933
