49
Lattice="12.336457 0.0 0.0 -6.168228499999997 10.683685154694365 0.0 0.0 0.0 15.0" Properties=species:S:1:pos:R:3:forces:R:3 energy=-437.0336295111754 free_energy=-437.0336295111754 stress="-0.010162252189558454 -0.002878807306901197 -5.6607514363089516e-06 -0.002878807306901197 -0.0005101097257926366 -4.015846221224054e-06 -5.6607514363089516e-06 -4.015846221224054e-06 -3.1186946163649555e-07" pbc="T T T"
C       -0.00160774       0.00056134       3.64947991       0.00058246       0.00240486       0.00090862
C       -1.27620893       2.10061427       3.59146941      -0.01140955      -0.00597161      -0.01265756
C       -2.49929325       4.26281310       3.56628914      -0.00940599      -0.00181898      -0.01351663
C       -3.69255179       6.41937925       3.59602890      -0.00066227       0.00512235       0.01774136
C       -4.91647332       8.57225031       3.64568598      -0.00100310       0.00372234      -0.00952415
C        2.46034831       0.04978597       3.72527101       0.00338858       0.00585408      -0.00131578
C        1.17266952       2.11983849       3.76812798       0.00324888       0.00500866       0.00760814
C       -0.11679386       4.24135843       3.68520259       0.00214096      -0.00225632      -0.00132076
C       -1.26768329       6.40962927       3.65006502      -0.00118411      -0.00403807      -0.00685706
C       -2.46894548       8.57114740       3.67891777      -0.00609904      -0.00298009      -0.00662907
C        4.93368447       0.00786149       3.78515869      -0.00409684      -0.00690941      -0.00641710
C        3.69994493       2.17643023       3.86264964      -0.00591376      -0.00100410       0.00674864
C        1.13987881       6.38257385       3.84778729       0.00068873       0.00989447      -0.01492603
C       -0.00653039       8.53399318       3.77996469       0.00337220       0.00394728      -0.00128788
C        7.40657576      -0.03742383       3.77726687       0.00573518       0.01221900      -0.00421150
C        6.17704443       2.12701635       3.80380271       0.00144164      -0.00529238      -0.01309718
C        4.98868163       4.31975192       3.93797053      -0.00062171       0.00123361      -0.01122304
O        3.92745517       6.49059841       4.26871216       0.00626537       0.01322786      -0.00557753
C        2.49851121       8.47533502       3.86259106      -0.00021389      -0.00201583       0.00172496
C        9.85615713      -0.03946346       3.69831736      -0.00857855      -0.01166397      -0.00386526
C        8.61835575       2.11346189       3.66060950       0.00479949       0.00500310      -0.00006529
C        7.40678942       4.27454773       3.68225623       0.00784719       0.00258767       0.00182046
C        6.22591261       6.44497647       3.71529286       0.00575130      -0.00288970      -0.00708816
C        4.96364800       8.55035357       3.73258624       0.00140180      -0.01022417       0.00870626
C       -0.03201873       1.41530563       3.64119170      -0.00031497       0.00348733      -0.00405170
C       -1.29436000       3.51976526       3.56007793      -0.00624798      -0.00019444      -0.01072279
C       -2.47591050       5.69035944       3.58745854      -0.00667564      -0.00107825       0.00050652
C       -3.68809603       7.85112402       3.62832739      -0.00417973       0.00004959       0.00861111
C       -4.92475265      10.00531833       3.66898312       0.00710191       0.00421193       0.00416961
C        2.43301000       1.48958085       3.79602833      -0.00334072       0.00131250       0.01379864
O        1.02018363       3.49647337       4.01653740       0.01671130      -0.00381476       0.00166853
C       -0.05059181       5.64504930       3.73015372       0.00679029       0.00102821       0.00419731
C       -1.24386516       7.83718856       3.70285444       0.00006487       0.00048081      -0.00324893
C       -2.47459194      10.00178345       3.73295237      -0.00576621      -0.00460581       0.00329167
C        4.93852208       1.42921664       3.82622919      -0.00585950      -0.00592566       0.00056703
C        3.79344164       3.57690797       3.95165405      -0.00347701      -0.00168475       0.01094082
C        1.23119974       7.78708858       3.84232172       0.00320300       0.00468592      -0.00571963
C       -0.00230555       9.95570787       3.78857612       0.00651929       0.00474078       0.00305645
C        7.40098390       1.39367736       3.74649459       0.01023282       0.00777448      -0.00609939
C        6.20326747       3.55575678       3.81162289       0.00475086      -0.00033112      -0.00864385
C        5.05843099       5.72609797       3.92267365       0.00042650       0.00488423       0.00481389
C        3.76080041       7.84945040       3.89723753      -0.00171941      -0.00441511       0.00161568
C        2.47179474       9.91600481       3.77657127      -0.00605352      -0.00538451       0.01380199
C        9.84702109       1.39249585       3.63378089      -0.00917324      -0.00535011       0.00703395
C        8.62160195       3.54486566       3.61741181       0.00052531      -0.00067354       0.00972710
C        7.42869222       5.70119530       3.64097202       0.00477716       0.00103407       0.01082713
C        6.20674707       7.86445567       3.68205812       0.00350135      -0.00407212       0.00999963
C        4.93318583       9.96462779       3.67758901      -0.00559289      -0.00820549      -0.00136416
Ir       2.48543386       5.00166163       4.10345826      -0.00367883      -0.00111486       0.00554495
