50
Lattice="12.336457 0.0 0.0 -6.168228499999997 10.683685154694365 0.0 0.0 0.0 15.0" Properties=species:S:1:pos:R:3:forces:R:3 energy=-120619248.46645987 free_energy=-120619248.46645987 stress="207771.5496496501 6877.281567160638 87262.04753113398 6877.281567160638 146097.35395698244 64749.37066108697 87262.04753113398 64749.37066108697 156395.9924033309" pbc="T T T"
C       -4.32727516       0.34496458       4.85007803 -277904736.55791438 -209021635.84961283 68053605.31801885
C        2.22407490     -15.00198497      10.34122167       6.99619419    1317.70779942   -1530.93962806
C        9.47237871       0.19291464       4.38577360 -16659332.01171006  135274.94419133 -1622879.80192955
C        1.76227139      11.14182151       4.88368605 246349024.10519454 121847053.59508781 -90289159.43192396
C      -14.65548133       3.07906967      -4.68935732     451.28156547    1099.63576899    1042.51213111
C        3.48253737       1.03016391       3.85313395  126104.37847245  -60493.37918766   18643.52470213
C        1.23102020     -10.92410214       5.70735326 -4930689.40792278 -24087836.32548924 8857778.21534450
C       -3.04548966       2.71564217      -2.36218877     -11.11593449     -12.24497736      11.63862729
C      -10.14783003       9.23258816       4.76746229 378069195.82973051 319594166.75409710 521445257.18076587
C        2.25581546      16.66372965      -3.97234235      -2.62730538       5.41193246       9.96838671
C        2.00846311       4.65788192      -1.09676196       0.04998676       0.30105650      -0.16518842
C        9.65292750       6.17509731     -10.38731568   98451.27234447  126334.55241173  -29873.14235148
C       18.45298121      12.18334226       4.68914597  207310.81476484   99916.83578355   64847.47022257
P        0.61166739       9.28455500       3.95133483 179689281.63516450 231092770.29928175 479535980.73527336
C       -8.72765266       2.59581297       6.61782053    8231.35500815  -14401.71160531  -12075.77570318
C       11.81950205      -0.02453006      -1.01629826     -24.30479687       1.33042452      60.81946811
C        8.21530750       1.52756592      -1.88211136     524.34096869    2121.13925139   -5076.74306712
C       -2.95229916       2.47668129      10.47819370     -89.31425504   -1630.93982739   -1545.19104635
S        1.22156454      11.78017396       4.56926022 2197086.39189088 -12280028.43012883 -12935344.26814731
C        8.66928811       4.67868961       7.07700451    3358.34432420  -13500.59740918    2634.33591281
C        1.97472360      -5.74109335      11.92058229      -6.59325596      10.36124704      10.89385183
C        8.19073316      -7.80349422       2.26460160    4399.50356443   -1397.61174563    1176.38471160
C        5.87528458       1.36790036       2.99746850  264430.39996332 -1151659.93399442 -597744.10392380
C        3.02116909      10.94771503       5.11118870 -732004.54953890 -2596610.37790610 2956574.47021321
C       21.83776601      11.14776619      14.49408436     541.01597277     884.95239279     941.24090659
C       -7.20738361       2.56309260       4.85313200  -66741.60068466 -230361.02867657  -25230.41287619
C        4.15688307       5.29920183       6.06198443   28181.67835575  -44982.33864724   13079.89782780
C       -3.50267892      -0.67094164       5.84945391 14859578.56082795   84972.04697441 -11310138.57612947
C        2.10105840      10.12219706       6.11565401 -27427534.74757266  738241.76654993 -8908080.97034073
C       -3.98005775      19.91195054       4.76976315 -510838939.25700861 -203952255.05370855 -580423426.65615869
C      -10.48043013       2.96656026       6.35155841    5910.78226327   -3653.38564060   -2524.01933709
C        1.47247434       2.04785929       2.43264953   -2387.99221119   -3265.82002057    4059.03663501
C       -4.43442260       9.72414458      -1.62540217      -0.74551528       1.33623297       3.36636121
C       -5.14596414       2.11696487       7.21786164  -74076.10655356  -30882.80846763  467001.87420709
C      -10.09194489      10.80641507       5.92888247 9328892.71429816 -2250807.30691627 -6003730.60843604
C       -1.31286510      -4.45041500      -0.55507010       5.09053039       2.25439497      -0.43494238
C        0.53977903      -3.61672995      14.29762650      -3.97061802      -4.78624237      -2.59756781
C        1.12543553       9.42270952       4.30254424 -256656090.89183366 -62797023.20867404 26655172.72787578
C        0.60661572      10.33758998       4.18499190 30655545.45720349 -16903959.97902437 16115373.11101356
C       14.91218169      13.42400852      -6.96516556   15712.59519800   50554.65570461   24935.52297439
C        7.55410815      -0.46130084       3.28896947 -6654122.45019166 -3837179.92112351 50345228.30361532
C        0.64915443      10.07204438       5.15671571 -6181886.63987356 -32262220.77974618 -47940424.57811801
C        7.17587724       3.17632226       9.15999999    6367.21718179  -10360.54448838   -7560.14303990
C        1.71815645      11.92639211      -1.06800566     959.32644706    3860.78067189   -9504.88757550
C        4.81707827       4.74050596       9.66836008     132.10390039    -103.38576767    -148.65525925
C       15.51102456      13.99685765      -7.44431593    -116.89515252  -59367.65014168  -23312.34966596
C        9.51213895       5.21536035      10.40716633     -22.52600732    -110.52196136    -126.27840825
C       19.63079441       5.69989704      -2.16468611       0.22884334       0.41284415       1.00521657
C       -0.96735215      11.39828852       5.16162925 1555107.46350672 -1562279.01146832 -843971.92923861
Ir       0.77358066       9.45005490       4.23536615 244654029.37219030 -100600566.14150023 -413570016.89425999
