50
Lattice="12.336457 0.0 0.0 -6.168228499999997 10.683685154694365 0.0 0.0 0.0 15.0" Properties=species:S:1:pos:R:3:forces:R:3 energy=-453.47873711507066 free_energy=-453.47873711507066 stress="-0.004468188336583149 -0.0011558090548794062 -1.017059645721897e-06 -0.0011558090548794062 -0.003129954212474867 -8.203105796888248e-06 -1.017059645721897e-06 -8.203105796888248e-06 2.371019475660977e-06" pbc="T T T"
C       -0.00132731      -0.00270560       3.61991702       0.00313686       0.00277491      -0.00161829
C       -1.24431607       2.12914889       3.66101972       0.00059978       0.00117081       0.00632587
C       -2.47782324       4.26534843       3.66113427       0.00175818       0.00218032       0.00564122
C       -3.70269902       6.40798686       3.62156626       0.00217970      -0.00011479      -0.00944198
C       -4.92873579       8.54874203       3.60637446      -0.00829253      -0.00472299      -0.00088316
C        2.46694128      -0.00390831       3.61583701       0.00365632      -0.00166654      -0.00265241
C        1.22428826       2.11785873       3.71438926      -0.00094550      -0.00330140      -0.00461858
C       -0.01382391       4.26369318       3.84557644      -0.00242140       0.00245221       0.01529131
C       -1.25354709       6.40914455       3.71615254      -0.00336445      -0.00319378      -0.00331459
C       -2.46949625       8.54615055       3.61725244      -0.00038227       0.00350013      -0.00585490
C        4.93310666      -0.00272078       3.62432080       0.00039683       0.00149473       0.00759581
C        3.69698654       2.12930528       3.71024461       0.00122693      -0.00241804      -0.00066160
C        2.44957787       4.18646637       4.12717372      -0.00029626      -0.00980286       0.00168266
C        1.15046353       6.43583626       4.12744162       0.00610002       0.00014877       0.00750000
C       -0.00685754       8.54455411       3.70998341      -0.00199147       0.00038958       0.00048413
C        7.40095161      -0.00960833       3.65888558      -0.00347008       0.00140165       0.00705620
C        6.16104800       2.13790734       3.65822311      -0.00126318      -0.00155822       0.01339580
C        4.91894420       4.29130088       3.83177213       0.00130663       0.01284870       0.00317680
N        3.84413403       6.49133723       4.14563466      -0.01542131      -0.00922065      -0.00057289
C        2.47654431       8.52176876       3.83055723       0.00771737      -0.00615316       0.00877041
C        9.86424101      -0.00961224       3.65658616      -0.00672833      -0.00157006      -0.00165758
C        8.62655286       2.12968163       3.63378274       0.00886599       0.00894446       0.00316084
C        7.39236658       4.27149401       3.65514262      -0.00241858      -0.00615758       0.00321958
C        6.18278283       6.42237845       3.68683062       0.00651003      -0.00504667      -0.00779111
C        4.95380875       8.55146455       3.68621765      -0.00056052       0.00062925      -0.00358253
C       -0.00765214       1.41739456       3.65522138       0.00123486       0.00245048      -0.00497361
C       -1.24756015       3.55142004       3.70644792      -0.00167900       0.00173185       0.00751929
C       -2.47601853       5.69236328       3.65647274       0.00106617      -0.00195235      -0.00407099
C       -3.69858239       7.83241768       3.60630265      -0.00238169       0.00194719       0.00186617
C       -4.93394383       9.97226282       3.60603394       0.00098616      -0.00360446      -0.00611087
C        2.46288887       1.41757991       3.67809150       0.00028068      -0.00335179       0.00109870
C        1.20598410       3.53964133       3.88621705      -0.00807220      -0.00437431      -0.00026194
C       -0.03152312       5.68210019       3.88736894      -0.00315047      -0.00132197      -0.00201033
C       -1.24050811       7.83197507       3.68027501      -0.00318197      -0.00203040      -0.00595247
C       -2.46762334       9.96956184       3.61113885       0.00502246       0.00372061      -0.00539185
C        4.93083237       1.42217792       3.65322042      -0.00304962      -0.00073579       0.00250251
C        3.70252013       3.55422311       3.88321994       0.00881341       0.00133649      -0.00916839
C        1.22995211       7.83664413       3.88195345       0.00494353       0.00825118      -0.00470722
C       -0.00219442       9.96653291       3.65227706      -0.00428198      -0.00079787       0.01020371
C        7.39399661       1.41805302       3.63778585       0.00623816       0.00489698      -0.00003733
C        6.15628151       3.56675232       3.69877343      -0.00452745      -0.00158986       0.00353855
C        4.96422095       5.71821426       3.86522882       0.00340366       0.00441931      -0.00462356
C        3.73491408       7.84793538       3.86497137       0.00369131      -0.00287603      -0.00745447
C        2.46775508       9.95570566       3.69930770      -0.00565125      -0.00365591       0.00321565
C        9.86039802       1.41603778       3.63774856       0.00292937       0.00106895      -0.00190243
C        8.62520705       3.55510309       3.63655610       0.00215177       0.00745834       0.00188918
C        7.40260148       5.69599628       3.64447381       0.00392057      -0.00658473      -0.00061385
C        6.17951953       7.83978507       3.65715190      -0.00647089      -0.00606339      -0.00824142
C        4.93470214       9.97093237       3.64431570      -0.00119375       0.00378580      -0.00182396
Ir       2.52799908       5.73088312       5.25808911       0.00305943       0.01486290      -0.00514008
