49
Lattice="12.336457 0.0 0.0 -6.168228499999997 10.683685154694365 0.0 0.0 0.0 15.0" Properties=species:S:1:pos:R:3:forces:R:3 energy=-434.98712693453143 free_energy=-434.98712693453143 stress="-0.006506774048598747 -0.0020288131090818173 5.1970443789950725e-06 -0.0020288131090818173 0.00010017404105329791 -2.9032519093790635e-07 5.1970443789950725e-06 -2.9032519093790635e-07 4.864030097858567e-06" pbc="T T T"
C       -0.00499475      -0.00372984       3.85754793       0.00378502       0.00680414      -0.00705527
C       -1.26702412       2.11411775       4.10007869       0.00287970      -0.00685754      -0.01531823
C       -2.50939803       4.26537852       3.93256007      -0.00105793      -0.00571085      -0.00462242
C       -3.69293730       6.41739790       3.64516144       0.00111492       0.00700031       0.01002328
C       -4.91916321       8.56618128       3.62989797      -0.00190354       0.00327130       0.00023309
C        2.46919896      -0.00690722       3.77643758       0.00301764      -0.00795106      -0.01005049
C        1.24422957       2.07519015       4.20297800      -0.00287118       0.00059481      -0.00511355
C       -0.17260817       4.32266118       4.52755912      -0.00690931       0.00160146       0.01453908
C       -1.30603937       6.43518833       4.01676416       0.00130782       0.00924903       0.01302627
C       -2.46956081       8.55495787       3.73149587       0.00174717       0.00837524       0.00635242
C        4.93684541      -0.00621260       3.65039218       0.00748701       0.01017007      -0.01140273
C        3.66412796       2.09483113       3.48218566      -0.00097382       0.00178032      -0.00962387
C        1.12121317       6.38649399       4.17021281      -0.00848172      -0.00289143      -0.00304988
C       -0.00363899       8.52887499       3.82621737       0.00038321      -0.00656269      -0.00602281
C        7.40512910      -0.03418268       3.68062925      -0.00326966      -0.00511786       0.00291693
C        6.16575305       2.12686063       3.43444359       0.00635754      -0.00558216       0.00593011
C        5.03436055       4.34682405       3.11095565      -0.00229109       0.00597883       0.00525471
N        3.88192529       6.41804414       3.48960317      -0.00697884      -0.00392790      -0.01208599
C        2.48033105       8.47165786       3.75531453       0.00398050      -0.00636489      -0.00260066
C        9.85935970      -0.03195792       3.78755947      -0.00681633       0.00722659       0.00283982
C        8.62403965       2.11733967       3.72663402       0.00062410      -0.00585673       0.00643550
C        7.42274518       4.27312692       3.47685929      -0.00054487      -0.00951823      -0.00427851
C        6.25061226       6.46290382       3.32991578       0.00099457       0.00187059       0.00414392
C        4.95838232       8.54576928       3.60171618       0.00326908       0.00736468       0.00054209
C       -0.01341835       1.41193829       4.08469534      -0.00002815      -0.00260061       0.01096991
C       -1.31079482       3.54408562       4.22429183       0.00105845      -0.01021830      -0.00884728
C       -2.49944640       5.69597309       3.86604181      -0.00060435       0.00820084       0.01117390
C       -3.69331553       7.84380127       3.65884475      -0.00052220       0.01009028       0.00170994
C       -4.93484161       9.98003155       3.76563731       0.00076171      -0.00262791       0.00948056
C        2.46195657       1.41875194       3.85155696      -0.00332504      -0.01181966      -0.00696452
P        1.36067256       3.62320623       5.12694835      -0.01244914       0.00054972      -0.00984649
C       -0.11481536       5.72111138       4.30704873       0.00493995       0.00056264      -0.00052348
C       -1.24937858       7.84182412       3.84572594      -0.00314470       0.00457059       0.01322673
C       -2.46559134       9.97497023       3.70798818       0.01122592       0.00618086      -0.01046448
C        4.92630802       1.42408029       3.49745457       0.00392724       0.01157113      -0.00753508
S        3.51896162       3.62193324       2.61248732      -0.00930422      -0.00547466      -0.00854619
C        1.23475469       7.77804789       3.90139063       0.00265789      -0.00872844       0.00483705
C        0.00185134       9.94775242       3.70489118      -0.00259344      -0.00463760      -0.00891476
C        7.39210684       1.40451126       3.60095917       0.00556855      -0.01033060      -0.00763566
C        6.19626754       3.55684152       3.30526886      -0.00684138      -0.00757041       0.01104257
C        5.04025492       5.75583773       3.21664090       0.00013789       0.00274120       0.01032300
C        3.74026663       7.78576629       3.62327615       0.00420620      -0.00631852       0.00382966
C        2.46895180       9.91544445       3.73381312      -0.00205778       0.00008972      -0.00361555
C        9.85415291       1.40091712       3.87682918      -0.00287436       0.00218268       0.00494081
C        8.62574287       3.54897471       3.70621140       0.00311709      -0.00497981      -0.00078624
C        7.43914501       5.70426787       3.45954779       0.00253722      -0.00084718       0.01003557
C        6.19702637       7.86411734       3.50652344       0.00058441       0.00388609       0.00157819
C        4.93499746       9.95916926       3.75663659      -0.00068442       0.01136759       0.00255967
Ir       2.59268971       5.01438482       4.07089029       0.00885667       0.00921431      -0.00304065
