49
Lattice="12.336457 0.0 0.0 -6.168228499999997 10.683685154694365 0.0 0.0 0.0 15.0" Properties=species:S:1:pos:R:3:forces:R:3 energy=-440.29350905957625 free_energy=-440.29350905957625 stress="-0.010483662877653921 5.4833243289227504e-05 4.726758841860543e-07 5.4833243289227504e-05 0.00240695267862047 2.9387991252674097e-07 4.726758841860543e-07 2.9387991252674097e-07 6.442818728748191e-07" pbc="T T T"
C        0.00285859       0.01665863       3.74934543       0.00282155      -0.00332019       0.00496947
C       -1.25802660       2.11284291       3.73991001      -0.00513366      -0.00044553      -0.00353669
C       -2.48722422       4.26755092       3.73207183      -0.00475989      -0.00625422      -0.00450672
C       -3.70213526       6.42128991       3.73885032      -0.00042513       0.00733457       0.00063248
C       -4.92369864       8.57827072       3.74940343       0.00728853       0.00520275       0.00075672
C        2.46138237       0.06954561       3.75254288       0.00654707      -0.00120688      -0.00582721
C        1.20101999       2.15763652       3.75531047       0.00206847      -0.00028577      -0.00234993
C       -0.10626271       4.28072693       3.73396863       0.00642378       0.00606859      -0.00098166
C       -1.28359362       6.42803317       3.73097541       0.00392286      -0.00559095       0.00001860
C       -2.48171017       8.57712111       3.74033629      -0.00118834       0.00067706       0.00603219
C        4.93260338       0.00669885       3.74962482      -0.00086476       0.00272257       0.00680105
C        3.72910794       2.18988663       3.76819319      -0.00100913      -0.00006507       0.00194111
N        1.09836359       6.37253154       3.75880706       0.00717458       0.00103380       0.00134825
C       -0.01698060       8.52186283       3.74824912      -0.00239061      -0.00446204       0.00502138
C        7.40425672      -0.04622722       3.74908558      -0.00554880       0.01088878       0.00976368
C        6.18844440       2.10713779       3.75648524       0.00577629      -0.00455081       0.00378107
C        5.01816960       4.24553624       3.78607414      -0.00544770      -0.00531083      -0.00204756
C        3.81483290       6.40544478       3.80022197      -0.00256745       0.00152141      -0.01044149
C        2.45047525       8.46775604       3.76863487      -0.00596691       0.00038280      -0.00131818
C        9.85827994      -0.04346350       3.75179611      -0.00740370       0.00615338       0.00255456
C        8.63382047       2.10656173       3.74328737      -0.00120814      -0.00129576      -0.00461977
C        7.42449407       4.26198475       3.75032808      -0.00020231      -0.00423595       0.00548033
C        6.21778654       6.42159831       3.76801456       0.00078827      -0.00103349       0.00462371
C        4.95471486       8.54920637       3.76670379       0.00163972      -0.00350047       0.00419338
C       -0.00686704       1.44321412       3.74693754      -0.00061556      -0.00375346       0.00325265
C       -1.27550678       3.53476873       3.73134717       0.00290083       0.00231571       0.00099747
C       -2.48627942       5.69481161       3.73121561      -0.00216098      -0.00075685      -0.00041642
C       -3.70306018       7.85517978       3.74146107       0.00223514       0.00286609       0.00053110
C       -4.92646546      10.01523265       3.74939733       0.01018538      -0.00171149       0.00553548
C        2.45155457       1.52388061       3.76022967      -0.00058186      -0.00234088      -0.00224117
O        1.10577341       3.58129585       3.75594035       0.00551982       0.00164321      -0.00217122
C       -0.08253504       5.68369018       3.73498283       0.01111767       0.00418456       0.00556462
C       -1.25772420       7.84628464       3.73967063      -0.00258702      -0.00274034      -0.00717834
C       -2.48195711      10.01115129       3.74776173       0.00278507      -0.00055910      -0.00194422
C        4.94250314       1.43277107       3.75852478       0.00138318       0.00397925       0.00016212
N        3.83111527       3.57620906       3.78567554      -0.00660125      -0.00390226      -0.00479310
C        1.20100011       7.75858107       3.76045312       0.00043390      -0.00651017      -0.00487431
C       -0.00373423       9.94730597       3.74864749      -0.00379410       0.00088361       0.00020805
C        7.41044525       1.38365888       3.74768066       0.00463655       0.00172987       0.00373041
C        6.21993145       3.52126912       3.76588807      -0.00048178      -0.00611914       0.00067647
C        5.01628221       5.66456421       3.78899423      -0.00261200      -0.00459622      -0.00021846
C        3.71802160       7.81596166       3.78189556      -0.00475176      -0.00393153      -0.00201208
C        2.45894565       9.90736005       3.75664109      -0.00825410       0.00985477      -0.00602599
C        9.86287353       1.38912056       3.74347931      -0.00604856       0.00777354      -0.00019828
C        8.63812537       3.53981065       3.73964432      -0.00233532      -0.00815605       0.00071918
C        7.42409817       5.69382226       3.75094899      -0.00072424       0.00072916       0.00134205
C        6.19305669       7.85346335       3.76107782       0.00781583       0.00352915       0.00103871
C        4.93923183       9.96511709       3.75466297      -0.00643284       0.00221812       0.00238405
Ir       2.55758576       5.06383308       3.78334107      -0.00136660       0.00294269      -0.01635757
