49
Lattice="12.336457 0.0 0.0 -6.168228499999997 10.683685154694365 0.0 0.0 0.0 15.0" Properties=species:S:1:pos:R:3:forces:R:3 energy=-440.2335724367735 free_energy=-440.2335724367735 stress="-0.008192114362224893 0.0011342201655457286 6.436231728601849e-06 0.0011342201655457286 0.0015419675496722927 -3.852754933830564e-06 6.436231728601849e-06 -3.852754933830564e-06 -2.2094911290463718e-06" pbc="T T T"
C       -0.00928766       0.01279963       3.74898877       0.00600034      -0.00364803       0.01202546
C       -1.24930220       2.12160193       3.96299835      -0.00168156       0.00299771       0.00956219
C       -2.48471691       4.27142992       4.05606244      -0.00431514       0.00369217      -0.00954021
C       -3.71071352       6.42296518       3.88579849      -0.00411325       0.00177324      -0.00078153
C       -4.94153805       8.56775366       3.68238469      -0.00537950       0.00232045      -0.00326186
C        2.45991312       0.04420840       3.77368980       0.00005887      -0.00472768       0.00317329
C        1.22447813       2.17978787       3.80375099       0.00172043       0.00248925       0.00558929
C       -0.05986723       4.29386764       4.05699677      -0.00426210       0.00515452       0.00151227
C       -1.29047986       6.44595944       4.11256443       0.00096030      -0.00721883      -0.00208861
C       -2.49274892       8.57650174       3.92481983       0.00157646      -0.00492666      -0.00153364
C        4.93284750       0.00696642       3.85970169       0.00274760       0.00721760       0.00110443
C        3.71984341       2.16373194       3.65052851      -0.00073647      -0.01056347       0.00267046
N        1.09332420       6.40260942       3.94772893       0.00597731      -0.00195896      -0.01269827
C       -0.02178959       8.53165166       3.95530441       0.00147951       0.00810007       0.00132972
C        7.40628565      -0.03733418       3.90904862       0.00132925       0.01083600      -0.01065304
C        6.19878322       2.10632213       3.77584939       0.00425675       0.00292184      -0.00774754
C        5.06716331       4.23496115       3.29834405      -0.00490061      -0.00546880      -0.00770271
P        3.64944505       6.35349724       2.31283627       0.01237189       0.00808289       0.00099577
C        2.45171039       8.49099460       3.67482429      -0.00063427      -0.00808995       0.01397539
C        9.86097906      -0.03262947       3.82792579      -0.00064524      -0.00177804      -0.00092006
C        8.63963997       2.11134589       3.95020102      -0.00615911       0.00392001       0.00369159
C        7.44020480       4.26211335       3.76394696       0.00379385      -0.00198243      -0.00243091
C        6.24089750       6.41628513       3.37662988       0.00633972      -0.00001106      -0.00837370
C        4.93275743       8.54761689       3.46869350      -0.00391814      -0.00597234       0.01326477
C       -0.01563410       1.43241469       3.84970593       0.00151863       0.00074318      -0.00082029
C       -1.27373249       3.54573594       4.06905015      -0.00370320       0.00639731       0.01078611
C       -2.49545202       5.70753642       4.05071716      -0.00408800      -0.00062871      -0.00686410
C       -3.71613243       7.85509522       3.83792210      -0.00630507       0.00154854      -0.00886320
C       -4.93756031      10.00005204       3.72991642       0.00227888      -0.00286357       0.00142451
C        2.46911617       1.47787925       3.73148860      -0.00023870      -0.00638207       0.01829418
C        1.12744577       3.59206317       3.85991535       0.00174589       0.00450691       0.00330524
C       -0.07109682       5.72856792       4.09987598       0.00203047      -0.00082652      -0.00372114
C       -1.26590751       7.85707719       4.02094651       0.00589674      -0.00546629       0.00039579
C       -2.48207476      10.00218465       3.84996253       0.00262912      -0.00108966      -0.00098037
C        4.95365234       1.42110265       3.75902303       0.00563801       0.00314564      -0.00128385
C        3.83087671       3.56800765       3.43657978      -0.01343828      -0.00184282      -0.00060107
C        1.19847522       7.77765272       3.85589680      -0.00193471      -0.00072103      -0.00223883
C       -0.00628807       9.95370035       3.91334407       0.00256864       0.01171092       0.00092339
C        7.41642234       1.38821048       3.89994556      -0.00079295       0.00692167      -0.00493786
C        6.25022840       3.51640680       3.60750152       0.00357720       0.00038351      -0.00583510
C        5.11273717       5.63271293       3.05209057      -0.00083103       0.00240809      -0.00885604
C        3.67546416       7.87088477       3.32043395      -0.00674390      -0.01219753      -0.01126271
C        2.46085235       9.92497242       3.83707768      -0.00222323      -0.00195788       0.00254132
C        9.86154864       1.39350898       3.93976118      -0.00708007       0.00393073      -0.00370917
C        8.64248971       3.54520380       3.95282378      -0.00052875      -0.00060436      -0.00067850
C        7.43303678       5.69571528       3.69309765       0.00274328      -0.00415001      -0.00519047
C        6.18244778       7.84712836       3.47568776      -0.00322161      -0.00016464      -0.00404944
C        4.92939114       9.96344383       3.69282759       0.00406376      -0.00521911       0.01522144
Ir       2.53925832       4.98628400       3.63951005       0.00457198      -0.00074183       0.01583762
