49
Lattice="12.336457 0.0 0.0 -6.168228499999997 10.683685154694365 0.0 0.0 0.0 15.0" Properties=species:S:1:pos:R:3:forces:R:3 energy=-430.1486074337178 free_energy=-430.1486074337178 stress="-0.006717595290818825 -0.0007984103447572081 4.738296785444357e-06 -0.0007984103447572081 0.0009757113842166662 1.2465315220134593e-05 4.738296785444357e-06 1.2465315220134593e-05 3.3408454712794355e-06" pbc="T T T"
C        0.00261354       0.00458239       3.80602994      -0.00127787       0.00124703       0.00381548
C       -1.25655571       2.12220119       3.71417579      -0.00052102      -0.00317351       0.00831176
C       -2.50396932       4.26750704       4.05080790       0.00073534      -0.00600422       0.00220901
C       -3.70812839       6.42143999       4.22436783       0.00432748      -0.00060626       0.00112652
C       -4.92848937       8.57309354       4.08161639      -0.00710221      -0.00307571       0.01143532
C        2.47056706       0.01225690       3.75362092      -0.00152980      -0.00099894       0.00094606
C        1.20951957       2.06685673       3.24866253      -0.00156713       0.01696552      -0.00260698
C       -0.19211991       4.32492971       3.40850063       0.00538494       0.00007473      -0.00387663
C       -1.29540994       6.43035601       4.00190815      -0.01428176       0.00139481      -0.00839507
C       -2.47681376       8.56850808       4.05877634       0.00238040      -0.00393334       0.00349474
C        4.93659105      -0.00834442       3.81307714      -0.00208006      -0.00724177       0.00507483
C        3.73832357       2.06484983       3.23055864      -0.00267459       0.00365999       0.00124883
C        1.09843059       6.40102922       3.50385451       0.00598598       0.00111804       0.00254307
C       -0.00595846       8.52857311       3.89392264       0.00173114      -0.00210170      -0.00599705
C        7.40958363      -0.03594301       3.85767187       0.00037365      -0.00370033      -0.00193845
C        6.17473017       2.12872500       3.75837369      -0.00159830       0.00453770       0.00023015
C        5.05014236       4.35185916       3.52254002      -0.01536122      -0.00694996      -0.00536173
O        3.84848873       6.44886217       3.64942646       0.00047428      -0.00337586       0.00106274
C        2.49262806       8.47784852       3.78226488       0.00101564      -0.00064344      -0.01052159
C        9.86369047      -0.03104575       3.85282670       0.00233738      -0.00701267       0.00525605
C        8.62710465       2.11865973       3.95685107       0.00334132       0.00124000       0.00015799
C        7.39438553       4.26988421       4.11098242       0.00785642       0.00916171      -0.00304884
C        6.20660885       6.44111172       4.12076484       0.00502220       0.00467706       0.00794376
C        4.95432526       8.54736045       3.94494722      -0.00584985       0.00392639      -0.01328260
C       -0.01209810       1.42281458       3.59492783       0.00042950       0.00330838      -0.00440698
C       -1.30481811       3.54626223       3.75773712       0.00355351      -0.00219192       0.00544628
C       -2.49494257       5.69770774       4.13519141      -0.00570697      -0.00935969      -0.00586244
C       -3.70073400       7.85350296       4.15459405       0.00064627      -0.00064097       0.00075969
C       -4.92634079       9.99468346       3.89103119      -0.00256846       0.00066315       0.00691659
C        2.47409636       1.41889566       3.37588468      -0.00313389       0.00477375      -0.00491948
S        1.02783848       3.59385750       2.38160997      -0.00719269       0.00066400      -0.00160783
C       -0.11096278       5.71115812       3.63865561      -0.00128079       0.00429951       0.00253332
C       -1.25077548       7.84764280       4.01726407      -0.00022403      -0.00171222      -0.00719979
C       -2.47164710       9.98554702       3.88889154      -0.00139328      -0.00421903       0.00467792
C        4.94560188       1.41237415       3.61228016      -0.00311375      -0.00654513       0.00005952
S        4.00607667       3.52896839       2.27183202       0.00768409       0.01076034       0.00917534
C        1.22847527       7.77797911       3.74316310       0.00352818       0.00600271      -0.00251207
C        0.00234931       9.94881872       3.87398759      -0.00098395      -0.00546229       0.00156296
C        7.39539974       1.40277183       3.88308579       0.00115576       0.00228243       0.00367330
C        6.18986134       3.55757380       3.84226402      -0.00051697       0.00820581       0.00008353
C        5.05116160       5.72994332       3.78361736       0.00500954      -0.00240951      -0.00723268
C        3.74418804       7.83298255       3.80245065      -0.00161858       0.00425673      -0.00831287
C        2.47429689       9.91885053       3.84441508       0.00181644      -0.00681378       0.00299553
C        9.86382470       1.40630847       3.86198582       0.00007253      -0.00642313       0.00534682
C        8.61844984       3.54365621       4.08668387       0.00260036       0.00131627       0.00492529
C        7.41061300       5.69671976       4.20313759       0.00704804       0.00676605      -0.00565468
C        6.18962024       7.86240865       4.08620556      -0.00996693       0.00119866      -0.00387906
C        4.93697301       9.96698250       3.87911245       0.00100752      -0.00194923       0.00415158
Ir       2.48059767       5.02497758       2.99818248       0.01602614      -0.00595614      -0.00054715
