49
Lattice="12.336457 0.0 0.0 -6.168228499999997 10.683685154694365 0.0 0.0 0.0 15.0" Properties=species:S:1:pos:R:3:forces:R:3 energy=-436.53835295351655 free_energy=-436.53835295351655 stress="-0.010633942149128205 0.0017772998569183579 2.848155768489892e-07 0.0017772998569183579 -0.004960350798296638 -4.3783199932158463e-07 2.848155768489892e-07 -4.3783199932158463e-07 2.3476142079500097e-07" pbc="T T T"
C       -0.00159772      -0.00086395       3.72370361      -0.00067858       0.00451940       0.00254684
C       -1.23881417       2.13051667       3.64196529      -0.00420928       0.00769562      -0.00425484
C       -2.48332420       4.27626605       3.85571296       0.00127679      -0.00280693      -0.00303022
C       -3.71767445       6.41831966       3.95474873       0.00298056       0.00235631      -0.00020215
C       -4.94724958       8.55161489       3.82859805      -0.00445915       0.00199543       0.00570675
C        2.45991847       0.01020628       3.88930353       0.01553404      -0.00420607       0.00350481
C        1.25372409       2.08185966       3.44082684      -0.00264924       0.00499826       0.00220651
C       -0.14224522       4.34419296       3.33687962       0.00577622      -0.00053153       0.01027452
C       -1.30239010       6.44726259       3.86752045       0.00368096      -0.00012764      -0.00325955
C       -2.49292412       8.56847783       4.01687718      -0.00253121      -0.00049356       0.00145353
C        4.93523877       0.00269740       4.03310645       0.00464503       0.00168463       0.00192559
C        3.71897314       2.14527901       3.83625555       0.00194701      -0.00290860      -0.00876558
C        1.10860677       6.42574230       3.70919919       0.00006270       0.00276440      -0.00153923
C       -0.01984649       8.55016598       3.96822439      -0.00519579       0.00470101      -0.00727953
C        7.41426545      -0.02142042       4.00159756      -0.01044031       0.00578855       0.00521605
C        6.19879334       2.10719544       4.01264985      -0.00094897      -0.00542950      -0.00442789
C        5.03977670       4.23214142       3.65656793      -0.00232042      -0.00387640      -0.00056953
P        3.62462244       6.30841468       2.57896919       0.00860172      -0.00974045       0.00005238
C        2.46313821       8.53599740       3.72496820       0.00160879       0.00036417       0.00294089
C        9.87299283      -0.01160558       3.81310083      -0.00549643      -0.00387072       0.00046107
C        8.65334923       2.11969000       3.95025866       0.00394339      -0.00008128       0.00316500
C        7.43385316       4.26235064       3.94100092      -0.00787886      -0.00047502       0.00744202
C        6.20997423       6.40625399       3.62819568       0.00203678      -0.00175896       0.00034510
C        4.93420879       8.54481883       3.59369366       0.00774223      -0.01096791      -0.00354538
C       -0.00004174       1.42211008       3.59110474      -0.00661422       0.00834124      -0.01291104
C       -1.27726854       3.56050975       3.60366908       0.00089471       0.00257992      -0.00281487
C       -2.49935634       5.70459457       3.92171952       0.00529339      -0.00164233       0.00645960
C       -3.71885515       7.84690622       3.94964427      -0.00565238       0.00344129       0.00530174
C       -4.93935569       9.97861424       3.81911009       0.00687689       0.00303873      -0.00013387
C        2.47029854       1.43118872       3.74001061       0.00136357      -0.00325808       0.00137843
P        1.31761206       3.65080278       2.56897150      -0.01309328       0.01167364      -0.00326900
C       -0.10824556       5.73585431       3.61277301       0.00291643      -0.00083915       0.00904579
C       -1.26442099       7.85946142       3.99064841      -0.00312130       0.00199330      -0.01186282
C       -2.48029822       9.98783906       4.00488814       0.01325919      -0.00311840       0.00710411
C        4.95389786       1.41639862       3.98937901       0.00098116      -0.00227335      -0.00944786
C        3.82279624       3.54129174       3.74310932      -0.00247213      -0.00145413       0.00099503
C        1.21394309       7.82163120       3.80955413      -0.00260853       0.00343518      -0.00200011
C       -0.00106946       9.96343942       4.02614179      -0.00453905       0.00287381       0.01209797
C        7.42757885       1.39796882       4.02467549       0.00145795       0.00194389      -0.00363996
C        6.23577554       3.52051383       3.90228933      -0.00645737      -0.00608383      -0.00294141
C        5.07319808       5.62168849       3.37232036      -0.00004867      -0.00077243       0.01172971
C        3.68159815       7.88471801       3.43747973       0.00544388      -0.00503745      -0.00228080
C        2.47357061       9.95663112       3.88019721      -0.01315857       0.00306818       0.00078352
C        9.88118029       1.41535079       3.82104276       0.00225561       0.00006389       0.00823038
C        8.65257158       3.54837808       3.95581554      -0.00306252       0.00070684      -0.00159765
C        7.41715090       5.69054325       3.87300839       0.00121538       0.00223900      -0.00797930
C        6.17243504       7.83622213       3.65471722       0.00459983      -0.00669776      -0.01081736
C        4.93555518       9.96806182       3.72243135       0.00013361      -0.00644516      -0.00242639
Ir       2.46177343       4.98225693       3.93609424       0.00110844       0.00262996       0.00062902
