49
Lattice="12.336457 0.0 0.0 -6.168228499999997 10.683685154694365 0.0 0.0 0.0 15.0" Properties=species:S:1:pos:R:3:forces:R:3 energy=-437.8917741105561 free_energy=-437.8917741105561 stress="-0.010172500510119795 6.1738096824077424e-06 -4.5532794424627207e-07 6.1738096824077424e-06 -0.0033799531372922563 -1.4242305876183253e-07 -4.5532794424627207e-07 -1.4242305876183253e-07 -5.066089915436358e-07" pbc="T T T"
C       -0.00699801       0.00121231       3.75176871      -0.00137554      -0.00521742      -0.00001026
C       -1.25532593       2.12431844       3.74529098       0.00631089       0.00155103      -0.00493223
C       -2.47884787       4.27525999       3.73496603       0.00490531       0.00584699       0.00608114
C       -3.70153239       6.41878421       3.73913806       0.00076804      -0.00079107      -0.00300547
C       -4.93140520       8.56635912       3.74702167       0.00116750      -0.00336363       0.00504416
C        2.46703459       0.02116133       3.75778882      -0.00276993       0.01084566      -0.00484988
C        1.21871612       2.13450880       3.76132727      -0.00740532      -0.00053887      -0.00006274
C       -0.04726184       4.30657128       3.74364613      -0.00253191      -0.00456054       0.00199338
C       -1.27407503       6.43961019       3.73558581      -0.00231064      -0.00119761      -0.00752671
C       -2.47138755       8.56620676       3.74031883      -0.00017503       0.00046448       0.00335589
C        4.94074032       0.00134634       3.75246017       0.00198805      -0.00740837       0.00221355
C        3.71507569       2.13440779       3.77784433       0.00746311       0.00026121      -0.00619838
O        1.10106936       6.44178021       3.74819224      -0.00568072      -0.00195304      -0.00127419
C       -0.00780737       8.54289270       3.74384835      -0.00439595       0.00062562       0.00117842
C        7.41258615      -0.03168629       3.74844739      -0.00125453      -0.00663436      -0.00399781
C        6.18907477       2.12431915       3.75869185      -0.00485737       0.00118155       0.00263749
C        4.98126510       4.30641638       3.78569630       0.00080421      -0.00152532      -0.00077568
O        3.83325480       6.44218918       3.82140910       0.00293313       0.00113173       0.01864477
C        2.46693071       8.46665103       3.75651248       0.00005957       0.00518908      -0.00729652
C        9.85754035      -0.03172420       3.74653768       0.00225738      -0.00423621       0.00293149
C        8.63506481       2.12312873       3.74138440      -0.00006087       0.00087108       0.00367432
C        7.41258739       4.27532775       3.74956602      -0.00565464       0.00453790       0.00137349
C        6.20757969       6.43965902       3.76205664       0.00351225      -0.00257098      -0.00486602
C        4.94145204       8.54272660       3.75330647       0.00284074       0.00061282      -0.00106120
C       -0.02635895       1.41340718       3.75369112      -0.00249145      -0.00457377      -0.00674305
C       -1.26817904       3.55388398       3.73961532       0.00143740      -0.00021867      -0.00508155
C       -2.48398623       5.70011082       3.73482974      -0.00136930       0.00272114      -0.00111983
C       -3.70146809       7.84846214       3.74026786       0.00107851      -0.00164869       0.00707894
C       -4.93217633       9.99180279       3.75219021      -0.00238843       0.00122423      -0.00229084
C        2.46690010       1.44891693       3.76821818      -0.00010005       0.01059158      -0.00086283
C        1.13702980       3.53371882       3.75624051      -0.00534141       0.00071647      -0.01073276
C       -0.09051516       5.71517350       3.74035224      -0.00635063      -0.00413638      -0.00441946
C       -1.25389588       7.85696945       3.73779577      -0.00227100      -0.00259047       0.00396998
C       -2.47031391       9.99168784       3.75039347      -0.00258407       0.00291629      -0.00014943
C        4.96010860       1.41350847       3.76472879       0.00306536      -0.00801090      -0.00219435
C        3.79690777       3.53352271       3.79240527       0.00669365      -0.00038942       0.00081368
C        1.19708512       7.83779599       3.75152506      -0.00230942       0.00554420      -0.00367491
C        0.00527694       9.96385693       3.74614332       0.00038832      -0.00292631       0.01185704
C        7.41450002       1.40210060       3.74809182      -0.00567575      -0.00257940       0.00105048
C        6.20209557       3.55385280       3.76503712      -0.00354746       0.00067739       0.00385766
C        5.02426772       5.71514226       3.78582810       0.00579318      -0.00224552       0.00145943
C        3.73667157       7.83746620       3.76345182       0.00148706       0.00402099       0.00080052
C        2.46685820       9.91803070       3.75018642       0.00008158       0.00086318      -0.00472797
C        9.85563723       1.40214232       3.74231248       0.00650632      -0.00432718       0.00333730
C        8.63507877       3.55288640       3.73910179      -0.00038557       0.00887434       0.00478544
C        7.41739753       5.70016199       3.74887162       0.00436355       0.00163038      -0.00183457
C        6.18757511       7.85701511       3.75492734       0.00157978      -0.00300381      -0.00868985
C        4.92833106       9.96372903       3.74827377       0.00280933      -0.00246110       0.00326310
Ir       2.46723509       4.84177732       3.77743470       0.00299276       0.00620968       0.00697681
