49
Lattice="12.336457 0.0 0.0 -6.168228499999997 10.683685154694365 0.0 0.0 0.0 15.0" Properties=species:S:1:pos:R:3:forces:R:3 energy=-430.9914635387095 free_energy=-430.9914635387095 stress="-0.003432110286289943 -0.0016664837400772617 -2.082660515592298e-06 -0.0016664837400772617 -0.004589253523814037 4.318521361308573e-06 -2.082660515592298e-06 4.318521361308573e-06 -1.176584190468328e-07" pbc="T T T"
C        0.00902758      -0.02392466       3.71632271       0.00816436       0.00303265      -0.00473080
C       -1.23692041       2.10848552       3.51770134       0.00303502      -0.00052656       0.00329198
C       -2.48336943       4.25762516       3.63441041      -0.00864724      -0.00436141       0.01000513
C       -3.68152123       6.40063116       3.83724362      -0.00136429      -0.00557878       0.00189169
C       -4.91188933       8.53489255       3.84466352       0.00223383      -0.00548378      -0.00012115
C        2.47967278      -0.04078495       3.82621295      -0.01496527       0.00813294      -0.00278916
C        1.26060741       2.05191377       3.46427469       0.00419680      -0.00061312      -0.00775775
C       -0.15463008       4.25903065       2.94799146      -0.00815257       0.00269305      -0.00557863
C       -1.26645395       6.41786091       3.45511339       0.00514686      -0.00064187      -0.01250957
C       -2.44612636       8.53094029       3.76573502      -0.00073812      -0.00223439      -0.00395902
C        4.94885328      -0.01528886       3.93049429      -0.00580854      -0.01499032      -0.00432957
C        3.67338775       2.06187204       4.15840371       0.00134573       0.00299743      -0.00273720
P        1.30251160       6.50542123       2.20389944       0.00079629       0.00283694       0.00725399
C        0.00718932       8.55549026       3.56969199       0.00520051       0.00360105       0.00309032
C        7.41277440      -0.00504120       3.86755040       0.00829086       0.00359496      -0.00145510
C        6.17977517       2.12716507       4.15239581      -0.00393938      -0.00518548       0.00363834
C        5.03109083       4.33277087       4.41104160       0.01505556      -0.00256883      -0.00931642
C        3.74769082       6.40561085       4.01917343      -0.00041850       0.00012201       0.01090475
C        2.48623537       8.54390764       3.65748899      -0.00503086      -0.00464998       0.00294237
C        9.88070330      -0.01390127       3.77556218       0.00512177       0.00270833       0.01334479
C        8.64524694       2.12588590       3.87042987      -0.00850231       0.00109327      -0.01071702
C        7.42944046       4.26823744       4.04836339       0.00449615       0.00402621       0.00212534
C        6.21830431       6.42646372       4.04018879      -0.00449221       0.00116374      -0.00794341
C        4.95440829       8.53147903       3.84236713      -0.00059826       0.00917826       0.01581956
C        0.00530593       1.39939585       3.54253577       0.00699032       0.00013410       0.00174696
C       -1.28738285       3.51957099       3.34963358      -0.00576319       0.00068707      -0.00047826
C       -2.46731921       5.68682149       3.66027583      -0.00131946      -0.00374388      -0.00443090
C       -3.67972109       7.82263505       3.82237018       0.00265878      -0.00687827      -0.00291176
C       -4.92346914       9.94935459       3.78278849      -0.00297009      -0.00434290       0.00213321
C        2.47130971       1.38115682       3.83118483      -0.00151880       0.01083084      -0.00511331
S        1.37836111       3.53727157       2.53371023       0.00156944      -0.00313035       0.00322049
C       -0.08852571       5.66499466       3.06679101       0.00371372       0.00193721      -0.00865427
C       -1.22203353       7.82782149       3.59092229       0.00584018       0.00060953      -0.01026004
C       -2.44690759       9.94918732       3.85464209      -0.01768942      -0.00168491       0.00394991
C        4.93750784       1.40979705       4.11480131      -0.00439694      -0.01253739       0.00118586
P        3.46383404       3.68063848       4.87153555      -0.00384472       0.00495682       0.00484423
C        1.26122552       7.88883028       3.36975856      -0.00495468       0.00482026       0.00340831
C        0.01100187       9.96469754       3.81517409       0.00850446       0.00262715      -0.01294576
C        7.40959768       1.41874078       3.98514550      -0.00521155       0.00226965      -0.00080207
C        6.20354341       3.55695893       4.23892430       0.01391846      -0.00296548       0.00418091
C        4.98490770       5.72640519       4.19587054       0.00048462      -0.00354088      -0.00642282
C        3.70906140       7.80621430       3.81486637      -0.00129339      -0.00111293       0.00175132
C        2.47912998       9.96806944       3.78798820       0.00524965      -0.00255456       0.00926967
C        9.88081625       1.41192200       3.73065009      -0.00181244       0.00293232      -0.00030031
C        8.64296537       3.55094408       3.86817514      -0.00646414      -0.00211014       0.00125043
C        7.43226357       5.69364894       3.99147320      -0.00426285       0.00301902       0.00350720
C        6.19313075       7.83379042       3.90530675      -0.00249194       0.00305621       0.00401428
C        4.94580579       9.94913074       3.76926227       0.00775907       0.00999305       0.00670459
Ir       2.09697575       5.23380799       3.90421324       0.00687872      -0.00161786       0.00078868
