49
Lattice="12.336457 0.0 0.0 -6.168228499999997 10.683685154694365 0.0 0.0 0.0 15.0" Properties=species:S:1:pos:R:3:forces:R:3 energy=-436.29656921922873 free_energy=-436.29656921922873 stress="-0.010143865144247258 0.0006015785750664189 4.733832272518187e-08 0.0006015785750664189 0.007161472706745544 -1.5794727781143052e-07 4.733832272518187e-08 -1.5794727781143052e-07 6.302283830829116e-07" pbc="T T T"
C       -0.00145270       0.01485810       3.75353346       0.00109628       0.00463141       0.00438951
C       -1.25570441       2.11267787       3.74053459      -0.00632783      -0.00740955      -0.00239991
C       -2.49294742       4.27248633       3.72716544       0.00136794      -0.00379079      -0.00357446
C       -3.70660475       6.42791745       3.73540111       0.00483797      -0.00298774       0.00095798
C       -4.93440987       8.58180926       3.75130276      -0.00111668       0.00409923      -0.00058703
C        2.46288561       0.08816979       3.75698706       0.00528488      -0.00488413      -0.00706450
C        1.20130020       2.16938989       3.76147816      -0.00200338       0.00112470      -0.00367040
C       -0.13802258       4.30097921       3.73956810      -0.00475432       0.00043664       0.00022024
C       -1.29570673       6.44108632       3.73068406       0.00392638       0.00215258       0.00086814
C       -2.48657071       8.59107898       3.73989666       0.00331950       0.00012847       0.00968693
C        4.93508500       0.01753598       3.75171470       0.00355143       0.00832709       0.00830570
C        3.74386633       2.22199225       3.77116298      -0.00596076       0.00216929      -0.00020329
N        1.09767140       6.36270461       3.76576912      -0.00632831      -0.00284312      -0.01645087
C       -0.01313075       8.51770420       3.74928054       0.00537145      -0.01494569       0.00575330
C        7.41611518      -0.06080097       3.75243980      -0.00884873       0.00475604       0.00493499
C        6.20050244       2.10832448       3.75666284       0.00272445       0.00120087       0.00092532
C        5.03922804       4.26431256       3.77863077       0.00144063       0.00179735      -0.00163973
O        3.82830324       6.34737017       3.79495489       0.00274304      -0.00387218      -0.00467644
C        2.47380190       8.41968681       3.76594196       0.00266602       0.00264406       0.00094108
C        9.86001976      -0.05971078       3.75295553      -0.00069772       0.00250994      -0.00368274
C        8.64062491       2.10079140       3.74081713       0.00054684       0.00568151       0.00057070
C        7.42673323       4.26707018       3.74540626      -0.00762817      -0.00077821       0.00171311
C        6.21445967       6.42918161       3.76258502       0.00107526       0.00516683      -0.00235742
C        4.93731465       8.51519634       3.76420370       0.00153424      -0.00123863       0.00272934
C       -0.00340825       1.45104753       3.75122457      -0.00203735       0.00221110       0.00422393
C       -1.28042180       3.53729917       3.73113100      -0.00155462      -0.00696164       0.00049974
C       -2.49282652       5.69934447       3.72679680       0.00927737      -0.00321816       0.00148353
C       -3.70688898       7.86517871       3.74112808       0.00106536       0.00109024      -0.00158369
C       -4.92626161      10.02588601       3.75413981       0.00329668       0.00203139       0.00240952
C        2.45994649       1.54699953       3.76561927      -0.00398215      -0.00645890      -0.00291088
O        1.10555128       3.61940790       3.76511193      -0.00034675       0.00001604       0.00107642
C       -0.10506878       5.70227491       3.74038481      -0.00201719       0.00188348       0.00523604
C       -1.26704765       7.85820293       3.73896983       0.00323788      -0.00209262      -0.00360557
C       -2.48263043      10.02712354       3.74938329       0.00875953       0.00061970       0.00174313
C        4.94643099       1.44916246       3.76037258      -0.00129218       0.00968458       0.00447904
N        3.83624390       3.60415196       3.78579977       0.00045455       0.00197153      -0.01115207
C        1.18968701       7.74502312       3.76092867       0.00627227      -0.00805583      -0.00068694
C       -0.00177419       9.94925404       3.75099779      -0.00401419      -0.01120955       0.00039778
C        7.41996767       1.37515720       3.74963559       0.00348806       0.00474948      -0.00365873
C        6.22967418       3.52540419       3.76041653      -0.00523523      -0.00137268       0.00166801
C        5.07214208       5.66559522       3.77945271       0.00061077       0.00097481       0.00332448
C        3.73250514       7.79712345       3.77321959       0.00036799      -0.00173890      -0.00534342
C        2.47074292       9.87832810       3.75746738      -0.00455468       0.00484337      -0.00498554
C        9.86848277       1.38429830       3.74260119      -0.00568515       0.00212209       0.00458896
C        8.64043420       3.53825791       3.73433586      -0.00370182       0.00317333       0.00535737
C        7.42684814       5.69391931       3.74659660      -0.00327115      -0.00094536      -0.00259412
C        6.18983337       7.85378421       3.75968944       0.00010995       0.00194367       0.00328846
C        4.93518369       9.95122404       3.75581754      -0.00016505      -0.00056709       0.00521605
Ir       2.46668605       4.98328887       3.78442230       0.00309671       0.00122997      -0.00416106
