49
Lattice="12.336457 0.0 0.0 -6.168228499999997 10.683685154694365 0.0 0.0 0.0 15.0" Properties=species:S:1:pos:R:3:forces:R:3 energy=-436.13772004561736 free_energy=-436.13772004561736 stress="-0.010417239703087186 -2.1014562997991504e-07 1.500515085484717e-07 -2.1014562997991504e-07 0.00499800087002056 7.152093313609817e-07 1.500515085484717e-07 7.152093313609817e-07 5.346479834533986e-07" pbc="T T T"
C       -0.00276185       0.01582280       3.75260665      -0.00066419       0.00410791       0.00197985
C       -1.26257634       2.11385476       3.74176467      -0.00501717       0.00014840      -0.00409285
C       -2.49062351       4.27160648       3.72987478      -0.00003821      -0.00426543      -0.00268395
C       -3.70136988       6.42702301       3.73765586       0.00124954       0.00126760      -0.00296687
C       -4.92916996       8.58477930       3.75025293       0.00055996       0.00275625       0.00065636
C        2.46676312       0.08391069       3.75790070       0.00195282      -0.00973726      -0.00560712
C        1.19589436       2.20338782       3.76212024       0.00648317       0.00137026      -0.00394496
C       -0.10171363       4.27970295       3.74091872       0.00245125      -0.00083618       0.00033562
C       -1.28322945       6.43543717       3.72902075       0.00204183       0.00392025       0.00048889
C       -2.47339926       8.58488678       3.74031618      -0.00262311       0.00055925       0.00729026
C        4.93644204       0.01591964       3.75160679      -0.00002731       0.00257494       0.00893376
C        3.73777087       2.20335869       3.77473682      -0.00524680       0.00063157      -0.00516985
O        1.08807463       6.38241230       3.77123941      -0.00220176      -0.00542594       0.00002400
C       -0.00355989       8.52190861       3.74502419       0.00234340      -0.00383448       0.00491652
C        7.41339893      -0.05415365       3.74976279       0.00084786       0.01299028       0.00431562
C        6.19629799       2.11381321       3.75702648       0.00373558       0.00068635       0.00111171
C        5.03564363       4.27990418       3.77903539      -0.00202164      -0.00438355       0.00210320
O        3.84578204       6.38277659       3.81001153       0.00446591      -0.00644272      -0.00476943
C        2.46694520       8.42679940       3.76115836      -0.00110813      -0.00350475       0.00223350
C        9.85681943      -0.05394607       3.75026395      -0.00114478       0.00794865      -0.00179963
C        8.63499793       2.10604720       3.74134616       0.00163560       0.00519024       0.00098026
C        7.42430552       4.27146003       3.74608066       0.00028761      -0.00047073       0.00029698
C        6.21718720       6.43547527       3.75924906      -0.00510101       0.00245008       0.00068685
C        4.93730656       8.52185465       3.75986759      -0.00083693      -0.00283487       0.00349791
C       -0.01830356       1.44252124       3.75147811       0.00022507       0.00513643       0.00326117
C       -1.29024874       3.53386516       3.73267102       0.00165652      -0.00058358       0.00280647
C       -2.49165010       5.69788029       3.72892067       0.00412109      -0.00161795      -0.00084560
C       -3.70127302       7.86377807       3.74288741      -0.00088853       0.00130293      -0.00688666
C       -4.92464744      10.02420775       3.75343026       0.00135589      -0.00203151       0.00464944
C        2.46679325       1.53969681       3.76816026       0.00087362      -0.00874280      -0.00763204
N        1.09755971       3.59371977       3.76179450       0.00492077      -0.00070154       0.00186953
C       -0.12558003       5.68319519       3.73865246       0.00077354      -0.00177087      -0.00025859
C       -1.25990810       7.85747779       3.73633213      -0.00127060       0.00468880      -0.00050821
C       -2.47818558      10.02433833       3.74965930       0.00118496      -0.00429403       0.00414092
C        4.95200461       1.44253262       3.76261578      -0.00093068       0.00439665      -0.00064461
N        3.83634684       3.59361311       3.78774576      -0.00650926      -0.00073187       0.00086061
C        1.19196568       7.80680251       3.75594528      -0.00021124      -0.00952276       0.00189253
C       -0.00014832       9.95577125       3.74830873       0.00250289       0.00073734       0.00026073
C        7.41456298       1.38435497       3.74859878       0.00586849       0.00965158      -0.00081841
C        6.22395510       3.53387043       3.76041070       0.00032240      -0.00052095       0.00274977
C        5.05953933       5.68343310       3.77976565      -0.00130663      -0.00456213      -0.00035034
C        3.74184196       7.80664642       3.77031772       0.00023986      -0.00561107      -0.00304498
C        2.46693512       9.88883242       3.75352248      -0.00074484       0.00447828      -0.00425325
C        9.85552739       1.38447957       3.74266953      -0.00465753       0.00823836       0.00159748
C        8.63506954       3.54087747       3.73677512      -0.00013247      -0.00308920       0.00048769
C        7.42543785       5.69772594       3.74596752      -0.00506626       0.00231430       0.00012264
C        6.19377819       7.85751873       3.75640015       0.00068145       0.00242386       0.00356925
C        4.93385169       9.95575738       3.75278993      -0.00342830       0.00083679       0.00399201
Ir       2.46694327       4.83161097       3.79005964      -0.00160366      -0.00529117      -0.01583420
