49
Lattice="12.336457 0.0 0.0 -6.168228499999997 10.683685154694365 0.0 0.0 0.0 15.0" Properties=species:S:1:pos:R:3:forces:R:3 energy=-425.44913826286876 free_energy=-425.44913826286876 stress="-0.00202013866771573 -0.00037261386126313876 -1.335020597959436e-05 -0.00037261386126313876 -0.008768672047905945 -2.2538739858351017e-06 -1.335020597959436e-05 -2.2538739858351017e-06 -2.1420353447105923e-06" pbc="T T T"
C       -0.01398072      -0.00546559       3.75188746      -0.00029473       0.00521830       0.01175224
C       -1.25244006       2.13279486       4.06955015       0.00172332      -0.00614541      -0.00411105
C       -2.50954434       4.27181154       4.08649766      -0.00395932      -0.00070170       0.00820172
C       -3.71931679       6.40491371       3.83315520      -0.00610183      -0.01029971       0.00480558
C       -4.95365993       8.53155158       3.63980543      -0.00277217       0.00415410      -0.00312078
C        2.45660052      -0.05030344       3.67470687      -0.00194951      -0.00416786      -0.00267076
C        1.25469644       2.04058905       4.05041784      -0.00073518       0.00729827      -0.00207373
C       -0.14118599       4.27797673       4.66271845       0.01125257      -0.00400006       0.00309937
C       -1.29119862       6.42416200       4.25838228      -0.00209083       0.00284638      -0.00097877
C       -2.47441256       8.52480112       3.83445499       0.00257426       0.00313734       0.00286401
C        4.91881923      -0.01455113       3.64269745       0.00711964       0.00078180       0.01053761
C        3.66151212       2.06250095       3.35419383      -0.00752488      -0.00661002      -0.00239554
P        1.47787332       6.39007054       4.79068042       0.00185253       0.01172751      -0.01093305
C       -0.01061984       8.56265045       3.94316650       0.00553101       0.00025386      -0.00688856
C        7.37947008       0.02378617       3.69120548      -0.00171765      -0.00196513       0.00749282
C        6.14964320       2.13348746       3.49827688      -0.00502181      -0.00441449       0.00427980
C        5.01065654       4.28653575       3.10624289      -0.00188338       0.00258863       0.00716419
S        3.55748004       6.44713804       2.37682769       0.00794737      -0.00649089      -0.00888051
C        2.45874186       8.60940986       3.64053263      -0.00254320       0.01274060      -0.00832308
C        9.86284943       0.03357084       3.69960774       0.00597032      -0.00275124      -0.00803755
C        8.61714464       2.15002177       3.78999343      -0.00423164       0.00870465       0.00977727
C        7.39190831       4.27356058       3.65339622      -0.00265165       0.00364678       0.00491225
C        6.19347276       6.43212139       3.39592151       0.00132567       0.00498270       0.00257893
C        4.92146387       8.56937693       3.43853425      -0.00126813       0.00237650      -0.01031911
C       -0.01177870       1.40833670       3.98134875       0.00539123       0.00285796       0.00143429
C       -1.29609756       3.54080160       4.29545191      -0.00182739      -0.00707752       0.00198436
C       -2.50775054       5.69745287       4.07471971      -0.00565766      -0.00393099       0.00211791
C       -3.71618537       7.82137917       3.76979368      -0.00210061      -0.00411496       0.00595076
C       -4.95525430       9.95077105       3.69179266      -0.00610317       0.00697173       0.00331675
C        2.45163119       1.37157313       3.68324899      -0.00308521      -0.01155214       0.00118293
P        1.45872838       3.53149532       4.98823447       0.00301982      -0.00694415      -0.00691336
C       -0.13784967       5.67594299       4.62264913       0.01339118      -0.00002941       0.00253994
C       -1.24766278       7.83306730       4.03278908       0.00300275       0.00373970      -0.00915580
C       -2.47469842       9.94039884       3.69478971       0.00572970       0.00327598      -0.00598197
C        4.91668669       1.40890926       3.46281597      -0.00576206      -0.00662961      -0.00312142
S        3.54470620       3.50517215       2.35368104       0.00062363      -0.00757447      -0.00501463
C        1.25762774       7.93372176       3.98363488      -0.00294462      -0.00834910      -0.01149463
C       -0.01576734       9.98021844       3.74063679       0.00456634      -0.00279877       0.00911074
C        7.38032388       1.44197256       3.65741511      -0.00422037      -0.00072625       0.00058257
C        6.18597505       3.54144918       3.43792652       0.00195871      -0.00099762       0.00577488
C        5.02162669       5.68945657       3.06733360      -0.00611266       0.00756406      -0.00023541
C        3.66889605       7.92678187       3.30798273      -0.00454815       0.01038966      -0.00992796
C        2.45764969      10.02720034       3.66520962      -0.00066785       0.00617075      -0.00659559
C        9.85956884       1.44594803       3.85540195      -0.00115323      -0.00325650       0.00442632
C        8.61443461       3.56616964       3.84927369      -0.00482011       0.01151499       0.00931998
C        7.39539392       5.69887910       3.64024071      -0.00346891      -0.00338016      -0.00188784
C        6.15524360       7.84245665       3.46765776       0.00195846       0.00087094      -0.00217448
C        4.92150158       9.99137833       3.64002651       0.00731901      -0.00308591       0.00626370
Ir       3.00447035       4.89510511       4.10781133       0.00496042      -0.00581915      -0.00023536
