49
Lattice="12.336457 0.0 0.0 -6.168228499999997 10.683685154694365 0.0 0.0 0.0 15.0" Properties=species:S:1:pos:R:3:forces:R:3 energy=-426.6070465671914 free_energy=-426.6070465671914 stress="-0.003466073920280407 0.0015267737130079944 -1.9375013183137585e-05 0.0015267737130079944 -0.006624127268649738 3.7474508419201353e-06 -1.9375013183137585e-05 3.7474508419201353e-06 -1.5087838013118886e-06" pbc="T T T"
C        0.00257079      -0.01506725       3.73383759      -0.00332206       0.00108569       0.00414420
C       -1.21249620       2.14441886       3.75028326      -0.00221061      -0.01088605       0.01065379
C       -2.46549691       4.27482761       3.65926160      -0.00009718       0.00348450      -0.01138054
C       -3.70205124       6.40119755       3.58957307      -0.00269475       0.00972744       0.00304645
C       -4.95141946       8.51952860       3.66733096      -0.00139633      -0.00983573      -0.00253647
C        2.47082055      -0.06427143       3.54601817      -0.00193053      -0.00220320       0.00161157
C        1.29537184       2.05334352       3.78094683       0.00396626      -0.00643455       0.01197775
C       -0.08529727       4.33353399       4.16589884      -0.00371446       0.00102444       0.01503799
C       -1.31050307       6.43515800       4.07288670      -0.01186199       0.00408843      -0.01086498
C       -2.47157859       8.53082769       3.71724208       0.00520333       0.00766793       0.00510347
C        4.94161249      -0.02220227       3.47632838       0.01058186      -0.00344525       0.00542724
C        3.68619322       2.01751163       3.11320477       0.00679188       0.01267585       0.00619096
P        1.06068607       6.50137160       5.45820649       0.01383051       0.00825091       0.00818256
C       -0.02591682       8.59778818       4.07135921      -0.00133895      -0.00740067      -0.01116449
C        7.40148018       0.01561336       3.64695747      -0.00198338       0.00813412       0.00851943
C        6.18530891       2.11306776       3.17066840      -0.00510909      -0.00912735       0.00524352
C        5.02422427       4.28808175       2.94538734       0.00080806      -0.00428399       0.00387855
P        3.66894341       6.17785267       4.30694820       0.00838253      -0.01262217      -0.00849882
C        2.44420699       8.62590449       4.18903182      -0.00487464       0.00257803      -0.00219570
C        9.87461347       0.01586613       3.75901132      -0.01004304      -0.01030373      -0.00772673
C        8.65303322       2.13576854       3.47882961       0.00535965      -0.00182276      -0.00306435
C        7.43038400       4.26361303       3.28964888      -0.00144018       0.00052911      -0.00526486
C        6.19440176       6.40165344       3.50175413       0.00631866      -0.00057127      -0.00069125
C        4.92873536       8.54615647       3.87690911       0.00539221       0.00686520       0.00117743
C        0.01976165       1.41466114       3.78389319       0.00396750      -0.00073658      -0.00755747
C       -1.23936842       3.56644693       3.82147444      -0.00550168      -0.00706212      -0.00317101
C       -2.48459968       5.69786728       3.74004253      -0.00944045       0.00590916      -0.00252597
C       -3.70989459       7.81906786       3.65137634       0.00647168       0.00757505       0.00013253
C       -4.94274241       9.93845044       3.66967598      -0.00871075      -0.00774334      -0.01486775
C        2.48626987       1.34476086       3.47734760       0.00837446       0.00136826      -0.00252951
P        1.53674523       3.66678851       4.37298050      -0.00073540      -0.00502885       0.00607199
C       -0.18360916       5.68933988       4.47261922       0.00179228       0.00803995      -0.00529796
C       -1.26033438       7.85506933       3.98151167      -0.00385008       0.00084035      -0.00475575
C       -2.45838114       9.93969353       3.55998259       0.00582336       0.00611499       0.00565985
C        4.94511511       1.39260951       3.20836157      -0.00102357      -0.00425439       0.00788097
S        3.48632940       3.62257272       2.48606408      -0.01099223       0.01125474      -0.00268200
C        1.19481894       8.00433253       4.47899486      -0.01086955      -0.00486580       0.00764552
C       -0.00333551       9.98415610       3.70597193       0.00799149       0.00012532       0.01083879
C        7.40965549       1.42323921       3.40206792       0.00131562       0.00206642      -0.00061167
C        6.20836387       3.53304705       3.07039632      -0.01008591      -0.00348163       0.01014846
C        5.00860998       5.63651230       3.34712108       0.00853837       0.00792452       0.00261145
C        3.68097243       7.91594590       4.13189047       0.00080769       0.00722778      -0.00543308
C        2.46183377      10.01474318       3.85432777      -0.01120601      -0.00002757      -0.00118793
C        9.88769442       1.43619141       3.64799073      -0.00097238      -0.01294964      -0.00305110
C        8.65699906       3.55758846       3.44532192       0.00335896       0.00277784      -0.00460527
C        7.42032567       5.68556625       3.42161097       0.00135414       0.00092215      -0.01032168
C        6.15114531       7.81279370       3.71152973       0.00208865      -0.00642939      -0.00115740
C        4.93544188       9.97447860       3.80031234      -0.00332675       0.00468280      -0.01098329
Ir       2.63174957       4.96108251       5.74432956       0.01021277      -0.00142498       0.00294259
