49
Lattice="12.336457 0.0 0.0 -6.168228499999997 10.683685154694365 0.0 0.0 0.0 15.0" Properties=species:S:1:pos:R:3:forces:R:3 energy=-440.2731116452354 free_energy=-440.2731116452354 stress="-0.00637096975519834 -1.4525165293377146e-05 2.943253867686457e-07 -1.4525165293377146e-05 -0.004667114135718302 1.0656401043851143e-06 2.943253867686457e-07 1.0656401043851143e-06 -1.7692210385969967e-06" pbc="T T T"
C        0.00385508       0.01469535       3.73628116       0.00686991       0.00156785       0.00843163
C       -1.23719975       2.13021544       3.68087392       0.00678264       0.00335517      -0.00604520
C       -2.46781420       4.27021613       3.58528483      -0.00393364      -0.00289273      -0.00267048
C       -3.69455974       6.41144061       3.58896400       0.00303557      -0.00620220      -0.01347075
C       -4.93126508       8.55329205       3.67319792      -0.01480404      -0.00214277       0.00434711
C        2.46268073      -0.00368481       3.76553907       0.00212533       0.00589181      -0.00577634
C        1.24004244       2.17476280       3.85534753      -0.00056140      -0.00473217      -0.00343170
C       -0.02089315       4.26243835       3.74248028       0.00443247       0.00427132      -0.00066660
C       -1.24575104       6.41730735       3.63908647       0.00167228      -0.00469598      -0.00379995
C       -2.47116229       8.54841865       3.66734145       0.00617789       0.00272958       0.00176066
C        4.94067101      -0.01732300       3.73711372      -0.00104596       0.00339751       0.01631767
C        3.70025379       2.09298844       3.87177718      -0.00133146      -0.01114781      -0.00574563
C        1.21086052       6.37599628       3.92026444      -0.01419422       0.00754665      -0.00153148
C        0.00141370       8.52771423       3.75622236       0.01149678      -0.00366654       0.00038115
C        7.40207501      -0.00959365       3.72579941      -0.00699169       0.00955141      -0.00014706
C        6.17487104       2.12233277       3.70130194      -0.00226752      -0.00190306       0.00490775
C        4.99264241       4.27962987       3.78017020       0.00448227       0.00186123      -0.00301412
B        3.67437679       6.39237880       3.98481875      -0.00186779       0.00459703      -0.00350332
C        2.46216092       8.54947075       3.85368786      -0.00036888      -0.00693592      -0.00181302
C        9.86760973      -0.00062200       3.72482041      -0.00035665      -0.00715294       0.00545294
C        8.63552958       2.12783547       3.63108504       0.00753919       0.01190371      -0.00032699
C        7.42107295       4.26928539       3.59625370      -0.00907479       0.00330423      -0.00316464
C        6.19085876       6.42081371       3.66644267       0.00025655      -0.00025747       0.01167935
C        4.94437627       8.55947370       3.77411464      -0.00493403       0.00043534      -0.00269765
C        0.00150597       1.43880443       3.75473510       0.00365324       0.00002863       0.01039894
C       -1.24609204       3.54903376       3.63923848       0.00293633       0.00618285      -0.00740600
C       -2.46787918       5.69643018       3.58657848       0.00391055      -0.01090965      -0.00608983
C       -3.70019955       7.83789033       3.63271400      -0.00270193       0.00019168      -0.00254380
C       -4.93463774       9.97565449       3.72565596       0.00572253       0.00046963       0.00199321
C        2.46178542       1.41745114       3.85383941      -0.00292039      -0.00338719      -0.01015934
C        1.20976677       3.59039826       3.92229043      -0.00228750      -0.00744608      -0.00917600
C       -0.02039572       5.70386035       3.74187252       0.00062948       0.00327654      -0.00122621
C       -1.23710222       7.83610906       3.68101877       0.01326930      -0.00176873       0.00014239
C       -2.46914269       9.96713031       3.72510252       0.00197691       0.00624593       0.00368494
C        4.94352730       1.40725423       3.77060753      -0.00142646      -0.00331391       0.00598240
B        3.67337620       3.57482070       3.98032668       0.00101057      -0.00361690       0.00795609
C        1.24031533       7.79199001       3.85518093       0.00521450      -0.00424233      -0.00408420
C        0.00404103       9.95170646       3.73673973      -0.00396394      -0.00144493       0.00610153
C        7.40411047       1.41268913       3.67380375       0.00516240       0.01285572      -0.00432669
C        6.19075522       3.54579708       3.66859452       0.00118191      -0.00314021      -0.00087631
C        4.99269923       5.68712844       3.77902263       0.00247977       0.00315175       0.00789929
C        3.70088724       7.87430685       3.87573354      -0.00021404       0.00171657      -0.00969920
C        2.46328981       9.97026307       3.76439641      -0.01056723      -0.00781122       0.00014906
C        9.86508636       1.41781977       3.66640970       0.00515260       0.00172865       0.00176883
C        8.64210578       3.55447740       3.58589598      -0.00843234       0.00946868      -0.00060308
C        7.42090858       5.69676457       3.59653566      -0.00480405      -0.00192281      -0.00597600
C        6.17579035       7.84429488       3.70143757      -0.01455135      -0.00580337       0.00641237
C        4.94080525       9.98381317       3.73896973       0.00472959      -0.00123707       0.01020407
Mn       2.36538068       4.98317839       4.63975058       0.00170076       0.00204455       0.00400020
