49
Lattice="12.336457 0.0 0.0 -6.168228499999997 10.683685154694365 0.0 0.0 0.0 15.0" Properties=species:S:1:pos:R:3:forces:R:3 energy=-431.92544764219133 free_energy=-431.92544764219133 stress="-0.0001247772955242954 0.0017441860862644385 -1.2539910943052983e-06 0.0017441860862644385 -0.008723591741573318 5.930559790594096e-06 -1.2539910943052983e-06 5.930559790594096e-06 4.214671241090736e-06" pbc="T T T"
C        0.00640327      -0.01145874       3.66061847      -0.00819249      -0.00188294      -0.00678096
C       -1.20401723       2.15963854       3.47813734      -0.00395684       0.00239888      -0.00516197
C       -2.44414800       4.28882562       3.63099855      -0.00182209      -0.00053746       0.00557416
C       -3.69725866       6.40100347       3.82787704      -0.00289289       0.00116955      -0.00213227
C       -4.94431857       8.52147064       3.87822839      -0.00923952       0.00599111       0.00413016
C        2.47155915      -0.07468015       3.64212277       0.00530891      -0.00254066      -0.00418071
C        1.27013699       2.02300510       3.24814491       0.00510025      -0.00393944       0.00170020
C        0.02340368       4.33730881       3.53673456       0.00678910      -0.00572259       0.00741627
C       -1.22069477       6.42078867       3.90815149       0.00671114      -0.00290928      -0.00812652
C       -2.45882210       8.52864793       3.87108497      -0.00546757      -0.00468396      -0.01178817
C        4.94381450      -0.01185111       3.69294946       0.00048569       0.00705339       0.00133602
C        3.69512110       2.05061869       3.45310620       0.00079832       0.00404583      -0.00782474
B        1.34604692       6.43367275       4.23308433       0.00982707       0.00804634       0.00087170
C        0.00269981       8.58044059       3.95419384      -0.00197168      -0.00024435      -0.00220065
C        7.40378348       0.04811637       3.73284064      -0.00139705       0.00500809       0.00063037
C        6.17184413       2.15069730       3.52534134      -0.00198189      -0.00636079       0.00315267
C        4.91202042       4.28614077       3.54756666       0.01373525      -0.00659281      -0.00479452
P        3.41916476       6.26023290       4.59453600      -0.00531580       0.00513362       0.00686092
C        2.46495175       8.66456701       4.08597133       0.00127111      -0.00301395       0.00409288
C        9.88934099       0.04991466       3.74356577      -0.00498492      -0.00258069       0.00636206
C        8.65124344       2.16588840       3.55865870      -0.00089069       0.01032276       0.01080669
C        7.40067604       4.28575301       3.60818559      -0.00462722       0.00151086      -0.00419557
C        6.15597189       6.40461745       3.90836737      -0.00183579       0.00324823      -0.00560437
C        4.93339248       8.57535389       4.04125592       0.00396913      -0.00569366       0.00768132
C        0.01920597       1.40972587       3.43521557      -0.00210990      -0.00061301      -0.00272895
C       -1.19769652       3.58387189       3.51859042      -0.00195338      -0.00206061       0.00495887
C       -2.45279577       5.70196685       3.79010209       0.00203709      -0.00047419      -0.00367748
C       -3.70086827       7.81833964       3.87651049      -0.01103698       0.00142912       0.00300659
C       -4.94023339       9.93431981       3.73773163      -0.00356974       0.00379789      -0.00920627
C        2.48280786       1.31933116       3.43380750       0.00621847      -0.00236279       0.00795116
P        1.57552543       3.71494340       2.75372950       0.00238922       0.01108799      -0.00136846
C        0.02211260       5.71706308       3.89523245       0.00839728      -0.00242392       0.01136061
C       -1.22394843       7.84028930       3.93700926      -0.00317524      -0.00434254      -0.00341439
C       -2.45376772       9.93824392       3.75146383       0.00443097      -0.00012578       0.00195584
C        4.94388840       1.40914474       3.54863934      -0.00413127       0.00425264       0.00325166
B        3.54834619       3.55741783       3.42445736       0.00815236      -0.00406583       0.00013576
C        1.24865166       7.93430024       4.10437142      -0.00166197       0.00317668       0.00560209
C        0.00568220       9.99792790       3.79681760      -0.00077580       0.00400359      -0.00167607
C        7.40807611       1.45826463       3.58807314       0.00082569       0.00524230       0.00173523
C        6.15872483       3.57359788       3.51072463       0.00347566      -0.01094664      -0.00075205
C        4.94276100       5.65330682       3.90630720       0.00296230      -0.00256841       0.00375611
C        3.68062585       7.95546638       4.25405052       0.00337530      -0.00546963      -0.01398007
C        2.47700057      10.05652805       3.85173098      -0.00463260      -0.00459401       0.00056800
C        9.89521317       1.46207174       3.57784387      -0.00438966       0.00266008       0.00135483
C        8.64814335       3.58501420       3.57617661      -0.00416999       0.00780079       0.01784173
C        7.39773573       5.69831944       3.77201459      -0.00447105       0.00283065      -0.01442526
C        6.15464855       7.82632745       3.97774570      -0.00197320       0.00049421      -0.00344084
C        4.94393289       9.99594546       3.82372369      -0.00528232      -0.00737126      -0.00175653
Mn       2.10130560       4.49810888       4.75092851       0.01164921      -0.00658338      -0.00487707
