49
Lattice="12.336457 0.0 0.0 -6.168228499999997 10.683685154694365 0.0 0.0 0.0 15.0" Properties=species:S:1:pos:R:3:forces:R:3 energy=-436.52193075258435 free_energy=-436.52193075258435 stress="-0.0036563196888705343 -0.0043288061881700795 7.296496184736236e-07 -0.0043288061881700795 -0.00110860836370833 -4.64127428701095e-06 7.296496184736236e-07 -4.64127428701095e-06 -6.591165123067954e-08" pbc="T T T"
C       -0.00514841      -0.01575203       3.61459527      -0.00531916      -0.00078674       0.00089776
C       -1.26976506       2.09955988       3.54855550       0.00744947       0.00553532      -0.00555083
C       -2.48495665       4.25631222       3.52559686       0.00041467      -0.00707305      -0.00600957
C       -3.68664102       6.40699689       3.54948481      -0.00156103      -0.00691915      -0.00125130
C       -4.91685427       8.55108876       3.59216089      -0.00362289       0.00319106      -0.00065489
C        2.45441921       0.01370356       3.69773956       0.00912996       0.00183462      -0.00025756
C        1.17089806       2.10335068       3.69242261      -0.00041047       0.00198615      -0.00830177
C       -0.05818550       4.18750070       3.61501600       0.00322232      -0.00838904      -0.00308185
C       -1.22584514       6.37370260       3.64693508       0.00642631       0.00038745      -0.00054205
C       -2.45286353       8.54099414       3.66099602      -0.00305353      -0.01120553      -0.00289430
C        4.92374094       0.00287430       3.79573902      -0.00158969      -0.00638764      -0.00625484
C        3.65398870       2.14553676       3.93837435      -0.00246205      -0.00003946      -0.00361095
B        1.18119636       6.37681659       4.04580491       0.00685584      -0.00860063       0.00341832
C        0.00436636       8.53260804       3.82695244       0.00501003       0.01348079      -0.00355478
C        7.39171208      -0.01070516       3.78855154       0.00270993      -0.00678632      -0.00651933
C        6.14117295       2.14430816       3.80268170      -0.00333887      -0.00208400       0.00147342
C        4.97497415       4.33308261       3.94017346       0.00427310       0.00315213      -0.00074981
N        3.84274638       6.45999035       4.09579513       0.00283916       0.00534999      -0.00146337
C        2.49133026       8.52274220       3.91189564       0.00064912      -0.00096114      -0.00525966
C        9.85542450      -0.02430475       3.68695406      -0.00397924       0.01088363      -0.00816066
C        8.60864166       2.12078445       3.62783928      -0.00838751      -0.00023988       0.00283472
C        7.40053988       4.27338528       3.62587151       0.00214549       0.01074683       0.00559400
C        6.20399281       6.43947357       3.65289040      -0.00319680       0.00111166      -0.00161797
C        4.95015784       8.53547779       3.71378993      -0.00153812      -0.00377913       0.00500851
C       -0.02942418       1.40497619       3.59804680       0.00162184       0.00070183      -0.00457639
C       -1.26602561       3.51277825       3.51777457       0.00279454      -0.00120386      -0.00726104
C       -2.46520611       5.67852383       3.54855152       0.00294722      -0.00752588       0.00842128
C       -3.68307432       7.83373545       3.58389987      -0.00822063      -0.00729311       0.00990403
C       -4.93181476       9.97642474       3.62292653       0.00319347       0.00834790       0.00751261
C        2.42342365       1.44538582       3.78767151       0.00045670       0.00315954      -0.00250843
O        1.13491782       3.47409412       3.62353043       0.00005404      -0.00158137      -0.01374280
C       -0.02781130       5.59717708       3.72150748       0.00222193      -0.01005951       0.00475051
C       -1.21694876       7.80800042       3.71725798       0.00610490       0.00620554       0.00034517
C       -2.47208813       9.97387508       3.72172706       0.00263156      -0.01261502       0.00583317
C        4.90306434       1.44031791       3.85992801      -0.00442680      -0.00808151       0.00735775
B        3.73391621       3.60275649       4.20809686      -0.00320581       0.00985966      -0.00992980
C        1.25199146       7.83641866       3.94120037      -0.00164993       0.00312745       0.00759922
C       -0.01023713       9.96729762       3.80919783       0.00205145       0.00604285       0.00076142
C        7.37741872       1.41677556       3.73275188      -0.00508360      -0.00856944       0.00457872
C        6.16500438       3.57146310       3.77680970       0.00564615       0.00665037       0.00447343
C        5.00358557       5.76031244       3.87246499      -0.00064439       0.00334447       0.00160576
C        3.74507726       7.81670550       3.90829265      -0.00039568       0.00251717      -0.00055801
C        2.46548483       9.95011645       3.79567171       0.00215660      -0.00093555      -0.00385707
C        9.84322697       1.39970543       3.60369504       0.00072359       0.01343003       0.00313974
C        8.61793761       3.54845957       3.57138900      -0.00524775       0.00023202       0.01048697
C        7.42009712       5.69937213       3.58405614      -0.00353511       0.00538478       0.00056087
C        6.18875159       7.84765061       3.63381899      -0.00108713      -0.00307009       0.00122602
C        4.92908017       9.95437204       3.65744810      -0.00787423      -0.00379610       0.00651423
Mn       2.62800338       5.29232704       4.96018859      -0.00389897       0.00131994       0.00387142
