49
Lattice="12.336457 0.0 0.0 -6.168228499999997 10.683685154694365 0.0 0.0 0.0 15.0" Properties=species:S:1:pos:R:3:forces:R:3 energy=-437.2701474015937 free_energy=-437.2701474015937 stress="-0.005386322874830285 -0.002271741127144122 4.023636965527447e-06 -0.002271741127144122 -0.0014967100030607659 -3.4949989819203708e-06 4.023636965527447e-06 -3.4949989819203708e-06 1.369232109682555e-06" pbc="T T T"
C       -0.00677304       0.00213577       3.85080269       0.00125723      -0.00696251       0.00550058
C       -1.25585995       2.11999374       3.87383232      -0.00170179      -0.01357552       0.00252382
C       -2.48290411       4.26694070       3.87457992       0.00836488       0.00301794      -0.00814931
C       -3.68854564       6.41639278       3.83685844      -0.00453138       0.00701656       0.00044365
C       -4.92172839       8.56347084       3.84984517      -0.00287409       0.00719302      -0.00780982
C        2.46202590       0.02072947       3.81409671       0.00985509      -0.00307887       0.00412711
C        1.19834052       2.16532179       3.81083300      -0.01055771       0.00831577       0.00157693
C       -0.04875734       4.21624464       3.96867923      -0.00134775       0.00104681       0.00471274
C       -1.23596036       6.40103221       3.94670905       0.00060112       0.00900794       0.01016655
C       -2.46143352       8.55499209       3.88409387      -0.00484529      -0.00976475       0.00875036
C        4.92636670       0.01156843       3.74411250       0.00260517       0.00447599      -0.00254033
C        3.67185154       2.09445036       3.37413324      -0.00553133       0.00328813       0.00267739
B        1.27003503       6.37128022       3.98513526      -0.00920718      -0.00146521      -0.00530872
C       -0.00440756       8.55303289       3.89752538      -0.00744815       0.00460276      -0.00492938
C        7.39298224       0.00213092       3.76917168       0.00171469      -0.00780211       0.00866172
C        6.15914097       2.14278488       3.51719094       0.00353316      -0.00139200       0.00220970
C        5.04220212       4.33273697       3.19018547       0.00050018       0.00198439      -0.00512510
C        3.73638410       6.38180001       3.65853236       0.00772090      -0.00015585       0.00586234
C        2.47176082       8.54456042       3.85357375       0.00246767       0.00271174      -0.00008251
C        9.86120941      -0.00925302       3.82334319       0.00070829       0.00994832       0.00151208
C        8.62216303       2.13398695       3.75737740      -0.00701491      -0.00399034      -0.00413420
C        7.41642558       4.28397426       3.65130477      -0.00426417      -0.00768880       0.00257189
C        6.21042550       6.44075455       3.65215432       0.00506733      -0.00683731       0.00115841
C        4.93931651       8.53794279       3.80124140       0.00801688       0.00270340       0.00212217
C       -0.01509902       1.42980261       3.85554372      -0.00289220      -0.00956013      -0.00146901
C       -1.26872339       3.52845388       3.91877117       0.00715844      -0.01126761      -0.00435432
C       -2.47134195       5.69291758       3.89483151       0.00211520       0.01296673       0.00105195
C       -3.69171195       7.84463344       3.86669771      -0.01078010       0.00424871      -0.00168144
C       -4.93413394       9.98555155       3.86014745       0.00601294       0.00342771       0.00016802
C        2.44897844       1.45300977       3.68538409      -0.00841730       0.00321116       0.00216602
N        1.14725440       3.53248799       3.94247105       0.00290266       0.01075957       0.00668331
C       -0.03265304       5.64394275       3.98500610      -0.00694355      -0.00027953       0.00158038
C       -1.23083458       7.83368775       3.91786090      -0.00404940       0.00192524      -0.00043021
C       -2.47150471       9.98596680       3.82324201       0.00910496      -0.01043508       0.00094587
C        4.92088659       1.43447450       3.54167065       0.00115451       0.00772865      -0.00610362
S        3.67611776       3.57255031       2.40232598       0.00396376      -0.00119287       0.00042253
C        1.23911122       7.86223326       3.92089546      -0.00413392       0.00395663      -0.00447703
C       -0.00843547       9.98115318       3.80804795      -0.00294213       0.00139442       0.00244245
C        7.38271318       1.43041852       3.68170979      -0.00049121      -0.01186141      -0.00132721
C        6.19215328       3.56986809       3.44230686      -0.00616216      -0.00340293       0.00558348
C        4.98170774       5.74105179       3.46022498       0.00435855      -0.00451192       0.00595614
C        3.69997158       7.78770421       3.78696805       0.00745585      -0.00009506      -0.00044801
C        2.46287047       9.96835233       3.81851361       0.00627184       0.00479217      -0.00445662
C        9.85142007       1.41294913       3.82497282      -0.00708530       0.00267850       0.00111659
C        8.62749422       3.55868589       3.77021515       0.00171201      -0.00187220      -0.00830049
C        7.42325994       5.70966465       3.71124100       0.00253163      -0.00622172      -0.00737458
C        6.18497263       7.85257114       3.78176680       0.00541533      -0.00211738      -0.00603566
C        4.92911352       9.96094367       3.83714908      -0.00125927       0.00394960      -0.00035843
Mn       2.55954627       4.85646965       4.03144358       0.00191001      -0.00082074      -0.00779816
