49
Lattice="12.336457 0.0 0.0 -6.168228499999997 10.683685154694365 0.0 0.0 0.0 15.0" Properties=species:S:1:pos:R:3:forces:R:3 energy=-433.54606139858276 free_energy=-433.54606139858276 stress="-0.005396005856578202 -0.0031642799449295472 -8.032738549699535e-07 -0.0031642799449295472 -0.0049964700525131625 1.1932123432148319e-05 -8.032738549699535e-07 1.1932123432148319e-05 1.008473133853934e-06" pbc="T T T"
C       -0.00337117      -0.01396586       3.81166492      -0.00162008       0.00646719      -0.00652343
C       -1.26483938       2.10981608       4.03940299       0.00672149      -0.00706585      -0.00126018
C       -2.50268410       4.25807962       3.88306447      -0.00162493      -0.00677358      -0.00155813
C       -3.69137322       6.40480259       3.64433139       0.00782678       0.00127549      -0.00293444
C       -4.91857285       8.54758592       3.63028083      -0.00595570      -0.00204283       0.00236425
C        2.47129296      -0.02519846       3.74206537       0.00136606      -0.00606446       0.00076718
C        1.23732861       2.04095851       4.21181359      -0.00262906       0.00515097      -0.01089606
C       -0.15137710       4.27507502       4.49452707      -0.00146915      -0.00852437      -0.00340297
C       -1.26194545       6.40318663       3.94368401      -0.00022014       0.00809628       0.00176262
C       -2.45313544       8.53380884       3.68780218      -0.00761388       0.00220168       0.00088932
C        4.93467297      -0.00738645       3.59191044       0.01395877      -0.00308480       0.01080306
C        3.65875013       2.08380537       3.48294337       0.00208344       0.00689489       0.00797278
B        1.20179912       6.41177105       4.18128954       0.00444111      -0.00398440       0.01353568
C        0.00697652       8.54076286       3.76942461      -0.00113401      -0.00127506       0.00155856
C        7.40218343      -0.00867660       3.61339380      -0.00031093      -0.00271570       0.00617291
C        6.15478281       2.13763386       3.43600933       0.00709341      -0.00002048      -0.00224452
C        4.97972617       4.34314267       3.26029981      -0.00095317       0.00511637      -0.01009671
N        3.82028539       6.43830147       3.65197963      -0.00951484      -0.01078612      -0.00516553
C        2.49589927       8.53055207       3.73936327       0.00716408      -0.00209329       0.00418505
C        9.86815904      -0.00990003       3.71802875      -0.01056106       0.00704207      -0.00235838
C        8.62182242       2.12605672       3.67759630       0.00270499      -0.00020444      -0.00382536
C        7.40357789       4.27313950       3.51171100      -0.00935207       0.00750019      -0.00301220
C        6.21289528       6.44614532       3.44701441      -0.00201771      -0.00451826       0.00140728
C        4.95281665       8.54343198       3.62021976       0.00755577       0.00692815       0.00098793
C       -0.01341548       1.39802828       4.03987265       0.00083931      -0.00507373       0.00994446
C       -1.30185500       3.53153813       4.16476054       0.00047517      -0.00914972      -0.00031351
C       -2.48549579       5.68531966       3.81900947       0.00686993      -0.00230647       0.00005900
C       -3.68600773       7.82863656       3.64531202      -0.00659936       0.00023034       0.00499053
C       -4.93222276       9.96076757       3.73718646      -0.00332593      -0.00122540      -0.00039009
C        2.45919929       1.38610537       3.82750522      -0.00102061      -0.00318942      -0.00068056
P        1.28933055       3.52109973       5.19984513       0.00216362      -0.00275559      -0.01010401
C       -0.09325270       5.67422605       4.24888034      -0.00437857       0.00313803      -0.00040792
C       -1.22467543       7.82108575       3.79088146      -0.00824742       0.00749942       0.00138934
C       -2.45941476       9.95569007       3.65692461       0.00956303       0.00052439       0.01183150
C        4.91695124       1.42240486       3.47780559       0.00837430       0.00022241       0.00898171
P        3.44323492       3.66911820       2.71000570      -0.00597949       0.00609545      -0.01386823
C        1.25638513       7.85397574       3.87105006       0.00328151       0.00461194      -0.00076756
C       -0.00071769       9.96594029       3.63755374       0.00779684      -0.00632333       0.00015783
C        7.38820343       1.42077623       3.55734568       0.00574920      -0.00345679      -0.00753558
C        6.16605496       3.57045802       3.37595805      -0.00311786       0.00367131      -0.00541035
C        5.00485549       5.77005940       3.38742567      -0.00493802      -0.00308416      -0.00441942
C        3.74136675       7.81489017       3.68197139       0.01177686      -0.00528622       0.00025173
C        2.47622497       9.95833614       3.66675761      -0.00663798      -0.00008711       0.01421125
C        9.85595505       1.41282151       3.80501455       0.00344706       0.00350548       0.00346870
C        8.61842987       3.55213601       3.68057672      -0.00897050       0.00040932       0.00138486
C        7.42361421       5.69896749       3.51671890       0.00226951       0.00517103      -0.00084312
C        6.19009144       7.85145683       3.55703124      -0.00058774      -0.00408031      -0.00229820
C        4.93705009       9.96354136       3.71318396      -0.00654135       0.01347337      -0.00192935
Mn       2.73183331       5.10824099       4.39632194      -0.00820069      -0.00005389      -0.00683174
