49
Lattice="12.336457 0.0 0.0 -6.168228499999997 10.683685154694365 0.0 0.0 0.0 15.0" Properties=species:S:1:pos:R:3:forces:R:3 energy=-431.7893443873237 free_energy=-431.7893443873237 stress="-0.00030110780957927434 0.00012415362230555228 1.1824711366072114e-05 0.00012415362230555228 -0.012246636417464535 -5.9096920343117395e-06 1.1824711366072114e-05 -5.9096920343117395e-06 4.041945875955316e-06" pbc="T T T"
C        0.01173968      -0.01499100       3.48113558       0.00243484      -0.00151041       0.01118483
C       -1.20626371       2.14882078       3.63705362       0.00288238       0.00133735       0.00113848
C       -2.43425839       4.27453665       3.72777676       0.00241549       0.00185645      -0.00481892
C       -3.68207936       6.39127502       3.65099797      -0.00196538      -0.00342897      -0.00467141
C       -4.93591918       8.50852265       3.52421615       0.00241102      -0.00541040       0.00385528
C        2.47691686      -0.08174529       3.48799621      -0.00603786       0.00313091      -0.00560560
C        1.26180981       2.04167366       3.79040203       0.00137419      -0.00057024      -0.00157137
C        0.04198401       4.27062800       3.98413112       0.00556149       0.00178088      -0.00135294
C       -1.19045804       6.40408122       3.73991322       0.00433835      -0.00355939       0.00233933
C       -2.44644774       8.50595438       3.49712980       0.00126419      -0.00000660       0.01014089
C        4.94557816      -0.02302052       3.51437349       0.00194678      -0.00147411      -0.00104148
C        3.68777966       1.98042101       3.95928883       0.00558311       0.00402939      -0.00136840
B        1.38168271       6.46301592       4.06690960      -0.00479403       0.01096400       0.00326135
C        0.01481635       8.55928170       3.54174061       0.00209850       0.00486222       0.00234607
C        7.39972290       0.04652482       3.44324559       0.00142615       0.00375345      -0.00435343
C        6.16646971       2.13713359       3.72110219       0.00336882      -0.00190145      -0.00004621
C        4.96989996       4.27563957       4.08819912      -0.00786669      -0.00754077       0.00753602
P        3.41084751       6.40696512       4.48783446      -0.00763037       0.00553462      -0.00490836
C        2.46673355       8.66082374       3.61403573      -0.00423896      -0.00395297      -0.00352522
C        9.89026478       0.04814753       3.45140510      -0.00409548      -0.00692211       0.00544073
C        8.64803122       2.16237622       3.57240325       0.00070778       0.00328481      -0.00419083
C        7.41105772       4.27247884       3.74830127      -0.00274535       0.00107080      -0.00151629
C        6.16811774       6.40991752       3.79747643       0.00005409       0.00475720       0.00113040
C        4.94368592       8.57568394       3.65885717       0.00071393      -0.00016336      -0.00882001
C        0.01693990       1.40779851       3.60671049       0.00364753       0.00035101       0.00120262
C       -1.19308695       3.56111518       3.78189965       0.00622410       0.00455948      -0.00470175
C       -2.43378034       5.69220035       3.71069753       0.00017094      -0.00193002      -0.00112477
C       -3.68950199       7.80352376       3.54491275       0.00151529      -0.00461483      -0.00189059
C       -4.93488325       9.92365938       3.46242800      -0.00143428      -0.00532416      -0.00214054
C        2.46995779       1.30757323       3.71442011       0.00157032       0.00369071      -0.00590475
B        1.36568358       3.49877202       4.17427539      -0.00937718      -0.00446565      -0.00354835
C        0.04574221       5.69447345       3.94727331       0.00757147       0.00075790      -0.00723432
C       -1.20722834       7.81656183       3.58832173       0.00458226      -0.00097220       0.00114306
C       -2.44752283       9.92205917       3.46778032      -0.00419152       0.00212558       0.00993085
C        4.94374118       1.38898975       3.72536611       0.00376224      -0.00219211      -0.01180650
P        3.44444935       3.54523514       4.65060241      -0.00122645      -0.00318042       0.01281825
C        1.26193001       7.92383462       3.68408413      -0.00389125       0.00337490      -0.00505784
C        0.00930176       9.98549283       3.45670582       0.00456620       0.00327828       0.00770750
C        7.40099029       1.45794875       3.54736731       0.00432964       0.00184358       0.01001375
C        6.17385365       3.55046612       3.85084889      -0.00095290      -0.00458600       0.00437774
C        4.96149085       5.67919998       4.03332780      -0.00128526       0.00191500       0.00983062
C        3.68306741       7.98241101       3.85078923      -0.00015006      -0.00357891      -0.00623596
C        2.47608510      10.05408095       3.43463470      -0.00583781      -0.00637352       0.00034475
C        9.89150352       1.46164490       3.52014512      -0.00104970      -0.00388356       0.00732673
C        8.65520896       3.57419655       3.67707045      -0.00122597       0.00416489      -0.00591786
C        7.40928464       5.69205850       3.72884430      -0.00251421       0.00175399      -0.00237171
C        6.16330807       7.82406848       3.66553628       0.00135689       0.00138587       0.00334406
C        4.94724030       9.99300214       3.49294584       0.00159752      -0.00125300      -0.00510925
Mn       2.06190662       5.01403746       5.45180659      -0.00696484       0.00323193      -0.00557859
