49
Lattice="12.336457 0.0 0.0 -6.168228499999997 10.683685154694365 0.0 0.0 0.0 15.0" Properties=species:S:1:pos:R:3:forces:R:3 energy=-436.0939214150183 free_energy=-436.0939214150183 stress="-0.005675936172139057 0.0007296474032724631 4.029607781423866e-06 0.0007296474032724631 -0.001062392762974598 2.5450158506081653e-06 4.029607781423866e-06 2.5450158506081653e-06 -9.720374832304718e-08" pbc="T T T"
C        0.00317289      -0.00587224       3.74562529      -0.00494162      -0.00431997       0.00036721
C       -1.23706419       2.12253704       3.76630558      -0.00659825      -0.00098959      -0.01157615
C       -2.49978807       4.26614152       3.61290277       0.01388174       0.00723354      -0.00634440
C       -3.71949970       6.41423568       3.52843735       0.00576344      -0.00704766       0.01046803
C       -4.93417361       8.55402712       3.61765158      -0.00759481       0.00427896      -0.00110457
C        2.48261411       0.02112813       3.72105210       0.00686562      -0.00568056      -0.00195750
C        1.25090630       2.12868297       3.95104289       0.00285209      -0.00267045      -0.00861992
C       -0.09574217       4.27640705       3.96266127      -0.01050617      -0.00222426      -0.00299261
C       -1.28331542       6.42239016       3.72847843      -0.00328086       0.00074847       0.00094938
C       -2.47415930       8.55521426       3.64286321      -0.00359262       0.00158843      -0.01763615
C        4.93544850       0.00068467       3.67442015       0.00587756       0.01245139      -0.00818852
C        3.74750903       2.12298243       3.77561634      -0.00627027      -0.00253520      -0.00558424
B        1.14912849       6.43341855       4.17828166      -0.00094293      -0.00214068       0.01031136
C       -0.00859368       8.55064403       3.79081871       0.00203227       0.00196331      -0.00740104
C        7.41310699      -0.01855088       3.68505103       0.00839003      -0.01212836      -0.00210714
C        6.18132159       2.12374358       3.57541859      -0.00291978      -0.00236741       0.00909461
C        4.98749683       4.26286621       3.66795578      -0.00042854      -0.00602740       0.00099892
N        3.78637470       6.39790575       3.98232777      -0.01414255       0.01302486      -0.00388890
C        2.49295056       8.51858596       3.87646499       0.00634262       0.00825121       0.00621320
C        9.87584481      -0.01869776       3.72173696       0.00640014      -0.00454646       0.00042285
C        8.64106797       2.12062051       3.59490207      -0.01012324       0.00693397      -0.00323057
C        7.39559941       4.27141472       3.49620447       0.01018048      -0.00055696       0.00050287
C        6.16463862       6.40793320       3.57161485       0.00505602       0.00120463      -0.00151749
C        4.94014823       8.52083411       3.73939579      -0.00579589      -0.00412902      -0.00970469
C        0.00823801       1.42444283       3.83081197      -0.00308502       0.00035421       0.01090314
C       -1.27662091       3.54248478       3.76674251      -0.00240390      -0.00195060      -0.00884383
C       -2.50571178       5.69692872       3.59535127       0.00756686       0.00029737       0.00876396
C       -3.70623315       7.84138545       3.57925911      -0.00839807      -0.00208592       0.01029833
C       -4.92483612       9.98189228       3.69817309      -0.00402112       0.00544832      -0.00293295
C        2.50352526       1.45458722       3.82907163       0.00356445      -0.00866217       0.00502729
B        1.17866543       3.57395266       4.21682631      -0.00246873       0.00617838       0.00977203
C       -0.10786696       5.68831769       3.93709450      -0.00936698      -0.00336366       0.00461346
C       -1.24732588       7.84443720       3.71932902      -0.00544320       0.00000264      -0.00284211
C       -2.46652930       9.98350367       3.67573778       0.01042482       0.00432583      -0.00863440
C        4.94721427       1.42903467       3.65783899      -0.00340610       0.00714907      -0.01091194
O        3.81172494       3.51173483       3.80197754      -0.01068777      -0.00292644      -0.00512649
C        1.23721066       7.86892022       3.93817662       0.00711805       0.00330362       0.00509797
C       -0.00028856       9.97084394       3.70355796       0.00379788       0.00478045       0.00170350
C        7.40594095       1.40995421       3.59721884      -0.00718047      -0.00861642       0.00943855
C        6.16980130       3.54830085       3.53637833       0.00497527      -0.00277080       0.01048561
C        4.94646318       5.68930149       3.70699420      -0.00318790       0.00125544      -0.00060101
C        3.72825482       7.77190537       3.87960539      -0.00492979       0.01317887      -0.00220762
C        2.48349943       9.94547202       3.75097685       0.01247802      -0.00362271      -0.00340545
C        9.87150973       1.40641048       3.68048462      -0.00958713      -0.00179858      -0.00131352
C        8.62212722       3.54933095       3.54112111       0.01302832       0.01212953       0.00647520
C        7.38643109       5.69288265       3.49956990       0.00996026      -0.00274030       0.00965085
C        6.16872731       7.82975564       3.63331613      -0.00373286       0.00060918      -0.00454319
C        4.93901448       9.95190758       3.73434497       0.00125510      -0.01181275       0.01184885
Mn       2.50946498       5.12158497       4.83753133       0.00722556      -0.00897732      -0.00019076
