49
Lattice="12.336457 0.0 0.0 -6.168228499999997 10.683685154694365 0.0 0.0 0.0 15.0" Properties=species:S:1:pos:R:3:forces:R:3 energy=-437.0132040513778 free_energy=-437.0132040513778 stress="0.0008631034760364946 -0.0018937587422876408 -3.389799047134769e-06 -0.0018937587422876408 -0.002683545837813433 7.208192797867334e-06 -3.389799047134769e-06 7.208192797867334e-06 -8.435090479396073e-07" pbc="T T T"
C        0.00472641      -0.01070665       3.69061603      -0.00603370       0.00133615       0.00003134
C       -1.23276431       2.12979299       3.70796020      -0.00223125      -0.00634406      -0.00257601
C       -2.46985413       4.25864600       3.64793483       0.00136483      -0.00168806      -0.00177563
C       -3.70314047       6.39101195       3.59792890      -0.00185245       0.00607226      -0.00556590
C       -4.93310636       8.52729521       3.62600614       0.00167559      -0.00492349      -0.01245000
C        2.47179999      -0.04843889       3.69925509      -0.00614843      -0.00644041      -0.00246562
C        1.25283738       2.08735863       3.77440827       0.00488114       0.00778310      -0.00322166
C        0.02276216       4.27385967       3.76679306       0.00458302       0.00105186       0.00209573
C       -1.24902105       6.40239373       3.65709170      -0.00001645       0.00285162       0.00306703
C       -2.46182155       8.52512278       3.65103469      -0.00189400      -0.00645423      -0.00536168
C        4.93705314      -0.01854285       3.72315308       0.00410268       0.00209441       0.00393441
C        3.67412149       2.10144020       3.78891610       0.00184797       0.00613226      -0.00291978
C        1.19157787       6.39652559       3.96375199      -0.00047351      -0.00408247       0.00285831
C        0.01262686       8.52411683       3.75999334      -0.00332355       0.00968017       0.00342872
C        7.40351310      -0.01039739       3.75055653       0.01191666       0.00438646       0.00431458
C        6.14645063       2.14622181       3.72155003       0.00246123       0.00533218       0.01054324
C        4.86275288       4.32811577       3.77003877      -0.00521731      -0.00330315      -0.00213602
O        3.84022684       6.49819101       4.06313561       0.00508540       0.00096282      -0.00682879
C        2.50017633       8.51619158       3.86567350      -0.00613495      -0.00291404       0.00370643
C        9.86844242      -0.00807620       3.73133354      -0.00224381      -0.00340048      -0.00327797
C        8.62541610       2.13174269       3.68777835      -0.00600863      -0.00565529       0.00704713
C        7.37187268       4.26615108       3.64444133      -0.00228648       0.00559669       0.00916076
C        6.17625476       6.41768537       3.62123969      -0.00063304      -0.00500656      -0.00146142
C        4.95085941       8.54946777       3.70478625       0.00748071       0.00051211       0.00202831
C        0.00707503       1.41827401       3.72451703       0.00313177       0.00027286       0.00232283
C       -1.21464511       3.55355672       3.69621408       0.00701245      -0.00471149      -0.00002153
C       -2.47179290       5.68010845       3.61969378      -0.00219267       0.00613110       0.00361725
C       -3.69502529       7.81429739       3.61386294      -0.00065145      -0.00271981      -0.00661756
C       -4.93366242       9.94834520       3.66936708      -0.00938993      -0.00663419      -0.00600188
C        2.46745415       1.36634629       3.75936805       0.00165043       0.00133816      -0.00115440
B        1.42708163       3.59533247       3.85914040      -0.00205347       0.00814121      -0.01702834
C       -0.01469455       5.69671698       3.77469142      -0.00194901       0.00056879       0.00612197
C       -1.22767977       7.82020752       3.68195702      -0.00025398       0.00318180      -0.00947610
C       -2.45808019       9.94202700       3.68961702      -0.00048607      -0.00587569      -0.00286361
C        4.91998467       1.41937242       3.74744461       0.00259845       0.00838970      -0.00120799
B        3.47330783       3.61398987       3.86442737      -0.00023894       0.00033947       0.00415853
C        1.25102738       7.78551514       3.87401869      -0.00924687      -0.00318641      -0.00013457
C        0.00381081       9.95241522       3.74297494       0.01047519       0.01225366       0.00607158
C        7.38807883       1.42243494       3.71387912      -0.00164776      -0.00139083       0.00923777
C        6.11321128       3.57727003       3.70165436      -0.00140869       0.00216411       0.00528243
C        4.97308811       5.73202421       3.76178550       0.00078613      -0.00679702      -0.00034356
C        3.74917871       7.86972721       3.86019591       0.00236451       0.00255456      -0.01206739
C        2.47573954       9.94941873       3.77895745       0.00397459      -0.00156898       0.00030727
C        9.86657396       1.42189213       3.70285505      -0.00581788      -0.00510413       0.00417666
C        8.62241235       3.55542575       3.65150480      -0.00250338      -0.00227844       0.00944565
C        7.39832948       5.68239444       3.60515000      -0.00052642       0.00634464      -0.00257856
C        6.17818418       7.83347767       3.63484418       0.00508393      -0.00409480      -0.00172797
C        4.93776295       9.97372936       3.70134556      -0.00371657       0.00267098       0.00496929
Mn       2.37691003       5.17908133       4.90987623       0.00410397      -0.01356910       0.00333672
