49
Lattice="12.336457 0.0 0.0 -6.168228499999997 10.683685154694365 0.0 0.0 0.0 15.0" Properties=species:S:1:pos:R:3:forces:R:3 energy=-440.271069535521 free_energy=-440.271069535521 stress="-0.006543344514605384 0.000990263599983619 -2.9986914452366186e-06 0.000990263599983619 -0.0048275038293771584 -2.4025981261535356e-06 -2.9986914452366186e-06 -2.4025981261535356e-06 1.825582661958174e-08" pbc="T T T"
C       -0.00177042      -0.00601443       3.70112544       0.00935687       0.00193408       0.01293908
C       -1.23390552       2.13311742       3.66868557       0.00312105       0.00359634       0.00223670
C       -2.47886345       4.27534301       3.60479436       0.00440781      -0.00224910       0.00710839
C       -3.70443598       6.41094217       3.61864805      -0.00207144      -0.00248799      -0.01825720
C       -4.93624759       8.54676369       3.67231935      -0.01129712      -0.01023204       0.00510186
C        2.47012683      -0.00368382       3.76744592       0.00414119      -0.00488854       0.00336672
C        1.24080819       2.09717814       3.80673355      -0.00138688       0.00298453      -0.00592084
C       -0.05062327       4.30263862       3.72816626       0.00180201      -0.00533545       0.00713859
C       -1.25787714       6.43100415       3.66862349       0.00683619       0.00062545       0.00208834
C       -2.47571185       8.55448972       3.70830735      -0.00094744       0.00539225      -0.00207485
C        4.93482535       0.00373288       3.78370189       0.00255846       0.00195301       0.00670510
C        3.69667164       2.17247740       3.86918627       0.00286861      -0.01066787       0.00280679
C        1.21706902       6.38208690       3.92511538      -0.00643805       0.00151343       0.00826882
C       -0.00387956       8.53844437       3.79623204       0.00146412       0.00201037       0.00211754
C        7.40237451      -0.00720742       3.75945170      -0.01355989       0.00843128       0.00194998
C        6.17768501       2.11982188       3.72876529       0.00153686       0.00013649       0.00430825
C        4.96120225       4.24376855       3.76963584      -0.00068602       0.00756232      -0.00286276
B        3.68069161       6.38576383       3.89121890      -0.00007089      -0.01331715      -0.00033878
C        2.46069629       8.54965309       3.83732254       0.00167470      -0.00068122       0.00243348
C        9.86769439      -0.00306157       3.71090296       0.00037131       0.00713749       0.00931795
C        8.63699526       2.12844648       3.65618631       0.00525195       0.00374755      -0.01009691
C        7.41053008       4.26481448       3.62231292      -0.00535405      -0.00102782      -0.00579901
C        6.17991273       6.40609632       3.65606937      -0.00205417       0.00283803       0.01357712
C        4.93749154       8.54867393       3.72989274      -0.00597972      -0.00282391      -0.00504147
C       -0.00290870       1.41809832       3.71851779       0.00021231       0.00202376       0.00892696
C       -1.24593402       3.56043851       3.64339131       0.00341213      -0.00243712       0.00279721
C       -2.47685767       5.70144483       3.61579926       0.00543335      -0.00012948      -0.00452045
C       -3.70320631       7.83765711       3.66056924      -0.00443411      -0.00295842      -0.01589793
C       -4.93384381       9.96985886       3.71069695       0.00770325      -0.01201998       0.01341049
C        2.47334230       1.41718057       3.83628577      -0.00521914      -0.00498785      -0.01521197
B        1.25297356       3.58161117       3.87932488      -0.00577803      -0.00067059      -0.00782613
C       -0.02717797       5.72302399       3.75533002       0.00300164      -0.00491921       0.00012207
C       -1.24402103       7.84616409       3.72410064       0.00337917       0.00580054      -0.00255474
C       -2.46828128       9.97302433       3.75974888       0.00640107       0.00488413      -0.00330978
C        4.93730760       1.42794288       3.79885172       0.00582974      -0.00351992       0.00029129
C        3.71613756       3.58473499       3.93171420       0.00863890      -0.01075697       0.00723050
C        1.23693370       7.79455153       3.86716806       0.00122350      -0.00219802      -0.00486554
C       -0.00091812       9.96247730       3.78410540      -0.00854478       0.00066165      -0.00364374
C        7.40955201       1.41132599       3.70933342       0.00189961       0.00511320      -0.01083133
C        6.19174265       3.53539595       3.68068163      -0.00568637       0.00042759      -0.01052507
C        4.98455523       5.66426350       3.74432053       0.00245340       0.00649660       0.00127566
C        3.69358351       7.87003548       3.81674557      -0.00188469      -0.01272260      -0.01102145
C        2.46407160       9.97012382       3.76788488      -0.00863470       0.00838340       0.00016605
C        9.87051126       1.41977773       3.66672018       0.00499723       0.01039508       0.00403847
C        8.63809980       3.55520512       3.61383384       0.00170743       0.00227794      -0.00484222
C        7.41261326       5.69095916       3.61424197      -0.00899357      -0.00026830       0.00365767
C        6.16841327       7.83343219       3.67924085      -0.01305984      -0.00314904       0.00452088
C        4.93545115       9.97253582       3.70479418       0.00325079       0.00479655       0.00847482
Mn       2.46379385       4.98199609       4.59047486       0.00714624       0.01332553      -0.00093462
