49
Lattice="12.336457 0.0 0.0 -6.168228499999997 10.683685154694365 0.0 0.0 0.0 15.0" Properties=species:S:1:pos:R:3:forces:R:3 energy=-439.91041204078397 free_energy=-439.91041204078397 stress="-0.006774575259625932 -1.7874304311548757e-05 -5.029042884706761e-06 -1.7874304311548757e-05 0.0011390203600488563 8.424968657642961e-07 -5.029042884706761e-06 8.424968657642961e-07 -4.5625773491248093e-07" pbc="T T T"
C       -0.00151210      -0.00794436       3.73890955       0.00011654       0.00378394       0.00287129
C       -1.24381498       2.12068475       3.54029411      -0.00059529       0.00098025       0.00457116
C       -2.48919397       4.26994120       3.74203485       0.00478265      -0.00297686       0.01174245
C       -3.70519037       6.41614169       3.94883321      -0.00257791       0.00545062      -0.00270234
C       -4.93041678       8.55985127       3.93866105      -0.00313388       0.00162590       0.00604278
C        2.46731195       0.02344967       3.80977136      -0.00429359       0.00186881       0.00184137
C        1.23632209       2.06299600       3.31691737      -0.00297895      -0.00996669       0.00143175
C       -0.13851227       4.31734137       3.19562473       0.00387111      -0.00071452      -0.00401639
C       -1.29147107       6.43517934       3.69907985       0.00394142      -0.00711030      -0.00538428
C       -2.47724183       8.56871577       3.89597102      -0.00303546      -0.00465942       0.00365006
C        4.93646185       0.01180918       3.86364826       0.00422767       0.00012276       0.00170162
C        3.70582444       2.19846482       3.76042393       0.00583526      -0.00050402       0.00141406
C        1.14272841       6.40477154       3.48371859      -0.00096463      -0.00591085       0.00369728
C       -0.00957363       8.53978984       3.78013878      -0.00042275       0.00167737       0.00637926
C        7.41299952      -0.03107984       3.83859232      -0.00345107       0.00964904       0.00907571
C        6.18612299       2.12038090       3.92753373       0.00552365       0.00033207      -0.00587678
C        4.97225105       4.27145613       3.96251875      -0.00139514      -0.00225397      -0.00025601
N        3.80858295       6.40206409       3.84344593      -0.00025437      -0.00581042       0.00151937
C        2.48332516       8.48692718       3.77506488      -0.00486663       0.00698420      -0.00319313
C        9.87047962      -0.03176953       3.76935116       0.00088997      -0.00131863       0.01542328
C        8.64277277       2.11648244       3.82939409      -0.00354133      -0.00434962      -0.00036358
C        7.41859436       4.26480509       3.98450497      -0.00279389       0.00260376      -0.00069483
C        6.19671422       6.42402399       4.02300529       0.00315313       0.00212433       0.00929179
C        4.94320186       8.52355479       3.88044007       0.00547596      -0.00173105       0.00342516
C       -0.00833341       1.40966670       3.52495420      -0.00266480       0.00053486       0.00443249
C       -1.27413898       3.55222407       3.48969802       0.00469859      -0.00105591       0.00437262
C       -2.49309751       5.69914689       3.80812070       0.00058977       0.00076003      -0.00393394
C       -3.70194881       7.84694913       3.94613741      -0.00625921       0.00012424      -0.00411497
C       -4.93155466       9.98516366       3.83627451      -0.00354546      -0.00176423      -0.00601361
C        2.46713916       1.44641034       3.63946292       0.00158314      -0.00050011      -0.00278960
S        1.22040273       3.55883898       2.40149391      -0.00936250       0.00873068      -0.00149911
C       -0.08592569       5.72890506       3.43097932       0.00046897      -0.00202620      -0.00747285
C       -1.25343580       7.85245625       3.80948270       0.00121305      -0.00484135      -0.00746331
C       -2.46931305       9.99169831       3.87664208      -0.00152024      -0.00018444      -0.00298644
C        4.94010920       1.43821606       3.86594020       0.00911283       0.00096668      -0.00562959
C        3.75497905       3.59968542       3.81000132      -0.00460197      -0.00144422       0.00720047
C        1.22577697       7.78129646       3.68789773      -0.00289000      -0.00413757      -0.00425136
C        0.00141547       9.96063015       3.84170197       0.00299722       0.00495556       0.00175837
C        7.41752027       1.39554557       3.88245060      -0.00219516       0.00118042      -0.01035321
C        6.20154219       3.54373819       3.98951812      -0.00074605      -0.00158653      -0.00554780
C        4.99038766       5.71976683       3.98044796       0.00514850      -0.00229015      -0.00721449
C        3.73048092       7.77986843       3.83241825       0.00010925      -0.00162415       0.00131142
C        2.47637580       9.91929088       3.80287542      -0.00618490       0.01031581      -0.00320157
C        9.87600298       1.40395912       3.71862161      -0.00266233      -0.00213879      -0.00354343
C        8.63860842       3.54651250       3.87217487      -0.00159748      -0.00185554      -0.00379207
C        7.41708002       5.69437807       4.00945700      -0.00120818       0.00504172      -0.00176833
C        6.17986610       7.84113713       3.96205958       0.00413258       0.00108719       0.00321219
C        4.93417349       9.94885370       3.79852106       0.00385396       0.00096412       0.00173851
Mn       2.48651457       5.06617391       3.58951024       0.00801793       0.00089117      -0.00404142
