50
Lattice="12.336457 0.0 0.0 -6.168228499999997 10.683685154694365 0.0 0.0 0.0 15.0" Properties=species:S:1:pos:R:3:forces:R:3 energy=-449.81990321955135 free_energy=-449.81990321955135 stress="-0.004085982724140691 0.0024879240773996417 6.321042013193383e-06 0.0024879240773996417 -0.006974272733523145 5.018901762042797e-06 6.321042013193383e-06 5.018901762042797e-06 -7.227446011979915e-06" pbc="T T T"
C       -0.00951677      -0.00451585       3.76948667       0.00057007       0.00433389       0.00912080
C       -1.22834831       2.14167470       3.85491178      -0.01376035       0.00801114      -0.00339183
C       -2.45883465       4.27296202       3.85341394      -0.00196039      -0.01337489      -0.00029224
C       -3.70854626       6.40138111       3.76743925       0.00955711       0.00287609       0.00927935
C       -4.96293869       8.52877059       3.70320535       0.00508612       0.00304547       0.00693477
C        2.44904230      -0.02106007       3.77322596       0.00959001      -0.00151648      -0.00733638
C        1.23360307       2.12282362       3.85539629       0.00110031      -0.00214060       0.00203416
C        0.01298627       4.27944095       3.95264246       0.00026742      -0.00354145      -0.00440858
C       -1.24448873       6.41469748       3.85770574      -0.00169498       0.00114070       0.00080261
C       -2.49304366       8.53920267       3.77261156       0.00086392       0.00547472      -0.00162575
C        4.92048845      -0.00979332       3.74966630      -0.00910570      -0.00863995      -0.00245866
C        3.69362171       2.10166156       3.75013550       0.00392745       0.00982587      -0.00152744
C        2.49717786       4.21376835       3.93717079      -0.00570478      -0.00333413      -0.00254310
C        1.19842191       6.46296410       3.94307926      -0.01366407       0.00387967      -0.00936152
C       -0.03214302       8.55542733       3.75394210       0.00485004       0.00070116      -0.00244373
C        7.38783042       0.00763938       3.74119638      -0.00052538       0.00513270       0.00174027
C        6.16932097       2.11833207       3.73922354       0.00234889      -0.00541382       0.00275127
C        4.95056059       4.22656557       3.61462506      -0.00382463       0.00785664       0.00627195
S        3.63310077       6.37074671       2.55806641       0.01520559       0.00616515       0.00797240
C        2.43626180       8.58161833       3.61952345       0.00642941      -0.00492714       0.00636159
C        9.86544255       0.01202671       3.74293696      -0.00379754       0.00779592      -0.01068634
C        8.63915214       2.13728677       3.79420872       0.00521724      -0.00021427       0.00759390
C        7.41183657       4.26161872       3.73930535       0.00417610      -0.00503688      -0.00841179
C        6.16139975       6.39516172       3.58855850      -0.00463885      -0.00128211      -0.00685075
C        4.91989380       8.54668241       3.58927072      -0.00667283      -0.00744176      -0.00254691
C       -0.00090355       1.42164336       3.83534983      -0.01010870       0.00892764       0.00191287
C       -1.21901899       3.56792527       3.89750638      -0.00509354      -0.00097067      -0.01098280
C       -2.46898901       5.69596159       3.83445597       0.00473089      -0.01094313       0.00261114
C       -3.72260558       7.82262643       3.74855036       0.00725973       0.00605196       0.00511514
C       -4.95427813       9.95599122       3.75006213       0.00807782       0.00328337       0.00191231
C        2.45507978       1.40059426       3.79654076       0.00812960      -0.00107781       0.00361459
C        1.25396487       3.55868598       3.92802043      -0.00152961       0.00390132       0.01030807
C        0.00914686       5.71448122       3.93166676       0.00212747      -0.00682820       0.00553750
C       -1.25881253       7.83363513       3.79886798      -0.00045098       0.00635168       0.00050884
C       -2.48547992       9.95931198       3.76218008      -0.00156202      -0.00402050      -0.00773960
C        4.93120394       1.40650447       3.73792042      -0.00333483      -0.00695996      -0.00003769
C        3.69898206       3.52148497       3.72573031      -0.00346991       0.01408907      -0.01048741
C        1.20010970       7.84992385       3.73188357       0.00709803      -0.00312300      -0.01376475
C       -0.01583849       9.97486535       3.73888247      -0.00358411       0.00022090       0.00747097
C        7.40097599       1.42238883       3.76059117       0.00919096       0.00314103       0.01721547
C        6.18417100       3.53724772       3.69965393      -0.00087652      -0.00213730      -0.00383690
C        4.96952749       5.63746560       3.44322528      -0.00884248      -0.00399178      -0.01174697
C        3.66757885       7.89368769       3.44445924      -0.00807136      -0.01066195      -0.00898153
C        2.45593893       9.99466326       3.70361826      -0.00039793       0.00363710      -0.00308990
C        9.87347554       1.43281153       3.80611830      -0.00392578       0.00544489      -0.00180604
C        8.64635853       3.55839905       3.80388949       0.00210435      -0.00857542      -0.00071674
C        7.39930803       5.68544356       3.71070096       0.00302374       0.00234413       0.00569293
C        6.14095590       7.81729318       3.60520108      -0.00366172      -0.00089624      -0.00710416
C        4.92437770       9.97334638       3.71337789      -0.00457317      -0.00084012       0.00447000
Mn       2.79076937       5.88124043       4.78125817       0.00389986      -0.00574264       0.01694659
