49
Lattice="12.336457 0.0 0.0 -6.168228499999997 10.683685154694365 0.0 0.0 0.0 15.0" Properties=species:S:1:pos:R:3:forces:R:3 energy=-432.14723746971987 free_energy=-432.14723746971987 stress="-0.00389933155984387 0.0016209843919310972 1.889705012177296e-05 0.0016209843919310972 -0.006885439908777641 -1.7755045317217909e-06 1.889705012177296e-05 -1.7755045317217909e-06 5.391043994469476e-06" pbc="T T T"
C        0.00810935      -0.01624515       3.66352494      -0.00210462       0.00246595       0.00129078
C       -1.21067325       2.14048265       3.56865069      -0.00337672       0.00121979      -0.00764858
C       -2.44862985       4.27452720       3.66839587      -0.00030541       0.00097670       0.00778907
C       -3.69015691       6.40295616       3.75325293       0.00561042       0.00458025       0.00435841
C       -4.93712856       8.52728043       3.70911962      -0.00709008       0.00357837      -0.00132112
C        2.47206880      -0.03754705       3.87129944       0.00408056       0.00342492      -0.00085116
C        1.28185947       2.05928465       3.53698813      -0.00356677      -0.00073590      -0.00903575
C       -0.04098183       4.31961649       3.23741037       0.00020671      -0.00431698       0.00570779
C       -1.24844790       6.43545302       3.55657741       0.00123270      -0.00002527       0.00188526
C       -2.46604397       8.54270441       3.79207205       0.00577068       0.00010531       0.00507071
C        4.94570904      -0.00860746       4.00824869      -0.00043411       0.00091988      -0.00609393
C        3.68801649       2.05177639       4.28406362      -0.00034017       0.00081112       0.00844228
C        1.18883203       6.48407833       3.30988779       0.00583550      -0.00280857       0.00683739
C       -0.00288216       8.56820534       3.70715302      -0.00061437       0.00091208      -0.00697929
C        7.41324953       0.01436233       3.88934852       0.00693792      -0.00868485      -0.00251748
C        6.19848612       2.12892053       4.20147235       0.00029312      -0.00380096      -0.00097483
C        5.04347769       4.31735417       4.34709699      -0.01056615       0.00151160      -0.00800794
P        3.52022102       6.17278022       3.02195510      -0.00172223      -0.01048205       0.01422784
C        2.46439630       8.59148469       3.56448094      -0.00172293      -0.00140827      -0.00303060
C        9.88546160       0.01217156       3.70261692       0.00816814       0.00559235       0.00280909
C        8.66228924       2.13944222       3.87526489       0.00037642       0.00004090       0.00347350
C        7.44368483       4.26831157       3.98760233       0.00876173       0.00278476       0.00057950
C        6.19149693       6.39825111       3.75889203      -0.00212644      -0.00131691      -0.00166998
C        4.93228787       8.53520580       3.55816701      -0.00541737       0.00065601      -0.00203983
C        0.02261017       1.41226155       3.57432785      -0.00497589      -0.00099384      -0.00890289
C       -1.22146006       3.56463614       3.48844934      -0.00637047      -0.00016239       0.00230585
C       -2.46036903       5.69959706       3.66430364       0.00243727      -0.00007868      -0.00083943
C       -3.69799534       7.82599083       3.74960989      -0.00024704       0.00637201       0.00289680
C       -4.93092135       9.94770990       3.73590177      -0.00045356       0.00482648       0.00170108
C        2.48153651       1.37815241       3.91662449       0.00026137       0.00281925      -0.00121618
P        1.44236016       3.56562452       2.59531524       0.01659054      -0.00126458      -0.00422604
C       -0.03242629       5.75061040       3.33462692      -0.00198385      -0.00194403       0.00068277
C       -1.23521484       7.84871693       3.69453935       0.00441606      -0.00173175       0.00888658
C       -2.45801089       9.95546932       3.91048170       0.00359307       0.00013406      -0.00287798
C        4.94680005       1.41030953       4.20018793      -0.00133358      -0.00102515      -0.00025413
P        3.54302835       3.66122090       5.02410548      -0.01530730      -0.00810330       0.00487045
C        1.22378269       7.87791439       3.52827153      -0.00166193      -0.00067955      -0.00461128
C        0.00685010       9.98095488       3.88454894      -0.00077409      -0.00010388      -0.00530717
C        7.42321769       1.43031098       4.00984753       0.00188838      -0.00809444      -0.00346441
C        6.22801041       3.55420494       4.22831337       0.00248277       0.00454971      -0.00134727
C        4.99859076       5.64325774       3.86346609      -0.01195163       0.00854401      -0.00732416
C        3.68156991       7.88544542       3.42176113      -0.00227374      -0.00180786       0.01289293
C        2.47527097      10.00029518       3.73104836       0.01127262      -0.00202878       0.00225319
C        9.89510057       1.43592626       3.72290104       0.00112022       0.00603002      -0.00293670
C        8.66879014       3.56160397       3.85744622       0.00459902      -0.00035225       0.00249167
C        7.42685728       5.68785766       3.84412533       0.00507758       0.00298319       0.00331074
C        6.16924991       7.81655344       3.63570084      -0.00724378      -0.00456612      -0.01033600
C        4.94215436       9.96724407       3.63611377       0.00085792       0.00310565       0.00295818
Mn       2.04330922       4.99443107       4.12916017      -0.00790650      -0.00242801      -0.00390772
