49
Lattice="12.336457 0.0 0.0 -6.168228499999997 10.683685154694365 0.0 0.0 0.0 15.0" Properties=species:S:1:pos:R:3:forces:R:3 energy=-440.2234066191118 free_energy=-440.2234066191118 stress="-0.007623953933214176 -0.0009476950883406937 6.07043295861e-06 -0.0009476950883406937 -0.000937459748286798 3.7065945483103905e-06 6.07043295861e-06 3.7065945483103905e-06 -4.400396072265328e-07" pbc="T T T"
C       -0.00266691       0.01089889       3.86667566      -0.00000227      -0.00562474       0.00684873
C       -1.25725254       2.11831724       3.92132061      -0.00543498      -0.01302849      -0.00767661
C       -2.49083356       4.26447693       3.94159831       0.01282805       0.00395832      -0.00751690
C       -3.69689142       6.41589639       3.89150983      -0.00339051       0.01257684       0.00261480
C       -4.92328509       8.56838700       3.87047611       0.00211174       0.00288794      -0.00616852
C        2.46658156       0.01824808       3.80421534       0.00907305      -0.00306887      -0.00249336
C        1.22737289       2.18726542       3.80355569      -0.01897601       0.00486491       0.00305538
C       -0.04990390       4.25395443       3.98789787      -0.01052904       0.00325497       0.00470571
C       -1.26614938       6.41887300       3.98315890       0.00294493       0.00703796       0.00093818
C       -2.47330470       8.55976676       3.89381507       0.00533219      -0.00537901       0.01048552
C        4.93485983      -0.00719308       3.71272224      -0.00014080       0.00149201       0.00002743
C        3.68799144       2.06908747       3.33533777       0.00399034      -0.01042106       0.01059783
C        1.18243390       6.37418456       3.90785744       0.00981818      -0.00648198      -0.00230000
C       -0.00627498       8.52904197       3.86260860      -0.00699223       0.00311169       0.00229305
C        7.39781185      -0.02325525       3.74797788      -0.00012412      -0.00567168       0.01587229
C        6.17041814       2.12553564       3.51486115       0.00139780       0.00453553       0.00228881
C        5.05308256       4.32346049       3.21423714      -0.00759597       0.01451820      -0.01022852
C        3.77524914       6.40676942       3.56769526      -0.00440051      -0.00999868       0.00159752
C        2.46431639       8.50972565       3.79887949       0.00075108       0.00645425       0.00475922
C        9.85790519      -0.02276840       3.83284492       0.00346907       0.01784983       0.00003505
C        8.62333230       2.12047146       3.79274116      -0.00433103      -0.00145028       0.00551821
C        7.41810383       4.27392692       3.69850396      -0.00437732      -0.01069159       0.00246423
C        6.22102841       6.44008901       3.67535168       0.00392345      -0.01477594      -0.00219313
C        4.94860525       8.54703853       3.78741036       0.00541148      -0.00051015       0.00316118
C       -0.00931531       1.43414249       3.88102355      -0.00933231      -0.01088246      -0.00474568
C       -1.27637707       3.53798127       3.97679779       0.00488170      -0.01392758      -0.00490454
C       -2.48404210       5.69399138       3.95635752       0.00042230       0.01495413      -0.00349512
C       -3.69835498       7.84636222       3.89918510       0.00150013       0.00909391      -0.00083849
C       -4.93281366       9.98966806       3.86838047       0.00714393       0.00205626      -0.00008349
C        2.46429162       1.44219556       3.66226387      -0.01220199       0.00166969      -0.00153718
C        1.17851874       3.58148506       3.89827566      -0.00824904       0.00158194       0.01465598
C       -0.04899065       5.69925570       3.98759498      -0.00249583       0.00209623      -0.00199942
C       -1.24601656       7.84091718       3.92256711      -0.00142321       0.00123406      -0.00293416
C       -2.47051349       9.98258868       3.80786676       0.00846323      -0.00834171       0.00578933
C        4.93716505       1.41288976       3.51096444       0.00782081       0.00065539      -0.01081092
S        3.67023125       3.58235305       2.45039164       0.01451107       0.00813657       0.00135283
C        1.22979693       7.78231780       3.85742267      -0.00274141       0.00157343      -0.00097826
C       -0.00080485       9.95105585       3.77391333      -0.00705035       0.00261593       0.00194758
C        7.38977508       1.40958481       3.68579995      -0.00079089      -0.00732102       0.00211630
C        6.19971807       3.55616181       3.46482196      -0.01274296       0.00012158       0.00593536
C        5.00750705       5.73588449       3.45148107      -0.00248435       0.00234497      -0.01095357
C        3.71297442       7.79613082       3.72703872       0.00222094      -0.00572652      -0.00278178
C        2.45982294       9.93596157       3.79850605       0.01006462       0.01173220      -0.00113777
C        9.84902067       1.40022192       3.86170235      -0.00582088       0.00789595      -0.00100700
C        8.62640991       3.54955651       3.82638885       0.00617370      -0.00157987      -0.00673489
C        7.42494395       5.70246480       3.76097343       0.00323975      -0.01128899      -0.00402138
C        6.18839394       7.85613741       3.79332022       0.00389502      -0.00897605      -0.00362916
C        4.93328178       9.96517706       3.84393884      -0.00247225       0.00707378      -0.00333644
Mn       2.51024038       5.01186530       3.87449080       0.00271168      -0.00223181      -0.00455419
