49
Lattice="12.336457 0.0 0.0 -6.168228499999997 10.683685154694365 0.0 0.0 0.0 15.0" Properties=species:S:1:pos:R:3:forces:R:3 energy=-433.39662558204236 free_energy=-433.39662558204236 stress="-0.002547550895423844 0.0034393866061395058 -1.0221603353027373e-06 0.0034393866061395058 0.0033951626575463877 3.171659169642025e-06 -1.0221603353027373e-06 3.171659169642025e-06 -1.1007618981837165e-06" pbc="T T T"
C        0.00430053      -0.00201186       3.70042796       0.00300063       0.00300080      -0.00651751
C       -1.21748812       2.14241121       3.49850118      -0.00117018      -0.00800953       0.00144228
C       -2.48004759       4.27775988       3.57672110       0.00311684      -0.00422398       0.00136401
C       -3.72290597       6.41215560       3.74007480      -0.00236444      -0.00355797      -0.01558028
C       -4.94429688       8.54803929       3.80727552       0.00377991       0.00985191       0.00090429
C        2.47412384       0.02212789       3.83440877       0.00857106      -0.00181897      -0.00019509
C        1.27601031       2.11203964       3.46395276      -0.00374095       0.00767913       0.00678855
C       -0.08083413       4.36830521       3.26523443      -0.00607903       0.00373371       0.00328264
C       -1.28951833       6.44480310       3.59448351      -0.00030075       0.00793904      -0.00477803
C       -2.47909278       8.55571203       3.79445703      -0.00235250      -0.00331625      -0.00590763
C        4.93935035      -0.00512563       3.84669195      -0.00068310      -0.00255343      -0.00280047
C        3.75706920       2.11849538       3.91723403      -0.00918300      -0.00602471      -0.00702572
O        1.12054200       6.44044115       3.60081770       0.01317270       0.00076048       0.00536705
C       -0.00874397       8.53678203       3.76439867       0.00086843      -0.00343794      -0.00497671
C        7.41989618      -0.03407731       3.78963362      -0.00186338      -0.00689903      -0.01184655
C        6.19717194       2.11956453       3.84641890       0.00188058       0.00398437       0.00600320
C        4.99394090       4.25206620       4.00422161       0.00274175      -0.00478088       0.00477655
N        3.75975457       6.38417883       4.09146403       0.00010201       0.00440157      -0.00157278
C        2.45177830       8.46258167       3.82960062      -0.00538820       0.00050238      -0.00543165
C        9.87301793      -0.03094777       3.71144707      -0.00374470       0.00604198      -0.00939707
C        8.65358877       2.12156891       3.68952168      -0.00594254       0.00700448      -0.00510228
C        7.40596831       4.26528877       3.77612226       0.00634657       0.00504440      -0.01171909
C        6.16547445       6.39650649       3.85208386      -0.00013532      -0.00179015       0.00441672
C        4.92375031       8.51194787       3.82070598      -0.00320490      -0.00047252      -0.00371951
C        0.02835463       1.43723289       3.54082985       0.00082273       0.00048937       0.00362581
C       -1.24351097       3.57511583       3.43056485       0.00121523      -0.00905174       0.00755911
C       -2.50314862       5.69974859       3.63117937       0.00094292      -0.00148081      -0.00392993
C       -3.71634212       7.83814485       3.78697521      -0.00250016      -0.00079290      -0.00258109
C       -4.93371572       9.98172014       3.78840735       0.00727549       0.01084261       0.00528269
C        2.50419274       1.46009042       3.78870213      -0.00928990      -0.00377071       0.00357661
S        1.43225056       3.69854084       2.74689941       0.00358678      -0.00703747      -0.00916487
C       -0.10604252       5.75571969       3.44171279       0.00130416       0.00425906       0.00437590
C       -1.26221518       7.85479213       3.72283909      -0.00029844       0.00467071       0.00645738
C       -2.46972357       9.98577976       3.84877743       0.00485985      -0.00805218       0.00333825
C        4.95172944       1.42726539       3.87927539      -0.00376913       0.00105618       0.00823517
O        3.83128034       3.49582504       4.18037558       0.00214373      -0.00871316      -0.00026290
C        1.19405914       7.83774324       3.76523967       0.00042010      -0.00331741      -0.00526060
C        0.00885236       9.96264790       3.81268568      -0.00204329      -0.00577134      -0.00356289
C        7.41822606       1.40651271       3.77776957      -0.00101967      -0.00173335      -0.00033381
C        6.18144649       3.54397239       3.86526223       0.01066191       0.00514459       0.01281869
C        4.93884026       5.68098181       3.98140115      -0.00147127      -0.00271919       0.01154798
C        3.71328501       7.74472964       3.91120304      -0.00782002       0.00420579       0.00450824
C        2.47358742       9.91013651       3.77464167      -0.00092526      -0.00044130       0.00013711
C        9.89155200       1.41098916       3.62682985      -0.00653111       0.00572586       0.00616484
C        8.63587293       3.55013124       3.67843601       0.00110848       0.00467378       0.00403814
C        7.38732004       5.68607185       3.78684372       0.00002968      -0.00044238      -0.00577108
C        6.16187213       7.82018922       3.82380796       0.00246987       0.00154812       0.00281517
C        4.93400223       9.94741009       3.73651186      -0.00211987       0.00312032       0.01155161
Mn       2.23255813       5.04644467       4.81164965       0.00351974      -0.00547135      -0.00294048
