49
Lattice="12.336457 0.0 0.0 -6.168228499999997 10.683685154694365 0.0 0.0 0.0 15.0" Properties=species:S:1:pos:R:3:forces:R:3 energy=-436.3573772703276 free_energy=-436.3573772703276 stress="-0.004793632278093558 0.004207834629489145 -3.0201359855464943e-06 0.004207834629489145 0.0017540594978487961 -8.91554895941248e-06 -3.0201359855464943e-06 -8.91554895941248e-06 2.1311777486283326e-06" pbc="T T T"
C       -0.00016539       0.02069802       3.75947733       0.00279786      -0.00055284      -0.00406817
C       -1.22002929       2.15270766       3.82117048      -0.00698132       0.00377358       0.00109504
C       -2.44914015       4.28616001       3.73915267      -0.00120361      -0.00224545       0.00644025
C       -3.70047302       6.42192971       3.63829485      -0.00055800       0.00026146       0.00568189
C       -4.95884511       8.56071109       3.62734036       0.00507716      -0.00085885       0.00846574
C        2.45711416       0.05591864       3.78142333      -0.00338486       0.00598943      -0.00334358
C        1.22485174       2.20692047       3.92826202       0.00267240       0.00287601       0.00697124
C       -0.01774969       4.30316659       3.97710110       0.00838096       0.00630286      -0.00305687
C       -1.25478823       6.43353490       3.82857485      -0.00521594      -0.00335006       0.00725795
C       -2.48609485       8.57023371       3.74613237       0.00219381       0.00043718      -0.00359948
C        4.92911449       0.01402622       3.77439507      -0.01216678       0.00132366       0.00920437
C        3.74035629       2.16966055       3.81202443       0.00543619      -0.00276030      -0.00718817
O        1.07897704       6.49358279       4.17644246       0.00509772      -0.00281842      -0.00723004
C       -0.02396640       8.55270026       3.84872815       0.00672464      -0.00092445      -0.00900442
C        7.40674181      -0.01229104       3.81547308      -0.01110869       0.00866512       0.00462004
C        6.20002319       2.11358964       3.69302579       0.00364530      -0.00210719       0.00349188
C        5.02935059       4.20702655       3.53024854       0.00103787      -0.00629745      -0.00964306
S        3.49522040       6.23629580       2.88555114      -0.00368627      -0.00503375       0.00835849
C        2.42648972       8.51562242       3.80145061       0.00236681      -0.00227679       0.00155412
C        9.87053901      -0.00983541       3.79347003      -0.00647322      -0.00585545      -0.00061652
C        8.65834516       2.13179155       3.74866482       0.00103311      -0.00354627      -0.00462554
C        7.44614252       4.26627782       3.59346637       0.00598870      -0.00227084      -0.01100291
C        6.18049885       6.39891206       3.45356699      -0.00074298       0.00559703       0.00417516
C        4.90401838       8.53127070       3.57918558      -0.00175630      -0.00075135       0.00171459
C        0.01134784       1.45598951       3.83653216      -0.00446986       0.00282123       0.00456913
C       -1.22447350       3.57944512       3.83429601       0.00315633       0.00794409       0.00634492
C       -2.47097850       5.70646464       3.72600006      -0.00582406      -0.00365492       0.00499441
C       -3.71996023       7.85138164       3.66345304       0.00494050      -0.00117088       0.00103614
C       -4.94203159       9.99985590       3.72345073       0.00477067      -0.00165796      -0.00694646
C        2.47159118       1.49321189       3.86411781       0.00202020       0.00501052      -0.00544533
N        1.16186461       3.58056368       4.08834099       0.00687229       0.00168958       0.00184900
C       -0.06745307       5.73059868       3.98555542       0.00241702       0.00328148      -0.00598423
C       -1.26669219       7.85660655       3.81195289       0.00404268      -0.00189748      -0.00524545
C       -2.48407422      10.00557607       3.76631571      -0.00998008       0.00192320       0.00068000
C        4.95042417       1.43379714       3.74375238       0.00278514      -0.00138662       0.00618275
N        3.84689980       3.53990868       3.79215603       0.00215660      -0.00568918       0.00568700
C        1.16607436       7.85929420       3.90082426       0.00721293      -0.00215756      -0.00490464
C       -0.00353717       9.98158210       3.80758140      -0.01036448       0.00438770      -0.00035576
C        7.42476081       1.41199541       3.75316799       0.00125662       0.00446115       0.00168223
C        6.23694288       3.52103660       3.58713965       0.00524668      -0.00485831      -0.00981796
C        5.02387453       5.60869032       3.34379268      -0.00164494       0.00156536      -0.01172332
C        3.65514870       7.85754023       3.51543904       0.00140946      -0.01075998      -0.00048984
C        2.46146437       9.95083887       3.82782811      -0.01131240       0.00065280       0.00600513
C        9.88643550       1.42484634       3.79565574      -0.00501694      -0.00413211      -0.00966836
C        8.66684786       3.55684127       3.68834740       0.00305823      -0.00564848      -0.00080876
C        7.42370579       5.69267820       3.55304288      -0.00020736       0.00187629       0.00507422
C        6.15053344       7.83205103       3.52063262       0.00044678       0.00595333       0.00966442
C        4.92945846       9.97113306       3.72402298      -0.00154610      -0.00023895      -0.00143855
Mn       2.65268828       4.65601126       4.74869916      -0.00060050       0.00810885       0.00340726
