50
Lattice="12.336457 0.0 0.0 -6.168228499999997 10.683685154694365 0.0 0.0 0.0 15.0" Properties=species:S:1:pos:R:3:forces:R:3 energy=-446.85729430776274 free_energy=-446.85729430776274 stress="-0.0017255860440807953 0.0030541843981099284 4.006633474082822e-06 0.0030541843981099284 -0.004306409088662203 -1.9191252847108692e-06 4.006633474082822e-06 -1.9191252847108692e-06 -4.904310113683974e-06" pbc="T T T"
C       -0.01241613      -0.00237091       3.75749169       0.00497571      -0.00275511       0.00424029
C       -1.22274032       2.15302007       3.83671089       0.00881628       0.00013208      -0.00572692
C       -2.44901158       4.27321469       3.83651226      -0.00809881       0.00824111      -0.00475186
C       -3.71470300       6.39856936       3.75629330      -0.00374026      -0.00141853       0.00700581
C       -4.95889620       8.53220462       3.70579702      -0.00714237      -0.00058638      -0.00460407
C        2.44922603      -0.01565451       3.74578932      -0.00017302       0.01351168      -0.00433426
C        1.23931810       2.14023984       3.85238427      -0.00747797       0.00355346       0.00303655
C        0.04805734       4.31823910       3.96572997      -0.00627695      -0.00664587       0.00262401
C       -1.24197776       6.41086212       3.82978022       0.00497818      -0.00832182       0.00711021
C       -2.48388036       8.53306835       3.73025646       0.00217379      -0.00035164      -0.00308103
C        4.92028096      -0.01200733       3.69771499       0.00211416       0.00258793       0.00357177
C        3.69106620       2.09788993       3.74782992      -0.00240067      -0.00195397      -0.00784468
N        2.51825017       4.16532082       4.06879281       0.00005982       0.00190493       0.00318686
O        1.11893296       6.51186751       4.06387878      -0.00425071       0.00186791      -0.01220453
C       -0.03334369       8.55069289       3.69236465       0.00413356      -0.00548754       0.00568724
C        7.38927900       0.00091726       3.69874275      -0.00808683       0.00017889       0.00733506
C        6.16773229       2.11737254       3.72345338      -0.00107359      -0.00068368       0.00541017
C        4.93487232       4.21391763       3.67400069       0.00582621       0.00222568       0.00371808
P        3.66291643       6.36325812       2.53431109      -0.00064047       0.00223222      -0.00675109
C        2.41126863       8.55687490       3.62598785       0.00437928      -0.00231020       0.00629216
C        9.85998497       0.00775742       3.72597716      -0.00494220      -0.00171889      -0.00326769
C        8.63929697       2.13618336       3.77149522       0.00622921      -0.00075559       0.00497358
C        7.40742708       4.25894894       3.74663557      -0.00018203      -0.00679272      -0.01250374
C        6.15748616       6.39342900       3.62760532       0.00729666      -0.00390656       0.00568518
C        4.91321841       8.54288766       3.61257214      -0.00443704       0.00665431      -0.00348816
C        0.00027100       1.42937767       3.81914153       0.00407502      -0.00506032       0.00291302
C       -1.19750407       3.58533797       3.88387513      -0.00912967       0.00248490      -0.00296646
C       -2.47501102       5.68920246       3.81124157      -0.00248749       0.00598776       0.00438927
C       -3.72314163       7.82223507       3.73478984      -0.00503955      -0.00084591      -0.00606360
C       -4.95459697       9.95841582       3.73839612       0.00426656       0.00283369       0.00176468
C        2.45696287       1.40524790       3.78301695      -0.00754830       0.01137068      -0.00194868
C        1.28332940       3.55648903       3.97464289      -0.00528053      -0.00126097       0.00670985
C       -0.04527785       5.72096022       3.95883399       0.00583023      -0.00667277      -0.00354764
C       -1.25922141       7.83320020       3.74656196       0.00542048      -0.00816681       0.00642041
C       -2.48462427       9.95954740       3.71745311       0.00082613       0.00768248      -0.00394871
C        4.93025089       1.40519202       3.71091864      -0.00010653       0.00020987       0.00250746
C        3.69466922       3.50029494       3.79337305       0.00251640      -0.00236626      -0.00300414
C        1.17423822       7.88400248       3.73119843       0.00477302      -0.00387307      -0.00549533
C       -0.01456998       9.97729482       3.67934328      -0.00236316      -0.00409752       0.01028813
C        7.40126892       1.42156820       3.73009766      -0.00022318       0.00197167       0.01159958
C        6.17019202       3.53536321       3.72165522       0.00187705      -0.00301473      -0.00731429
C        4.93152196       5.64738096       3.52582680       0.01593877      -0.00161784      -0.00281607
C        3.66464019       7.84771944       3.49060741       0.00047901       0.00620921      -0.00861635
C        2.44690907       9.97847374       3.68582406      -0.00862318      -0.00217983       0.00198815
C        9.87434492       1.43222740       3.78227629       0.00920537      -0.00164538      -0.00062223
C        8.64378357       3.55755963       3.79107383      -0.00079097       0.00018374      -0.00588960
C        7.38920977       5.68529159       3.72155171       0.00406470      -0.00938078       0.00665837
C        6.14274852       7.81763061       3.63758228      -0.00657882      -0.00039008      -0.00285277
C        4.92172647       9.96906957       3.70955415      -0.00153294       0.00429620      -0.00396869
Mn       2.93451440       5.90892021       4.80371566      -0.00162839       0.00794036       0.00249670
