49
Lattice="12.336457 0.0 0.0 -6.168228499999997 10.683685154694365 0.0 0.0 0.0 15.0" Properties=species:S:1:pos:R:3:forces:R:3 energy=-431.6300779415027 free_energy=-431.6300779415027 stress="-0.000822700411601012 0.0007965772793696257 1.6865606428231736e-05 0.0007965772793696257 0.0014519123761576674 -1.3954280286681926e-06 1.6865606428231736e-05 -1.3954280286681926e-06 2.544325173351889e-08" pbc="T T T"
C        0.02243731      -0.00961697       3.81683600      -0.00134129      -0.01033644      -0.00394199
C       -1.21898057       2.12153691       3.57221628      -0.00254259      -0.00720748      -0.00974125
C       -2.49501822       4.26016999       3.60451239      -0.01167342      -0.00226343       0.00275401
C       -3.71413710       6.39869213       3.80936252      -0.00196205       0.00334565      -0.00611918
C       -4.92261585       8.53416848       3.91930272      -0.00230983      -0.00792814      -0.01281430
C        2.49323448       0.00446217       3.90810345       0.00453702       0.00034244       0.00528920
C        1.27977293       2.07912539       3.49316800       0.00324360      -0.00329448       0.01862464
C       -0.14930045       4.28193231       3.01044253      -0.00506447      -0.00316686      -0.00155444
C       -1.28596347       6.41994999       3.42361699       0.00116448      -0.00395130      -0.01618895
C       -2.45194663       8.53123662       3.80296893       0.00103506       0.00597134       0.00288967
C        4.95084503      -0.02054784       3.92116589      -0.00079675      -0.00505235      -0.00403083
C        3.75900851       2.11358312       3.95298835       0.00227866       0.00996596      -0.00607030
S        1.31173958       6.48235108       2.40196461       0.01301179       0.00961648       0.00402562
C        0.01314693       8.52940164       3.65658572       0.00282365      -0.00126930       0.00323607
C        7.42332298      -0.02311779       3.88825907       0.01313080      -0.00000045      -0.00605168
C        6.19012175       2.12198138       3.98408745      -0.00791528      -0.00030941       0.00137511
C        4.96025179       4.24529453       4.06619961       0.00179367       0.00442476      -0.00253936
N        3.73091190       6.40149861       4.04780035       0.00013658       0.01005130      -0.00049903
C        2.49820506       8.51675974       3.78293277       0.00123617      -0.01174215       0.00259680
C        9.89442194      -0.01680831       3.84640235      -0.00389501      -0.00329330      -0.00715810
C        8.65174931       2.12178796       3.82734486       0.00249376       0.00219963       0.00230523
C        7.39644645       4.26309922       3.91263980       0.00213726       0.00289847      -0.00478993
C        6.15806987       6.38651674       3.97757510      -0.00926503      -0.00406014      -0.00326323
C        4.95231105       8.51667973       3.91803904      -0.00730710       0.00395955      -0.00993277
C        0.03244230       1.42114793       3.62035513       0.00125122      -0.00791199       0.00652846
C       -1.27355441       3.53530205       3.39485773      -0.00200142       0.00340271       0.00598482
C       -2.49959531       5.68753214       3.62103504      -0.00797455      -0.00315559      -0.01053863
C       -3.69469295       7.82138567       3.85157404       0.00497284       0.00427773       0.00672906
C       -4.91462613       9.96787703       3.89114420       0.00309360      -0.00519227       0.00424874
C        2.51212416       1.43909078       3.83360671       0.00719372       0.00413160       0.00583880
S        1.41619339       3.60927881       2.69012625       0.01032321      -0.00123827      -0.00016421
C       -0.15680168       5.69528529       3.01099777       0.00820249       0.00965500      -0.00874696
C       -1.23176878       7.83044123       3.61162374      -0.00188721      -0.00138934       0.00751476
C       -2.44859802       9.96172508       3.90222426      -0.00001008       0.00040250       0.00462410
C        4.95377785       1.41590200       3.98153661      -0.00712440      -0.00499284       0.00568843
O        3.80266094       3.49028282       4.12106638       0.00189431       0.01036444      -0.00784281
C        1.26445223       7.87183279       3.47804611       0.00174082      -0.00291000      -0.00024942
C        0.01947744       9.94859547       3.85205605       0.00789761       0.00114773      -0.00163422
C        7.41599077       1.41084120       3.92044949       0.00233615       0.00610802      -0.00646898
C        6.16619144       3.54771260       4.00376091      -0.00060342       0.00341723      -0.00276011
C        4.91273875       5.67985803       4.04869754      -0.00534649       0.00131343      -0.00787982
C        3.73563748       7.76990708       3.90117152      -0.00106698       0.00646853       0.00829905
C        2.49358985       9.94600268       3.86309047       0.00607118      -0.01275061       0.00611553
C        9.89623701       1.41291252       3.75834067      -0.00155199      -0.00425552       0.00409165
C        8.62803898       3.54652042       3.79344636      -0.00394545      -0.00100904       0.01052526
C        7.38635302       5.68063478       3.90970144       0.00003850       0.00245215       0.00396716
C        6.17949907       7.81203859       3.94697825      -0.01187993      -0.00489460       0.00171725
C        4.95435603       9.95124293       3.86088716      -0.00679107      -0.00038157       0.00764067
Mn       1.87923528       5.46506237       4.54343094       0.00021765       0.00804022       0.00837040
