49
Lattice="12.336457 0.0 0.0 -6.168228499999997 10.683685154694365 0.0 0.0 0.0 15.0" Properties=species:S:1:pos:R:3:forces:R:3 energy=-436.42590508727403 free_energy=-436.42590508727403 stress="-0.0021749991909605615 -0.004042830398785936 3.7771068162230393e-07 -0.004042830398785936 0.004386760746486908 3.195170231109765e-06 3.7771068162230393e-07 3.195170231109765e-06 3.7513249663052084e-07" pbc="T T T"
C       -0.00515817       0.00564992       3.85879846      -0.00107114       0.00179481      -0.00418494
C       -1.26386600       2.12071748       3.87619535       0.00162694       0.00311109      -0.00100982
C       -2.47846567       4.26627838       3.80609878      -0.00006337      -0.00263403      -0.01705287
C       -3.67560583       6.41825374       3.74377278      -0.00278335       0.00156764       0.00274610
C       -4.91672001       8.56552102       3.78807505       0.00050375      -0.00117666      -0.00637845
C        2.46789931       0.02435950       3.88110394      -0.00106633       0.00303717       0.00024711
C        1.18602510       2.16358547       3.99298202      -0.00958798      -0.00103129      -0.00468565
C       -0.04666582       4.23783259       4.06463893       0.00145233      -0.00215547       0.00195287
C       -1.22757181       6.40469417       3.89966944      -0.00135169       0.00212112      -0.00038999
C       -2.44969251       8.55328691       3.84123973       0.00255278       0.00062035       0.00242210
C        4.93686540       0.00135172       3.73221461       0.00106451      -0.00217376       0.00325350
C        3.65402543       2.11630319       3.52744464       0.00276705      -0.00891999       0.00283077
N        1.18933271       6.36753554       4.11706870      -0.00137001      -0.00169237       0.00299245
C        0.02641652       8.50518387       3.84045251      -0.00378636       0.00527219       0.00291106
C        7.40083765      -0.03083735       3.69640032       0.00099478      -0.00312139       0.01082337
C        6.14848886       2.14822567       3.50977042       0.00504388       0.00579471       0.00427349
C        5.02014347       4.38332272       3.22465131       0.00307043       0.00824637      -0.00268308
O        3.82494822       6.47587300       3.34883860       0.00314143      -0.01082859      -0.00482425
C        2.48916271       8.45726059       3.76503197      -0.00144311       0.00107167      -0.00124395
C        9.85146834      -0.03259954       3.75741750       0.00584514       0.00755875       0.00525340
C        8.61542366       2.12497646       3.68681714       0.00203585      -0.00548180       0.00602220
C        7.41317351       4.28605497       3.56855365      -0.00488634      -0.00024173      -0.00374245
C        6.22817902       6.45735016       3.51958186       0.00167336      -0.00530586      -0.00206069
C        4.94982605       8.54679949       3.69249839      -0.00105654      -0.00072912       0.00101929
C       -0.02143617       1.43297883       3.91848234      -0.00635624      -0.00121966       0.00269784
C       -1.26118355       3.54125031       3.91095053       0.00237167       0.00064216      -0.00105090
C       -2.45588260       5.69172012       3.81835388      -0.00237369       0.00163549      -0.00314736
C       -3.67904348       7.84535330       3.79871316       0.00247959       0.00089437      -0.00635572
C       -4.92889990       9.99056748       3.87057708      -0.00033513       0.00154236      -0.00761365
C        2.44377168       1.45841725       3.85440312      -0.00454438       0.00399537       0.00361069
N        1.11421474       3.52044162       4.22841623      -0.00000492      -0.00374333      -0.00297260
C       -0.00649952       5.69606033       4.03093474      -0.00197070      -0.00154579       0.00050890
C       -1.21830419       7.82563249       3.86316478      -0.00000059       0.00252472      -0.00236155
C       -2.46099607       9.98585919       3.82895652      -0.00008687      -0.00024736       0.00016642
C        4.91154221       1.43964880       3.57886156       0.00748113      -0.00221673      -0.00272594
S        3.49367809       3.69535871       2.78136280      -0.00474203       0.00568220      -0.00091396
C        1.23831527       7.73829719       3.90624800      -0.00590961       0.00228172       0.00452273
C        0.00813309       9.94511647       3.74833898      -0.00213885       0.00176161       0.00286077
C        7.37784383       1.41504405       3.62162877       0.00169484      -0.00367890       0.00615608
C        6.17193339       3.58821910       3.42335630      -0.00416513       0.00691365       0.00181140
C        5.04096539       5.78330015       3.32440309       0.00317576      -0.00261946       0.00485414
C        3.75308939       7.83620394       3.63839911      -0.00090157      -0.00318769      -0.00613771
C        2.46408636       9.90531165       3.73386426       0.00523820       0.00416959       0.00451777
C        9.84466464       1.40437530       3.77515939       0.00678173       0.00389463       0.00466165
C        8.62931431       3.55442980       3.68750688      -0.00331746      -0.00557364      -0.00624450
C        7.43894451       5.70844112       3.60609655      -0.00169729      -0.00185921      -0.00076054
C        6.20408763       7.86640773       3.66645087      -0.00018370      -0.00498442       0.00006496
C        4.92804284       9.96971320       3.78117065       0.00133220       0.00372096       0.00482319
Mn       2.50854129       4.77342135       4.81960385       0.00486704      -0.00348647       0.00053630
