49
Lattice="12.336457 0.0 0.0 -6.168228499999997 10.683685154694365 0.0 0.0 0.0 15.0" Properties=species:S:1:pos:R:3:forces:R:3 energy=-431.4652071276187 free_energy=-431.4652071276187 stress="-0.004197461719977632 -0.006533511358500406 -6.149440315168975e-06 -0.006533511358500406 -0.0015551831748159847 2.2025544777724917e-06 -6.149440315168975e-06 2.2025544777724917e-06 -3.697390480010587e-06" pbc="T T T"
C        0.00317308      -0.02264473       3.74967179      -0.00375070      -0.01110848       0.01410830
C       -1.28310617       2.08611456       3.66783825       0.01067191      -0.00171620       0.00692743
C       -2.48832891       4.24881544       3.73068555      -0.00090977       0.00079074      -0.01165938
C       -3.65904660       6.40434503       3.84742765       0.00224926       0.00714659       0.00318748
C       -4.88879815       8.55174606       3.85152324       0.00096552      -0.00360780       0.00290327
C        2.46597433       0.00059695       3.61508507      -0.00081871      -0.00497430      -0.00209181
C        1.15238402       2.08154694       3.43168710      -0.00109485       0.00045214      -0.00542047
C       -0.11868186       4.15839848       3.28494395       0.00056230       0.00217244       0.00340187
C       -1.21285765       6.35600507       3.48569499       0.00741828       0.00377941       0.00367608
C       -2.42312865       8.52319260       3.64264847      -0.00000359       0.00083343      -0.00093783
C        4.93279640      -0.00475280       3.67218350       0.00770863       0.00495086       0.00742111
C        3.66154951       2.11736714       3.56814420      -0.00295473       0.00316693      -0.00145355
S        1.45268112       6.27605494       2.77583241      -0.01249312      -0.01014827       0.00656514
C        0.03621043       8.51340570       3.58370576      -0.00579797       0.00254623      -0.00716090
C        7.39027779      -0.01641194       3.83712676       0.00167639       0.00752265      -0.00457881
C        6.13598367       2.15344304       3.84854119      -0.00643636       0.00260104      -0.00069921
C        5.01711692       4.37956970       4.02691313      -0.00263886      -0.00698291       0.00992535
N        3.81756152       6.46575472       4.26119408       0.00290249      -0.00074976       0.00332333
C        2.49715245       8.51637669       3.87571433      -0.00058751       0.00660761       0.00820989
C        9.85942951      -0.02692134       3.89497209       0.00509013      -0.00254089       0.00194526
C        8.60592407       2.12073601       3.88499378       0.00242965      -0.01650165      -0.00918553
C        7.41865914       4.28073511       4.00680442      -0.00365412      -0.00028535      -0.01096950
C        6.24855632       6.45622298       4.12589139      -0.00662230       0.00528220       0.00369894
C        4.97291244       8.54153792       3.99251171       0.00520061       0.00207919       0.00515179
C       -0.03261011       1.39405597       3.60929182       0.00463240      -0.01010378       0.00193021
C       -1.29708479       3.49447529       3.55543726       0.00928666       0.00361527       0.01184756
C       -2.44930549       5.66754767       3.69396786       0.00385191       0.00601650      -0.01667958
C       -3.65689018       7.82714130       3.77984841       0.00048839       0.00269983      -0.00017036
C       -4.91999745       9.96994208       3.72865604      -0.00319303      -0.01059741       0.00111737
C        2.42092412       1.43018979       3.50967382      -0.00241834      -0.00003425      -0.00321408
O        1.04866687       3.42188379       3.08905714      -0.00156909       0.01087442      -0.00415201
C       -0.06744672       5.56269981       3.24172075      -0.00175162       0.00155421      -0.01166615
C       -1.19155094       7.79376330       3.54017523      -0.00303585       0.00008155       0.00608633
C       -2.45459445       9.96404200       3.63173862       0.00742568       0.00140001       0.00131358
C        4.90215349       1.44680164       3.70340540      -0.00320921       0.00607070       0.00590208
S        3.54902648       3.82870012       3.38625351      -0.00762293       0.00079711       0.01076997
C        1.29644884       7.84601623       3.54436755      -0.00533660       0.00484728      -0.00225150
C        0.00443703       9.95376917       3.71370367       0.00461902       0.00340647      -0.00166172
C        7.36566974       1.42155698       3.87926182      -0.00670121       0.00097931      -0.00893389
C        6.17094493       3.57924349       3.98628456      -0.00278013      -0.00236604      -0.00016447
C        5.01835711       5.78586384       4.19652093      -0.00016457      -0.00545261      -0.00850618
C        3.75953949       7.81399358       4.04330486       0.00712249       0.00059742      -0.00003535
C        2.46317419       9.94712734       3.90270457       0.00170398       0.00852733       0.00165692
C        9.84059802       1.39560494       3.83154741       0.01103697      -0.00767557      -0.00738554
C        8.62351159       3.54634224       3.89412192      -0.00260898      -0.01235030      -0.00723496
C        7.45121493       5.70566686       4.02077806      -0.00582476       0.00683166      -0.00618655
C        6.22551715       7.86054226       4.01555545      -0.00064641       0.00279734      -0.00819118
C        4.93979673       9.95681694       3.88256290      -0.00199380      -0.00371418       0.00581599
Mn       2.27249804       5.40352825       4.91304516      -0.00042358      -0.00011814       0.01370526
