49
Lattice="12.336457 0.0 0.0 -6.168228499999997 10.683685154694365 0.0 0.0 0.0 15.0" Properties=species:S:1:pos:R:3:forces:R:3 energy=-431.5287757649823 free_energy=-431.5287757649823 stress="-0.005523166046145402 0.0026969124252190853 -6.619587303861805e-07 0.0026969124252190853 -0.008426487171782536 7.831248833366347e-06 -6.619587303861805e-07 7.831248833366347e-06 1.21772250668527e-06" pbc="T T T"
C       -0.01705691      -0.05011584       3.74002171      -0.00415195      -0.00898449      -0.00604073
C       -1.22400045       2.12121779       3.69887348      -0.00589732       0.00485494      -0.00107407
C       -2.45177697       4.25580932       3.79055054       0.00376947       0.00291622      -0.00264720
C       -3.70070226       6.38101190       3.74002487      -0.00050319      -0.00053432       0.00462063
C       -4.95778606       8.49861928       3.71056791      -0.00785099       0.00059180      -0.00107357
C        2.44533552      -0.08078864       3.91796112       0.00648046       0.00379363       0.00155203
C        1.24931971       2.03315002       3.61200297      -0.00257388      -0.00473646      -0.00620029
C       -0.00260357       4.32499848       3.69649310       0.00156668       0.00612873      -0.00207808
C       -1.25099092       6.40843241       3.92385118      -0.00024938      -0.00627634       0.00299122
C       -2.48760141       8.51120067       3.92225004      -0.00611971       0.00202586       0.00057584
C        4.92205031      -0.03269857       3.99717739      -0.00242734       0.00831368      -0.00746721
C        3.67817432       2.02917046       4.04797753       0.00699962       0.00702477       0.00020668
N        1.14666696       6.46751021       4.03569838       0.01142444      -0.00704394      -0.00822453
C       -0.03176797       8.53789950       3.93786323      -0.00849027       0.00129969       0.00653147
C        7.39107458      -0.01241415       3.91018105       0.00300124       0.00302147       0.00199423
C        6.16939298       2.11600901       3.88321756      -0.00423905      -0.00715008       0.00255383
C        5.00501721       4.25830578       3.42423396      -0.00164821       0.00633036       0.00213819
P        3.56010808       6.38783495       2.48405524       0.00451165       0.00305792       0.00574733
C        2.42478987       8.54500247       3.76576581       0.00404044      -0.00553613      -0.00769863
C        9.86235465      -0.01962067       3.77232710       0.00026879      -0.00495403       0.00270264
C        8.64233152       2.11625426       3.80870484       0.00719338      -0.00128716       0.00078066
C        7.42614212       4.24354635       3.65490313      -0.00298795      -0.01395566       0.00197915
C        6.21074311       6.38572900       3.35117587       0.00400193       0.00825440       0.00214516
C        4.91281514       8.50661971       3.57895200      -0.00486616       0.00221248      -0.00095054
C       -0.00277232       1.38372011       3.67890733      -0.00867877      -0.00585910      -0.00051007
C       -1.20257661       3.55983575       3.73387060      -0.00081224       0.00709750      -0.00159414
C       -2.46823980       5.67661032       3.83402003       0.00081207      -0.00046060      -0.00086590
C       -3.71697940       7.79911407       3.79292303      -0.00651566       0.00106787       0.00680002
C       -4.95962095       9.91196079       3.79991285       0.00276885      -0.00207960       0.00004023
C        2.44978267       1.32530763       3.89065058       0.00679687       0.00548371      -0.00155497
P        1.45839344       3.64707263       2.92073806      -0.00488605       0.00494332      -0.01052313
C       -0.02276127       5.73388161       3.91264163       0.00580272       0.00014374       0.00255608
C       -1.25464241       7.81893630       3.95076048      -0.00982801      -0.00564181       0.00033971
C       -2.48003717       9.92547381       3.96997362       0.00292362       0.00456039       0.00271736
C        4.93294580       1.39211328       4.00024101       0.00033770       0.00204198      -0.00818943
P        3.49919275       3.74006237       4.19584616      -0.00121120      -0.00784035      -0.01667385
C        1.18046039       7.84167148       3.89189740      -0.00199573      -0.00116656       0.01246302
C       -0.01426736       9.95831358       3.95516755      -0.00436046       0.00792260       0.00699433
C        7.39906880       1.40997542       3.88106196       0.00467627       0.00164654       0.00788511
C        6.18985230       3.52564235       3.65681796      -0.00961941      -0.01095204       0.00319428
C        5.04910243       5.64164853       3.08740102       0.01123564       0.01610408      -0.00172995
C        3.65118236       7.82506392       3.53152859       0.00918854      -0.00723111       0.00889746
C        2.45028878       9.95959824       3.82889327       0.00313637      -0.00562379      -0.00153221
C        9.87809063       1.40828124       3.77063890       0.00170512      -0.00318657      -0.00043297
C        8.65324391       3.53878615       3.76248166       0.00690738      -0.00294278      -0.00183887
C        7.42494411       5.66717608       3.57191773       0.00040191      -0.00642774       0.00256373
C        6.15612512       7.80111972       3.51775464      -0.00911627       0.00773762      -0.00559203
C        4.91832899       9.92965371       3.71000314      -0.00522228      -0.00358713       0.00072645
Mn       2.78625857       5.82484631       4.70384034       0.00430030       0.00488248       0.00279551
