49
Lattice="12.336457 0.0 0.0 -6.168228499999997 10.683685154694365 0.0 0.0 0.0 15.0" Properties=species:S:1:pos:R:3:forces:R:3 energy=-433.3043220251258 free_energy=-433.3043220251258 stress="2.3423814958662426e-05 -7.987160089747998e-07 9.91557444895002e-06 -7.987160089747998e-07 0.007594392413592717 -7.041367286353649e-06 9.91557444895002e-06 -7.041367286353649e-06 4.287914871760622e-08" pbc="T T T"
C        0.00242521       0.00522607       3.72376513      -0.00198603      -0.01091813      -0.00099964
C       -1.24329145       2.13056881       3.68655502      -0.00328264      -0.00494241      -0.00594706
C       -2.47093339       4.26905441       3.62060269       0.00025606       0.00396658       0.00453026
C       -3.70155644       6.40980577       3.61754040      -0.00323282       0.00348729       0.00345511
C       -4.93840934       8.55229125       3.68337697       0.00138695       0.00058794      -0.01504161
C        2.46627407       0.05469295       3.73784556       0.00226919       0.00261922       0.00698601
C        1.20059889       2.16136927       3.79719056      -0.00186741       0.01007189       0.00151365
C       -0.04526917       4.27120006       3.76015964       0.00029897      -0.00178267       0.00025711
C       -1.24170204       6.40026091       3.66957420       0.00602402       0.00372869       0.00067435
C       -2.46518655       8.55244376       3.68102949      -0.00186779      -0.00765932      -0.01168102
C        4.93048561       0.00444189       3.72289312       0.00078402      -0.00211991       0.00816379
C        3.73229944       2.15991237       3.80294568       0.00199663       0.00358786       0.00137322
O        1.14462872       6.40311047       3.88324686      -0.00372646       0.00130697       0.00291752
C        0.00624533       8.51598233       3.73720127       0.00164112      -0.00112056       0.00478476
C        7.40887621      -0.03669498       3.71814864       0.00039814      -0.00377312      -0.00015001
C        6.17597330       2.13019961       3.68946056       0.00765861      -0.00178817      -0.00234457
C        4.97996017       4.27136526       3.77312883      -0.00380909      -0.00322752       0.00290932
O        3.78795657       6.40384436       3.89921752       0.00847794       0.00548561      -0.00353816
C        2.46635898       8.44863594       3.80991647      -0.00029636       0.00615237       0.00526396
C        9.86027691      -0.03679507       3.71944378       0.00063400       0.00150178      -0.00842654
C        8.63465353       2.11914701       3.65469885      -0.00174372      -0.01017037      -0.00171497
C        7.40391766       4.26926906       3.62399509       0.00299969      -0.00129414       0.00194389
C        6.17509786       6.40070221       3.67852453      -0.00303935       0.00530990      -0.00393027
C        4.92666434       8.51663265       3.74119671      -0.00079040      -0.00263906       0.00284624
C        0.00792456       1.44518506       3.73209874      -0.00003283      -0.00496210      -0.00156159
C       -1.24141314       3.55548802       3.66881125      -0.00049877      -0.00198061      -0.00522464
C       -2.47168335       5.68791960       3.61863060       0.00303734       0.00892635       0.00837404
C       -3.70168665       7.84000084       3.65471520      -0.00283164      -0.00328696       0.00275161
C       -4.92706491       9.99745621       3.71704173       0.00456191      -0.00389875       0.00389430
C        2.46653438       1.51269592       3.79023617      -0.00233305       0.00699139      -0.00579858
O        1.15135455       3.55300807       3.82949846       0.00606524       0.01371206       0.00512889
C       -0.05501565       5.67664001       3.77017899       0.00198805      -0.00114384      -0.00479221
C       -1.24396516       7.82819698       3.68772569       0.00344139       0.00072691      -0.00101949
C       -2.47682478       9.99738495       3.71736674      -0.00006953      -0.00616126      -0.00638936
C        4.92484336       1.44435030       3.73479464       0.00474193       0.00228576      -0.00505308
O        3.78262989       3.55228041       3.84647762      -0.00930249       0.00417619      -0.00325326
C        1.19982784       7.80641928       3.82153788       0.00096079       0.00058732       0.00188278
C        0.00061281       9.95642708       3.72475684       0.00054806      -0.00395759      -0.00493257
C        7.39812299       1.40699993       3.68067772       0.00200376      -0.00962471      -0.00152944
C        6.17497586       3.55496611       3.67553315       0.00108782      -0.00037296      -0.00829878
C        4.98936758       5.67642828       3.78457193      -0.00131057       0.00111828      -0.00723858
C        3.73266923       7.80809770       3.82554921       0.00005701       0.00003976       0.00740731
C        2.46623159       9.90851884       3.74289292       0.00304283       0.00364577       0.00856125
C        9.87107285       1.40681796       3.68002307      -0.00302187      -0.00086606       0.00041637
C        8.63462389       3.54862573       3.61959317       0.00296390      -0.00806584       0.00366660
C        7.40485494       5.68832577       3.62155917      -0.00529392       0.00219352       0.01845844
C        6.17680017       7.82837333       3.69355684       0.00046719       0.00439033      -0.00179057
C        4.93245570       9.95698416       3.72589318      -0.00573458      -0.00665306       0.00198457
Mn       2.48380034       5.16429224       5.15934108      -0.01372124       0.00580937       0.00051062
