49
Lattice="12.336457 0.0 0.0 -6.168228499999997 10.683685154694365 0.0 0.0 0.0 15.0" Properties=species:S:1:pos:R:3:forces:R:3 energy=-426.2443728970293 free_energy=-426.2443728970293 stress="-0.001998366896304186 -9.559401000268477e-06 -1.6059360979265098e-06 -9.559401000268477e-06 -0.008683735714570585 4.20427684150018e-06 -1.6059360979265098e-06 4.20427684150018e-06 4.8600842965110066e-06" pbc="T T T"
C       -0.01095859      -0.00613639       3.75628037       0.00487401       0.00005034       0.00172324
C       -1.24772847       2.13397312       4.04101873       0.00292595       0.00689075       0.00103848
C       -2.49914845       4.27196657       4.02769938      -0.00215630      -0.00482239      -0.01031641
C       -3.71252934       6.40235398       3.78816598      -0.01056824      -0.00511035       0.00248742
C       -4.95455653       8.52778470       3.63071408       0.00710713      -0.00474319       0.00095214
C        2.45787587      -0.04936727       3.69817370      -0.00225755       0.00034570      -0.00550946
C        1.25310232       2.05464803       4.07181030       0.00476102       0.00727061      -0.00557407
C       -0.12425985       4.27905587       4.59554782      -0.00111308      -0.01617547       0.00713714
C       -1.27958018       6.42038552       4.22254894       0.00438242      -0.00475430      -0.00041146
C       -2.47204638       8.52359576       3.82700794      -0.00856175       0.00291908       0.00345654
C        4.92503481      -0.02028942       3.64982305       0.00323702      -0.00582235      -0.00042374
C        3.66461737       2.03410219       3.34086334       0.00499731      -0.00276595      -0.00530624
P        1.42840598       6.44885957       5.01996059       0.00613575      -0.00435869       0.00695559
C       -0.00284477       8.55238670       3.95651673       0.00139224       0.00342594       0.01364393
C        7.38292437       0.01995941       3.69954246      -0.00162248       0.00716700      -0.00515033
C        6.15530505       2.12969445       3.47079269      -0.00171542      -0.00798712      -0.00146931
C        5.02628883       4.27878530       3.05580892       0.00479194      -0.00354000       0.00728331
S        3.52036975       6.41508593       2.49043176       0.00806720       0.00257098      -0.00674798
C        2.45604211       8.59985050       3.67782585       0.00316637      -0.00138397       0.00296733
C        9.86513134       0.02858138       3.69713275      -0.00510550      -0.00142929       0.01302525
C        8.62342653       2.14796056       3.75915091      -0.00831675      -0.00023467       0.00109826
C        7.40189052       4.27172711       3.59309838      -0.00934994       0.00080720      -0.00116756
C        6.18800538       6.42367197       3.36646198      -0.00614404       0.01085697      -0.00807857
C        4.92029298       8.56554011       3.44189270       0.00798951      -0.00490275       0.00504115
C       -0.00442860       1.41237230       3.97902396       0.00290378       0.00698954      -0.00202613
C       -1.28191147       3.54635209       4.23705107       0.00860357       0.00296412      -0.00487770
C       -2.49821680       5.69587502       4.02124222      -0.00574466      -0.00514937      -0.00613256
C       -3.71291917       7.81989870       3.74951922      -0.00379503      -0.00563662       0.00333011
C       -4.95421829       9.94744498       3.70256790       0.00404173      -0.00705492      -0.00086012
C        2.45524077       1.36780642       3.70752410       0.00124385       0.00282548      -0.00230757
P        1.42189307       3.51859890       5.05003090       0.01220328       0.00569362      -0.01407638
C       -0.12212873       5.68902102       4.58499525      -0.00595662       0.00565895       0.00390162
C       -1.24594850       7.83168063       4.02350174      -0.00162367       0.00185790       0.00551247
C       -2.47167130       9.93941264       3.70460893      -0.00264456       0.00313484       0.00126877
C        4.92005556       1.40347314       3.46204570       0.00161600      -0.00726912       0.00685943
S        3.52149111       3.54178063       2.49483615       0.00076673       0.00719293       0.00662285
C        1.25512001       7.90909165       4.03912466       0.00314410       0.00027856      -0.00127388
C       -0.01028799       9.97320465       3.75054430       0.00598646       0.00048722      -0.00272434
C        7.38241659       1.44009240       3.63946152      -0.00282936       0.00122937      -0.00176637
C        6.18669767       3.54374584       3.37906053      -0.00052815      -0.01019479      -0.00837427
C        5.02871637       5.68630993       3.04603376      -0.00071005       0.00982583       0.01086990
C        3.66582814       7.93539011       3.31296702       0.00924257      -0.00640112       0.00028006
C        2.45856425      10.01701673       3.68324783      -0.00683511       0.00285262      -0.00884641
C        9.86401890       1.44334772       3.83378083      -0.00698794       0.00188731       0.00925093
C        8.62283095       3.56555334       3.79758674      -0.00745873      -0.00035841      -0.00247556
C        7.40273316       5.69596268       3.58754986      -0.01483159       0.00535244      -0.00284533
C        6.15547723       7.83845438       3.45592750       0.00678117       0.00427909      -0.00452380
C        4.92518256       9.98865615       3.64041524       0.00097374      -0.00264599      -0.00042888
Mn       2.94779717       4.97383138       4.19380327      -0.00447832       0.00792645      -0.00101149
