50
Lattice="12.336457 0.0 0.0 -6.168228499999997 10.683685154694365 0.0 0.0 0.0 15.0" Properties=species:S:1:pos:R:3:forces:R:3 energy=-438.85482379154575 free_energy=-438.85482379154575 stress="-0.005852052391877922 -4.256786365470913e-05 -5.3569993202402e-06 -4.256786365470913e-05 -0.005798611447272681 4.670766602627021e-06 -5.3569993202402e-06 4.670766602627021e-06 1.647411666950242e-06" pbc="T T T"
C        0.00086918      -0.00165508       4.01222799       0.00300256      -0.00256766      -0.01212502
C       -1.24074678       2.12929141       4.01176679      -0.00544594       0.00423770       0.00351810
C       -2.47730600       4.26865318       4.00844425       0.00299034      -0.00515529       0.00715530
C       -3.70249058       6.40950987       4.00856868       0.00318582       0.00209942      -0.00688426
C       -4.94285356       8.54107046       3.95817931       0.00377578      -0.00121833       0.00003421
C        2.46671710       0.00716577       3.95399929       0.00236303      -0.00274983       0.00344676
C        1.22039418       2.11674765       3.72426788       0.00373608       0.00662066       0.00760824
C       -0.07084964       4.23121150       3.48923971       0.00023029       0.00036869       0.00348045
C       -1.25691798       6.40580849       3.72791397       0.00495457       0.00037804       0.00216423
C       -2.46010681       8.54020680       3.95493613      -0.00557785       0.00147489       0.00993403
C        4.93295854      -0.00311109       4.00935863      -0.00169902      -0.00394181      -0.00633019
C        3.71270887       2.11621171       3.72474543      -0.00327932       0.00638869       0.00163693
S        2.46661908       4.08171737       2.39930339       0.00358763      -0.00549535       0.00134480
S        1.07074461       6.50577731       2.40943739      -0.00906764       0.00400130       0.00083364
C       -0.00899972       8.56237997       3.74110876      -0.00042716      -0.00065795      -0.00900543
C        7.39930678       0.00589428       4.01775558       0.00740601       0.00031588       0.00529256
C        6.17364360       2.12855641       4.01131397       0.00247643       0.00350871       0.00470187
C        5.00190569       4.23186088       3.49624411       0.00047435       0.00077963       0.00327413
S        3.86293113       6.50357127       2.41317611       0.00339214       0.00060667      -0.00153447
C        2.46764689       8.62281203       3.50816563      -0.00022633       0.00170227      -0.00264463
C        9.87077533       0.00687475       4.01748988      -0.00891951       0.00019282       0.00422536
C        8.63444293       2.13478331       4.12836726       0.00039375      -0.00057862       0.00664798
C        7.40827077       4.26888075       4.01366824       0.00302857      -0.00514201       0.00151891
C        6.18809326       6.40702301       3.73631512      -0.00286065      -0.00270854      -0.00907106
C        4.94412911       8.56572220       3.73336798      -0.00408228      -0.00437372       0.00855770
C       -0.00753320       1.41835669       3.95554185      -0.00171379       0.00273750      -0.00234202
C       -1.26252289       3.54331960       3.88187809       0.00494445       0.00441423      -0.00657119
C       -2.47703958       5.69192466       3.95240463       0.00457162      -0.00377604       0.00480087
C       -3.70171649       7.83101197       3.98558118       0.00058016       0.00373432      -0.00317568
C       -4.93664416       9.97101365       3.98877379       0.00724545      -0.00513689      -0.01717734
C        2.46651792       1.42091882       3.78620179       0.00108210       0.00240802      -0.00003639
C        1.13155623       3.47316467       3.34509102      -0.00442958      -0.00147587       0.00256591
C       -0.12683525       5.65123121       3.34791535      -0.00203832      -0.00102405       0.00339688
C       -1.23526155       7.83249208       3.79433060      -0.00230570       0.00098592      -0.00380798
C       -2.46628033       9.97015695       3.98517065      -0.00467492      -0.00334529      -0.00762744
C        4.94100629       1.41713693       3.95390951      -0.00199910       0.00152376      -0.00212540
C        3.80082382       3.47308805       3.34734466       0.00324503       0.00269768       0.00304258
C        1.21103235       7.95871578       3.36809807      -0.00251664       0.01102718      -0.01113220
C       -0.00111373       9.97684536       3.96244925       0.00500941      -0.00020217      -0.00105733
C        7.40276200       1.42339655       4.10099739       0.00667710       0.00187981       0.00743988
C        6.19404320       3.54323552       3.88606386      -0.00379377       0.00396685      -0.00226755
C        5.05761678       5.65227530       3.35777812      -0.00025718      -0.00377363      -0.00103217
C        3.72502761       7.96370299       3.35768119      -0.00174226       0.00404410       0.00830570
C        2.46706669      10.00066384       3.89428793      -0.00085969      -0.00849972      -0.00190822
C        9.86669173       1.42405215       4.10271176      -0.00757452       0.00278068      -0.00220968
C        8.63391309       3.55704296       4.09894717       0.00239166      -0.00690545       0.00424466
C        7.40794141       5.69231814       3.95941576       0.00071444      -0.00128366      -0.00294308
C        6.16901824       7.83409337       3.79506258      -0.00316957      -0.00370382      -0.00059210
C        4.93522141       9.97905735       3.96014934      -0.00599968      -0.00047026       0.00334801
Mn       2.46110158       5.68852711       4.33351223       0.00320168      -0.00068949       0.00108117
