49
Lattice="12.336457 0.0 0.0 -6.168228499999997 10.683685154694365 0.0 0.0 0.0 15.0" Properties=species:S:1:pos:R:3:forces:R:3 energy=-427.9813429216875 free_energy=-427.9813429216875 stress="-0.004721489934334597 0.0005147335757079162 1.58955089102538e-06 0.0005147335757079162 -0.007826105757275499 7.241150594188325e-06 1.58955089102538e-06 7.241150594188325e-06 -3.2317509898354427e-06" pbc="T T T"
C        0.01634353      -0.01736185       3.90149379       0.00078295       0.00091865      -0.00287014
C       -1.21820222       2.12252413       3.68902497       0.00320059       0.00411170       0.00562081
C       -2.43829338       4.26913955       3.88072023      -0.00375389      -0.01200970       0.00486155
C       -3.66442837       6.40668834       4.09732146       0.00757534       0.00465658       0.00150326
C       -4.91075094       8.53913096       4.11725770      -0.00518244       0.00074905      -0.00383382
C        2.48114941      -0.03355603       3.84315911       0.00116540      -0.00589323      -0.00604840
C        1.22787464       1.99589838       3.24552182       0.00241324      -0.01139639      -0.00153829
C       -0.14147015       4.26798542       3.08303111      -0.00537857       0.00486765      -0.00043255
C       -1.25187666       6.43010165       3.60686852       0.00473847      -0.00074894      -0.00399305
C       -2.43837605       8.53718550       3.94349459       0.00040290       0.00127041      -0.00135873
C        4.95417968      -0.00532165       3.86378931       0.00278912      -0.00350520      -0.00095700
C        3.71556745       2.04547038       3.47678370       0.00586393      -0.00147277      -0.00616113
S        1.23029792       6.57451981       2.31537103      -0.00382735       0.01240848       0.00146431
C        0.01332371       8.55984388       3.68314050       0.00515773       0.00094112       0.00346867
C        7.42192721       0.00911829       3.90877013      -0.00202534       0.00914474       0.00437169
C        6.19604120       2.13462445       3.87244767      -0.00001984      -0.00572969      -0.00216763
C        5.06069184       4.31401691       3.83238051       0.01610262       0.00597865       0.00319483
B        3.64029213       6.36553360       3.97977611       0.00580934      -0.00054656      -0.00182239
C        2.48538333       8.57385396       3.77529129      -0.00228743      -0.00132780      -0.00130861
C        9.89349147       0.00293797       3.96249543       0.00095487      -0.00343658      -0.00870017
C        8.66459853       2.13712624       3.97645112      -0.00106154      -0.00389507       0.00177275
C        7.45565137       4.27104378       4.10358001      -0.01000504       0.00531678      -0.00496673
C        6.21267119       6.41719125       4.20796864      -0.00577076       0.00151855       0.00030260
C        4.94727375       8.53886865       4.06852222       0.00237309      -0.00248630       0.00045699
C        0.00766208       1.39014591       3.61974584       0.00148306       0.00107484      -0.00247597
C       -1.25433550       3.53587964       3.58233688       0.00680192       0.00229296       0.00701556
C       -2.44102670       5.69877067       3.89707889       0.00800343      -0.00771457       0.00318373
C       -3.67230227       7.82882831       4.07817456      -0.00254581       0.00471555      -0.00218711
C       -4.91684316       9.95442919       3.97310293      -0.00322501      -0.00260322      -0.00779170
C        2.47512481       1.35956383       3.52065181       0.00462861      -0.00566919       0.00214791
S        1.11847113       3.40755332       2.17463069       0.00893639       0.00094390      -0.00944455
C       -0.13018370       5.71526529       3.09812829      -0.01287144      -0.00452472       0.00028945
C       -1.21711724       7.83901762       3.73206295       0.00524123       0.00411312       0.00249265
C       -2.44452144       9.96030455       3.90885697       0.00277410      -0.00177805      -0.00261987
C        4.95718936       1.41731062       3.75556977       0.00011121      -0.00129140      -0.00151645
P        3.67815393       3.71279027       2.96445631      -0.01173572       0.00563259       0.00858585
C        1.25821289       7.92869926       3.43823603       0.00213200      -0.00432607      -0.00245115
C        0.02057993       9.97717827       3.85648276       0.00470369       0.00276173      -0.00027569
C        7.42512016       1.42997634       3.95056247      -0.00021498       0.00391888      -0.00227410
C        6.23558313       3.55038053       3.95729588      -0.00395638      -0.00715113       0.00671051
C        5.00319388       5.69981154       4.07725056      -0.00286677      -0.00283767       0.01501160
C        3.69963304       7.85932442       3.94230127       0.00010963      -0.00290796      -0.00428145
C        2.48474005       9.99233086       3.91529283      -0.00573452       0.00344679       0.00048772
C        9.89967393       1.42597317       3.90611650       0.00388771      -0.00087284      -0.00049453
C        8.67633203       3.55739560       4.02732309      -0.01338913      -0.00534044       0.00002888
C        7.44847827       5.69474673       4.18120377      -0.00110595       0.01020940      -0.00096521
C        6.19092303       7.83541916       4.16731130      -0.00214012      -0.00075732      -0.00000134
C        4.95291422       9.96610033       4.00244210       0.00380613      -0.00195089       0.00055665
Mo       1.86837690       4.98479010       3.79344417      -0.01285069       0.01118158       0.00940980
