49
Lattice="12.336457 0.0 0.0 -6.168228499999997 10.683685154694365 0.0 0.0 0.0 15.0" Properties=species:S:1:pos:R:3:forces:R:3 energy=-432.0155162590395 free_energy=-432.0155162590395 stress="-0.006702756221089308 -0.002306243659979068 2.6552762396081994e-06 -0.002306243659979068 -0.004429198698604033 1.5289667458843507e-06 2.6552762396081994e-06 1.5289667458843507e-06 -1.8351537179838366e-06" pbc="T T T"
C       -0.00575207       0.00062751       3.72535882      -0.00025991       0.00549588       0.00099395
C       -1.26111388       2.12904213       3.62066066      -0.00896904       0.00291606      -0.00958120
C       -2.51493250       4.27012094       3.89187362      -0.01082226       0.00099076      -0.00846026
C       -3.71179598       6.41555085       4.03026685       0.00333375       0.00300411       0.00528743
C       -4.92757000       8.56506021       3.93158742       0.00607054      -0.00357795       0.00098464
C        2.46908597      -0.01584746       3.67246422      -0.01089710       0.00032044       0.00204507
C        1.21548250       2.05284790       3.24767905       0.01015080      -0.00395124       0.00893265
C       -0.15483007       4.30967509       3.44319165       0.01040480      -0.00260559       0.01432819
C       -1.26836575       6.40989493       3.97205933       0.00019829       0.00324935      -0.00934336
C       -2.46763502       8.54595794       3.95881222      -0.00058632      -0.00010291       0.00524417
C        4.92925586      -0.00831954       3.77845095       0.00420380      -0.00186104      -0.00207641
C        3.71578123       2.05137073       3.20973647       0.00162512       0.00895206      -0.00689502
B        1.25198592       6.35320799       3.95611837      -0.01431598       0.00313596      -0.00275698
C       -0.00099929       8.53993027       3.96891749       0.00399071      -0.00506943      -0.00764736
C        7.39268533      -0.00396665       3.87239828       0.01173839       0.00513422      -0.00224200
C        6.14480822       2.14590761       3.73902448       0.00049689       0.00178082       0.00034567
C        4.93812297       4.33799392       3.66127570       0.00157215      -0.00421329       0.00922732
N        3.78504601       6.44904255       3.80162745      -0.01243516       0.00003646      -0.00192727
C        2.48144215       8.53992486       3.92013952      -0.00694387       0.00241483      -0.00169421
C        9.85993127      -0.00159056       3.82303895       0.00895977      -0.00379448       0.00437208
C        8.61298221       2.13560356       3.85381221      -0.00648362      -0.00693089       0.01528710
C        7.37192677       4.27561385       3.96994130      -0.00289215      -0.00114357       0.00115170
C        6.19349382       6.45284908       3.94392495       0.00214449      -0.00441226       0.00052935
C        4.94475740       8.55581977       3.88571438       0.00382751      -0.00076755       0.00382337
C       -0.01773793       1.41958779       3.53317366      -0.00322701       0.00364186      -0.00830621
C       -1.30664327       3.54414657       3.64907607      -0.00410719       0.00543094      -0.00344335
C       -2.49746586       5.69347703       3.99104164      -0.00043148       0.00566060      -0.00891056
C       -3.70135517       7.84202591       3.99263294       0.00443074      -0.00158235      -0.00126056
C       -4.93415785       9.98140904       3.78855928      -0.00785059      -0.00552077      -0.00165730
C        2.46730250       1.39059442       3.34761017       0.00384871       0.00242719      -0.00404347
S        1.18469428       3.65452709       2.57756552      -0.00245111      -0.00275943      -0.00652433
C       -0.07218169       5.66816813       3.79404338       0.00268785      -0.00312945       0.00705884
C       -1.23715298       7.83144256       3.99745933       0.00052931       0.00126348      -0.00072869
C       -2.46986297       9.96471467       3.81287939      -0.00616930       0.00109513       0.00438810
C        4.92461450       1.41543259       3.58496030       0.00175129       0.00676230      -0.00069480
S        3.90427604       3.59887066       2.36386657       0.00181597       0.00097251       0.00019977
C        1.25022039       7.84875706       3.97037025      -0.00074993      -0.00899948       0.00040332
C       -0.00653667       9.96786157       3.89507772       0.01414952      -0.00271322      -0.00364446
C        7.37704499       1.42679738       3.83883423      -0.00218155       0.00191177       0.00389905
C        6.14404436       3.56106844       3.83647247       0.00147790      -0.00404129       0.00260997
C        4.98231777       5.77867994       3.78887217      -0.00424708      -0.00537767      -0.00099074
C        3.72236285       7.82150759       3.88141975      -0.00677120       0.00296279       0.00235634
C        2.46645428       9.97015887       3.88532619       0.00785636       0.00365556       0.00454846
C        9.85487668       1.42368605       3.77603510      -0.00545609      -0.00479203       0.00274641
C        8.59921172       3.55598810       3.92989322      -0.01016512      -0.00624736      -0.00249288
C        7.39769223       5.70534388       4.00582139       0.00547094       0.00025965       0.00501735
C        6.18037851       7.86716098       3.93711935       0.00723378      -0.00153787      -0.00169149
C        4.92869512       9.97497236       3.82381773       0.00726478       0.00015413      -0.00534270
Mo       2.74250844       4.76585299       4.07471738       0.00117891       0.01150225      -0.00342470
