49
Lattice="12.336457 0.0 0.0 -6.168228499999997 10.683685154694365 0.0 0.0 0.0 15.0" Properties=species:S:1:pos:R:3:forces:R:3 energy=-430.0940502651128 free_energy=-430.0940502651128 stress="-0.0030911256804748086 0.0018135682763310414 1.0502613229282604e-05 0.0018135682763310414 -0.009204146372928919 -1.4829616165953556e-05 1.0502613229282604e-05 -1.4829616165953556e-05 -4.757143366935379e-06" pbc="T T T"
C        0.01536085       0.01375682       3.67635800       0.00311760       0.00267641       0.00308855
C       -1.20556592       2.15026070       3.47315114       0.00775729       0.00329515       0.01123086
C       -2.45561829       4.28806467       3.55675876       0.00510406      -0.01095716      -0.00864828
C       -3.68644199       6.41614786       3.73929403       0.00345482       0.00085872      -0.00735261
C       -4.93644559       8.53984005       3.76931716      -0.01197636       0.00232533      -0.01050046
C        2.48065286      -0.02288845       3.82071435       0.00890694      -0.00054216      -0.00069270
C        1.29331937       2.14157520       3.64100926      -0.00908121      -0.00292266      -0.00754394
C       -0.05913655       4.29137940       3.06598625       0.00694354       0.00058581       0.00499899
C       -1.22371455       6.43328472       3.49973879       0.00375739       0.00057685      -0.00232276
C       -2.45696506       8.54964311       3.68553969       0.00146317      -0.00154779      -0.00651534
C        4.95203076       0.00666097       3.82152113      -0.00212915       0.00167206       0.00214858
C        3.71508010       2.02247823       4.30609140      -0.00420804       0.00196579      -0.00083005
B        1.35758004       6.44953481       3.48729868       0.00199139       0.00116027       0.00147557
C       -0.00091138       8.59803432       3.50848729      -0.00232969       0.00804478       0.00777320
C        7.40914930       0.05204287       3.65722537      -0.00661582      -0.00430939      -0.01142014
C        6.20955799       2.13378332       4.09053313      -0.00246804      -0.00775053       0.00983954
C        5.08833906       4.27896163       4.55594002      -0.00767943       0.00466619       0.00451817
P        3.34059292       6.21172158       3.97573391       0.00520754       0.00428455      -0.00227085
C        2.46610074       8.65241783       3.53679362      -0.00109811      -0.00736804      -0.00066085
C        9.89553209       0.04197210       3.60921642       0.00185007      -0.00554689       0.00700045
C        8.66194831       2.16110346       3.71424768       0.00343273      -0.00146633       0.00388317
C        7.44730660       4.28113223       3.96190010      -0.01163514       0.00549394       0.00341297
C        6.18202818       6.40956132       3.95880718      -0.00578696      -0.00423527      -0.00792616
C        4.93461109       8.55717161       3.74737070       0.01202049      -0.00079029      -0.00809620
C        0.02862933       1.44009500       3.57370978      -0.00267902      -0.00097670       0.00955063
C       -1.25022667       3.56037068       3.33762687       0.00768916      -0.00308974      -0.00079116
C       -2.45244274       5.71453656       3.59673836       0.00864251      -0.00809802      -0.00596006
C       -3.69484795       7.83656488       3.73420103      -0.00787487       0.00312588      -0.00762221
C       -4.92809180       9.96190763       3.74592828       0.00337714       0.00494181      -0.00287392
C        2.49993758       1.38695906       3.93414169      -0.00406051       0.00001228      -0.00050147
P        1.43508494       3.47213582       2.39841512      -0.00113483      -0.00287323      -0.00303877
C        0.00550062       5.71189207       3.34802058      -0.00313299       0.00093665      -0.00326874
C       -1.22738398       7.85505161       3.56563793       0.00334300       0.00389036       0.00112530
C       -2.45075300       9.96596082       3.78048978       0.00776132      -0.00272612      -0.00502983
C        4.96991897       1.40667112       4.09106591      -0.00272017      -0.00277656       0.00445509
P        3.65245291       3.50092210       5.28781453       0.00347876       0.00430722       0.00148346
C        1.24794533       7.95355802       3.43131424      -0.00627160      -0.00106886       0.00010156
C        0.00712313      10.01473751       3.64312033      -0.00700667       0.00475827       0.00624229
C        7.42317334       1.45645064       3.81861530       0.00044914      -0.00740294       0.00412493
C        6.24928965       3.54871878       4.23651782      -0.00729350      -0.00159247       0.01070359
C        4.98981115       5.64227600       4.19099367      -0.00662274       0.01740492       0.00645265
C        3.66910639       7.90765567       3.71287636       0.01154228       0.00505589       0.00274591
C        2.48040750      10.05319224       3.57299936      -0.00434767      -0.00788892      -0.00257789
C        9.89432966       1.45483202       3.58919848       0.01050760       0.00047435       0.01463259
C        8.66314967       3.57982773       3.74791210      -0.00625354       0.00061265      -0.00019027
C        7.42379426       5.70491609       3.89524508      -0.00624270       0.00415571      -0.01497875
C        6.16310929       7.82817919       3.82128740      -0.00293188      -0.01014012      -0.00902960
C        4.95067471       9.99044458       3.66340734       0.00679338      -0.00075101       0.01059576
Mo       1.70331005       4.57305294       4.37840816       0.00498933       0.00953938      -0.00094080
