49
Lattice="12.336457 0.0 0.0 -6.168228499999997 10.683685154694365 0.0 0.0 0.0 15.0" Properties=species:S:1:pos:R:3:forces:R:3 energy=-436.2726201100338 free_energy=-436.2726201100338 stress="-0.0018669344798528957 0.0028258289829624634 -5.318260428016365e-06 0.0028258289829624634 -0.006248996559251155 3.2743027567197353e-06 -5.318260428016365e-06 3.2743027567197353e-06 7.461869650547902e-07" pbc="T T T"
C       -0.01216824      -0.01173194       3.75064359       0.00319518      -0.00404942      -0.00369328
C       -1.22055557       2.14687368       3.88115474      -0.00290224       0.00589445      -0.00139195
C       -2.45093637       4.27034094       3.89116567       0.00118407      -0.00518309      -0.00004007
C       -3.71040804       6.39328460       3.76676185      -0.00236920       0.00630303      -0.00652827
C       -4.95918616       8.52077276       3.65461137       0.00308703       0.00608771       0.00103280
C        2.44687735      -0.05757243       3.74447446       0.00753837      -0.00732630      -0.00219124
C        1.25500552       2.10631636       3.88682752      -0.00928600       0.00292969       0.00070291
C        0.05005008       4.31901878       3.97038325       0.00328758       0.00440107      -0.00752578
C       -1.25286853       6.42156289       3.83114636       0.00328346       0.00106251      -0.00114765
C       -2.49026757       8.52497944       3.71596874       0.00197991      -0.00393725       0.01581630
C        4.92396742      -0.02931761       3.74819895      -0.00885710      -0.00414028       0.00875738
C        3.68094626       2.04038264       3.83718218      -0.00088351      -0.01560836      -0.00091797
N        1.15221516       6.47425396       3.90769656       0.00802553       0.00232287       0.00049857
C       -0.03104433       8.54084110       3.71895856       0.00010892       0.00557181       0.01327098
C        7.39327297      -0.00435182       3.76654575      -0.00740168      -0.00438047       0.01038233
C        6.16479299       2.11627209       3.84651673       0.00585212       0.00472696       0.00796322
C        4.91819129       4.24863508       3.78430570      -0.01102432       0.00947638      -0.00369838
P        3.71657008       6.34010329       2.39936915      -0.01204463       0.01091181      -0.00766294
C        2.42881403       8.54678878       3.59449623       0.00256598      -0.00338270      -0.00280328
C        9.86127048       0.00356483       3.74483120       0.00064083       0.00697513       0.00412915
C        8.63895076       2.13478612       3.86534599       0.00115509      -0.00359559      -0.01071664
C        7.40088601       4.25854643       3.83836935      -0.00086485      -0.00162713      -0.00595713
C        6.18148575       6.40263743       3.58459537      -0.00027787      -0.00140257       0.00471218
C        4.91199021       8.54207662       3.52903367       0.00093242      -0.00895159       0.00088092
C        0.00785580       1.42571055       3.84801129      -0.00897437      -0.00251490      -0.00509551
C       -1.19218237       3.57673760       3.92655174       0.00520301       0.00206000       0.00633320
C       -2.47192116       5.69036927       3.83902510      -0.00204628       0.00119147       0.00191987
C       -3.72307782       7.81254280       3.70756672      -0.00028721       0.00532070      -0.00254460
C       -4.95927652       9.93880107       3.71005899       0.00957595       0.00002434       0.00549710
C        2.45271870       1.35198817       3.81986575      -0.00875145      -0.00642130      -0.00362895
B        1.44418925       3.64079480       3.99745764       0.00220492       0.00748708      -0.01093403
C       -0.01421441       5.74748544       3.91900287       0.00444461       0.00201645      -0.01078549
C       -1.25724844       7.82960827       3.75020088       0.00273273       0.00187169       0.00735275
C       -2.48152240       9.93976013       3.72118601       0.00124531      -0.00938149       0.00947286
C        4.93125646       1.38906784       3.80623607       0.00533930      -0.00405905       0.00849722
B        3.54357658       3.52970802       3.92168687       0.00594142      -0.01123429      -0.00640516
C        1.18704406       7.83088393       3.71768827       0.00317508       0.00468817       0.00927651
C       -0.01212305       9.95990318       3.73349164      -0.01185577       0.00372494       0.00774901
C        7.39925952       1.41815079       3.83429481       0.00277720      -0.00395442      -0.00470783
C        6.15574666       3.54093662       3.85258237      -0.00768022       0.00660445      -0.00664340
C        4.96222473       5.65620890       3.49469764       0.00996211      -0.00023862      -0.00371197
C        3.65639013       7.85786922       3.39166948       0.00068849      -0.00906106      -0.00578889
C        2.45229292       9.97414624       3.70895629      -0.00007164       0.00003948       0.01046929
C        9.87664771       1.43015301       3.83868063       0.00229740       0.00796536       0.00189629
C        8.64298807       3.55872306       3.87966392       0.00025446      -0.00674463      -0.00956613
C        7.39920601       5.68131368       3.74679959       0.00032153       0.00136708       0.00366917
C        6.14534945       7.81793273       3.55902976       0.00319666       0.00232702       0.00509111
C        4.92256628       9.96621380       3.68484014      -0.00023210      -0.00106361      -0.01675531
Mo       2.81179558       5.36447599       4.28689217      -0.00638621       0.00490648      -0.00452927
