49
Lattice="12.336457 0.0 0.0 -6.168228499999997 10.683685154694365 0.0 0.0 0.0 15.0" Properties=species:S:1:pos:R:3:forces:R:3 energy=-439.3928025518006 free_energy=-439.3928025518006 stress="-0.002989831306965998 -0.0036946627428872734 4.0677697924056344e-07 -0.0036946627428872734 0.0013315713719179198 5.74942674184019e-07 4.0677697924056344e-07 5.74942674184019e-07 -1.3755806598270375e-06" pbc="T T T"
C        0.00506654       0.00702841       3.64192555       0.00294076      -0.00538940      -0.00499666
C       -1.26211198       2.11510242       3.64238926       0.01052650       0.00413596       0.00535061
C       -2.50522585       4.26618827       3.64201539       0.00493441       0.00352231       0.00244637
C       -3.69235714       6.41660521       3.63993586      -0.00690961      -0.00628279       0.00405344
C       -4.90964347       8.56538346       3.62442220       0.00242903       0.00416824       0.00192344
C        2.48250085       0.02087501       3.80252506       0.00502462      -0.00091204      -0.00089701
C        1.21108572       2.12864335       3.90888519      -0.00867368      -0.00004850       0.01291890
C       -0.09014755       4.23244729       3.97708328      -0.00191554       0.00467885       0.01162366
C       -1.24098174       6.40049943       3.87303160      -0.00029678       0.00183210      -0.00958824
C       -2.44275123       8.55400493       3.78359062      -0.00244783      -0.00121310      -0.01329951
C        4.94552172       0.01309121       3.80640283       0.00550672       0.00594128      -0.01206340
C        3.70048810       2.19696977       3.94705169      -0.00304372      -0.00351476       0.00035220
B        1.26712669       6.34199312       4.29275405      -0.00303799      -0.00298325      -0.00059481
C        0.03649193       8.52609605       3.86868802      -0.00296755      -0.00266886      -0.00934587
C        7.40828056      -0.01430722       3.67011087      -0.00603728      -0.01265183      -0.00986765
C        6.15543986       2.15407147       3.67984483       0.00088923      -0.00623301      -0.01199456
C        4.90960858       4.33262228       3.73641415       0.00755204      -0.00089754      -0.00152685
O        3.83833624       6.49860007       3.25824805      -0.00038457       0.00683537      -0.00072119
C        2.50717649       8.50014967       3.67088284      -0.00477252       0.00104830      -0.00914393
C        9.86369726      -0.01833417       3.56047139      -0.00035045       0.00456185       0.00075223
C        8.61537702       2.12806181       3.56273797      -0.00610443       0.00106372       0.00092509
C        7.38024238       4.28313988       3.56286982      -0.00713026      -0.00473425       0.00425825
C        6.19157508       6.43963748       3.53463348       0.00336343       0.00586928       0.00794294
C        4.96643713       8.55784812       3.51871862       0.00369386       0.00033133       0.00621009
C       -0.02118203       1.41656258       3.71251153       0.00216458      -0.00401996       0.00509082
C       -1.29400430       3.53140216       3.70975867       0.00714400       0.00368696       0.00529374
C       -2.47920444       5.69361154       3.71117567      -0.00087452       0.00175319       0.00364872
C       -3.67553744       7.84641243       3.68241925      -0.00592388      -0.00349087       0.00715965
C       -4.91501707       9.99287770       3.69021926       0.00264754       0.00136961      -0.00102508
C        2.47174983       1.44901890       3.91794694      -0.00714346      -0.00192639      -0.00109940
C        1.11418332       3.50727893       4.13213549      -0.00517728       0.00392489       0.00356585
C       -0.05611178       5.64652193       4.06287973      -0.00335259       0.00326495       0.00218853
C       -1.21106069       7.82816674       3.86171301      -0.00406018      -0.00008618      -0.00105931
C       -2.45282372       9.98404175       3.80909344       0.00850037       0.00195763      -0.00665108
C        4.93494761       1.44631913       3.80207533       0.00149100       0.00255328       0.00223863
C        3.73714840       3.62213662       4.07227563       0.01119720      -0.00584396      -0.00603529
C        1.28550646       7.81252153       3.91740892      -0.00154728      -0.00079361       0.01384559
C        0.01218170       9.96528732       3.77650972      -0.00273278      -0.00454688       0.00460529
C        7.39014682       1.41884658       3.61939010      -0.00444263      -0.01152241       0.00074205
C        6.14806448       3.58570322       3.62222935      -0.00122833      -0.00814821      -0.00886511
C        4.97056378       5.75985316       3.55490006       0.00431635       0.00530342      -0.00201483
C        3.76567072       7.84561443       3.50930823      -0.00013153       0.00781724       0.00275651
C        2.47814114       9.93949407       3.61224327      -0.00256148      -0.00142590       0.00030704
C        9.84706624       1.40791210       3.56627196       0.00356806       0.00704260      -0.00024557
C        8.60760871       3.55678136       3.56464325      -0.00239302       0.00450646       0.00320804
C        7.40819417       5.70568855       3.57180761      -0.00474767      -0.00612257       0.00086595
C        6.20225910       7.85785869       3.53528552       0.00712568       0.00524586      -0.00097494
C        4.93982795       9.97667929       3.56387527       0.00203490      -0.00072835      -0.00389223
Mo       2.32784118       4.73554113       5.17100973       0.00333856       0.00376993       0.00162888
