49
Lattice="12.336457 0.0 0.0 -6.168228499999997 10.683685154694365 0.0 0.0 0.0 15.0" Properties=species:S:1:pos:R:3:forces:R:3 energy=-428.18921048789895 free_energy=-428.18921048789895 stress="-0.004951281756352156 0.00037149839912471337 2.4515025672245576e-07 0.00037149839912471337 -0.006443384363878636 7.684574513572708e-06 2.4515025672245576e-07 7.684574513572708e-06 4.31493478995398e-06" pbc="T T T"
C        0.02682251       0.02414070       3.88419833      -0.00146026      -0.00611344       0.00376433
C       -1.21412533       2.14485839       3.64319142      -0.00095800       0.00713225       0.00017782
C       -2.45631921       4.28993115       3.76571992       0.00132498      -0.00473607      -0.00364768
C       -3.66648020       6.42527090       3.96050724       0.00823240      -0.00197397      -0.00211894
C       -4.91008784       8.55806538       4.04267960      -0.00618076      -0.00944129       0.00066259
C        2.49117176      -0.02101222       3.69445490       0.01094255       0.00587478       0.00758723
C        1.25921344       2.12597052       3.36755507       0.00170985       0.00387784      -0.00914687
C       -0.12870864       4.28627983       3.10898637      -0.00789545       0.00088734       0.00083978
C       -1.20242816       6.41733427       3.73214417      -0.00803999      -0.00152409      -0.00251776
C       -2.43346069       8.54805774       3.83794095       0.00423636       0.00115342       0.00634394
C        4.96286887       0.00129334       3.64282426      -0.00236212       0.00226922      -0.00413795
C        3.72149176       2.04503156       3.26689376       0.00406901       0.00784342       0.00182062
B        1.35224407       6.39640996       3.77437346       0.00394686      -0.00746272       0.00191205
C        0.03164468       8.56875655       3.76266798       0.00440361       0.00829230       0.00021589
C        7.42146139       0.03726383       3.76380764      -0.00267116      -0.00393415      -0.00097383
C        6.19051705       2.15915719       3.57747596      -0.00593241      -0.01359642      -0.00248413
C        5.04490249       4.34395048       3.61154269       0.00607976       0.00113182      -0.00245819
P        3.41705110       6.22208369       4.67382816      -0.00209695       0.00023212       0.00075248
C        2.48925438       8.63219552       4.01851272       0.00506764       0.00478000       0.00652965
C        9.90045347       0.03968621       3.93125637       0.00019811      -0.01044649      -0.00336151
C        8.65568045       2.16062686       3.77210620      -0.00011702      -0.00231375       0.00191034
C        7.43714941       4.29453135       3.85866016      -0.00300684       0.00938571       0.00297772
C        6.20799391       6.42589834       4.14861840       0.00020616       0.00985765      -0.00071834
C        4.95609582       8.58067331       4.21779870      -0.00220179      -0.00117543      -0.00450665
C        0.01814270       1.43880715       3.64989951      -0.00302754       0.00345055       0.00652670
C       -1.26891977       3.55092742       3.51898927      -0.00061380       0.00468451      -0.00344921
C       -2.43751909       5.71517627       3.82623202       0.00198739      -0.01004548      -0.00629030
C       -3.67102293       7.84700819       3.96192938       0.00245923      -0.00418239       0.01100060
C       -4.91006504       9.97604766       3.89498167       0.00499692      -0.00602398      -0.00098909
C        2.49746773       1.38089266       3.41212697       0.00752272       0.00938970       0.00138438
S        1.02928172       3.41867057       2.07837168       0.00779621       0.01246875       0.00113441
C        0.02322445       5.67250939       3.51426789      -0.01444783      -0.00170120       0.00686558
C       -1.19872630       7.84029879       3.78323568       0.00298329       0.00255905       0.00195028
C       -2.43621381       9.96738074       3.73044425       0.00574024       0.00333365      -0.00079040
C        4.96768324       1.42584793       3.49097954      -0.00402564      -0.00674444      -0.00594433
S        3.65969384       3.70446948       2.79377656      -0.01017972      -0.01138818       0.00257404
C        1.28131240       7.90738312       3.82720909       0.00520512       0.00581700       0.00735303
C        0.02788358       9.99377028       3.72509549      -0.00383437       0.00647116       0.00620085
C        7.41544418       1.45680646       3.70727687      -0.00244070      -0.00715711      -0.00087203
C        6.21750626       3.57655902       3.66707799      -0.00219558      -0.00575919      -0.00516524
C        5.00191163       5.66043483       4.09697677       0.00626695      -0.00091064       0.00092573
C        3.69377298       7.93714453       4.31129975       0.00253914       0.00988921      -0.00579020
C        2.49105795      10.03845850       3.91246462      -0.00081885      -0.00276935      -0.00290879
C        9.89206709       1.44964819       3.79845957       0.00250444      -0.00410390       0.00102276
C        8.65625171       3.57792089       3.81857962      -0.00240577       0.00261707       0.00270262
C        7.43775047       5.71440338       4.00615039       0.00225013       0.01509906      -0.00069349
C        6.19550152       7.85343020       4.19213986      -0.01050310      -0.00064910      -0.00834104
C        4.96215333      10.00605855       4.03364233      -0.00073845      -0.00966529      -0.00172730
Mo       1.77734700       4.36204006       4.14536837      -0.00451494      -0.00467953      -0.00610220
