50
Lattice="12.336457 0.0 0.0 -6.168228499999997 10.683685154694365 0.0 0.0 0.0 15.0" Properties=species:S:1:pos:R:3:forces:R:3 energy=-445.43092592428263 free_energy=-445.43092592428263 stress="-0.0017040604956341738 0.001142814590158956 1.4080467162009672e-05 0.001142814590158956 -0.006415051500033328 7.878665077627605e-07 1.4080467162009672e-05 7.878665077627605e-07 -3.0744596744828854e-06" pbc="T T T"
C        0.00746939       0.01434900       3.52844689      -0.00216085      -0.00394340      -0.00552653
C       -1.21840285       2.16239127       3.58492325      -0.00004974      -0.00952595      -0.00401077
C       -2.45028086       4.29831799       3.79766224      -0.00618175       0.00624330      -0.00952158
C       -3.69127506       6.43009201       3.82347914      -0.00705451       0.00096647       0.00671378
C       -4.93738180       8.55474034       3.63250349       0.00673724       0.00175442       0.00189957
C        2.47424907       0.00668195       3.68368465      -0.01170870       0.00246704      -0.00030299
C        1.25631245       2.14673708       3.41496646       0.00690726       0.00211836      -0.00782923
C        0.00048132       4.30089588       3.61375821       0.00045378      -0.00275381      -0.00294898
C       -1.21714751       6.42955935       3.97627867      -0.00334272      -0.00028626       0.00168163
C       -2.46473012       8.56499552       3.88357269       0.00199273      -0.00650241       0.00100862
C        4.93732687       0.02491619       3.92772402       0.00035208       0.00311469      -0.00340119
C        3.70742848       2.13700935       3.81710055      -0.00111120       0.00778715       0.00499961
B        2.62961458       4.33546737       3.06155940      -0.00295550      -0.00346829      -0.00403595
B        1.32736401       6.45226682       4.21678986       0.00296630       0.00078451      -0.00459502
C        0.00188547       8.59400612       4.01063273       0.00363349      -0.00015545      -0.00191947
C        7.41135536       0.04466804       3.90384848       0.01334206      -0.00259210      -0.00620967
C        6.18963621       2.15017916       3.97969516       0.00074214       0.00349806      -0.00145567
C        4.99301954       4.26577907       3.85799385      -0.00177536      -0.00660237      -0.00424740
P        3.38846081       6.16858531       2.94859326       0.00718877       0.00400525      -0.01335399
C        2.46829290       8.63045794       3.72565741      -0.00169410       0.00369161       0.00560711
C        9.88508528       0.04115391       3.64897174       0.00652419       0.00532594       0.00039745
C        8.65881157       2.16614187       3.83010724      -0.01031211      -0.00534698       0.00598733
C        7.43113487       4.29736476       3.89146034       0.00424731      -0.00685800       0.00698061
C        6.17442500       6.41789862       3.61819820       0.00832079      -0.00166004       0.00553216
C        4.92159476       8.55956188       3.45865961      -0.00466721       0.00245657       0.00399279
C        0.01536461       1.44289439       3.49213672       0.00788892      -0.00591788      -0.00294174
C       -1.22651505       3.58300061       3.64001272      -0.00421396      -0.00486145      -0.00417103
C       -2.45476320       5.72138175       3.87989611      -0.00925574       0.00836461      -0.00074644
C       -3.69933439       7.85318690       3.78087545       0.00220470      -0.00363982       0.00220651
C       -4.92742213       9.98050372       3.59626631      -0.00687930      -0.00052282      -0.00408296
C        2.47980914       1.44128616       3.61784754      -0.00017756       0.00526029       0.00493092
C        1.24115924       3.60514263       3.27951792       0.00699516       0.00379790       0.00032885
C        0.01368866       5.68619931       3.97919400      -0.00255526       0.00032446       0.00258466
C       -1.22933132       7.85987256       3.99712525       0.00426816      -0.00373111      -0.00471168
C       -2.46619177       9.98959131       3.84157476      -0.00826573      -0.00150380       0.00215642
C        4.94595439       1.43989360       3.93136404       0.00117953       0.00701010       0.00004227
C        3.73428147       3.56250237       3.84828913      -0.00919982       0.00373996       0.00878283
C        1.25456216       7.93938575       3.99282900      -0.00167937       0.00177958      -0.00548514
C        0.00329108      10.01622965       3.96527769       0.00847306       0.00221929      -0.00667073
C        7.42237694       1.45683944       3.92203828      -0.00470294      -0.00419369       0.00408672
C        6.21166327       3.56982083       3.96669156       0.00206697      -0.00095459       0.00205780
C        4.98195131       5.63867481       3.55599587       0.00693165      -0.00244407       0.00906742
C        3.65332547       7.90975340       3.40313616      -0.00430214       0.00360490       0.00038079
C        2.47958930      10.04020659       3.76785180       0.01375489       0.00185222       0.00054038
C        9.88774702       1.45942907       3.68917796      -0.00706831       0.00032596       0.00013537
C        8.65965704       3.58746936       3.85090646       0.00007910      -0.00557875       0.00861155
C        7.41444664       5.71768292       3.78489115       0.00289311      -0.00761747       0.00672015
C        6.16362609       7.84213525       3.53228158       0.00731974       0.00566190       0.00077696
C        4.93897891       9.99334131       3.53487819      -0.00094357       0.00142344       0.00421552
Mo       1.93563459       4.64406547       5.02433605      -0.01520564       0.00108250      -0.00425762
