49
Lattice="12.336457 0.0 0.0 -6.168228499999997 10.683685154694365 0.0 0.0 0.0 15.0" Properties=species:S:1:pos:R:3:forces:R:3 energy=-432.2729204808851 free_energy=-432.2729204808851 stress="-0.009390186891262729 -0.003276900895629934 -2.42944175138563e-07 -0.003276900895629934 -0.010644464073899173 -4.751068573356445e-06 -2.42944175138563e-07 -4.751068573356445e-06 -3.068799003805649e-06" pbc="T T T"
C        0.00359728      -0.01864229       3.91498705      -0.00579050       0.00714516      -0.01225377
C       -1.25578464       2.09860647       3.83846565       0.00125354       0.00112640       0.01231005
C       -2.46879864       4.26169752       3.87796736       0.00664292       0.00143606       0.00645986
C       -3.65880043       6.40617681       3.95831989      -0.00866474       0.00787843      -0.00274253
C       -4.90904147       8.54334880       3.98839465       0.00164554      -0.00774919      -0.00386274
C        2.47379139      -0.01355263       3.88050771      -0.01081435      -0.00536689      -0.00875260
C        1.19672730       2.10673693       3.75194611       0.00288920       0.00380385       0.00233427
C       -0.05767784       4.17914618       3.71201763       0.00325851      -0.00737047      -0.00359788
C       -1.19582156       6.39421191       3.81353654      -0.00058173      -0.00033202       0.00040543
C       -2.43518738       8.52995887       3.87999978       0.00568707       0.00991925      -0.00124924
C        4.93194016       0.00197601       3.75022385       0.00131494       0.00292270      -0.00530337
C        3.66775080       2.08072785       3.52498556      -0.00029949       0.00231915      -0.00620060
S        1.23816218       6.36376916       2.60540510      -0.00606136      -0.00231994      -0.00725506
C        0.00810369       8.54949622       3.63373102      -0.00357493      -0.00169750      -0.00650277
C        7.39310103       0.01383713       3.71808919      -0.00257523      -0.00253859       0.00544287
C        6.16098211       2.14336466       3.62579267       0.00147298       0.00119985       0.01084493
C        5.05986538       4.32968451       3.47231931      -0.00204750       0.00202472      -0.00764190
B        3.73166598       6.43090859       3.90625943       0.01812100       0.00253466       0.00056480
C        2.47001886       8.58408704       3.65407942      -0.00238271       0.00556176      -0.00338632
C        9.86627328      -0.00287006       3.83603399       0.00354044       0.00552078       0.00919971
C        8.62463316       2.13440141       3.79636890      -0.00044071      -0.00185375       0.01172421
C        7.43414674       4.27856974       3.81466496      -0.00229941       0.00020825       0.00032090
C        6.23037653       6.42632310       3.91713472      -0.00401668      -0.00584068      -0.01053559
C        4.95382197       8.55582484       3.90374065       0.00704677      -0.00589451      -0.00124058
C       -0.02168683       1.39457234       3.83887405       0.00088324       0.01037370       0.00457629
C       -1.27339547       3.50959751       3.81552411       0.00560477      -0.00333407       0.00688118
C       -2.43231273       5.68688894       3.91138201      -0.00519474       0.00562621       0.00646621
C       -3.66934121       7.82796590       3.96536444       0.00629519       0.00806516      -0.00191601
C       -4.92208140       9.96144998       3.95215281      -0.01229159      -0.00628664      -0.00927189
C        2.45025495       1.41302280       3.74588382      -0.00123537      -0.00173414      -0.00226627
N        1.10804866       3.46513019       3.71536245       0.00616604      -0.00005939      -0.00089246
C        0.00838588       5.61496844       3.65289207      -0.00110246      -0.00830077      -0.00357029
C       -1.20365843       7.81203531       3.75792318      -0.00182799       0.00191943      -0.00493702
C       -2.45559147       9.96313471       3.84708690      -0.00153073       0.00635322      -0.00490508
C        4.92300853       1.43295129       3.63369258       0.00320761       0.00052184      -0.00237688
S        3.58971138       3.68658240       2.89268723       0.00809410      -0.00622293       0.00075096
C        1.24964118       7.91490239       3.41562905      -0.00304573      -0.00950823      -0.00006651
C       -0.00015197       9.97955625       3.71299140      -0.00229850      -0.00384038       0.00210887
C        7.38656548       1.43651504       3.71953460      -0.00051459      -0.00356770       0.01423217
C        6.21289858       3.55798865       3.62687961      -0.00729774       0.00354400       0.00705361
C        5.02626081       5.69733104       3.76591564       0.00055336      -0.00082353      -0.00120848
C        3.70319245       7.89913046       3.79479408       0.00176373       0.00172092      -0.00268361
C        2.45899194      10.00062636       3.74836772       0.00145620       0.00730280       0.00665847
C        9.85218909       1.41051173       3.83609426       0.00100662       0.00280546       0.00948678
C        8.64166439       3.55386078       3.84607092       0.00370951       0.00051488       0.00610149
C        7.45103822       5.69929382       3.91801108      -0.00686808       0.00077978      -0.00948024
C        6.19478833       7.84213770       3.96900578       0.00471295      -0.01198374      -0.00116920
C        4.93870851       9.97187784       3.89891912       0.00168910      -0.00157767      -0.00053979
Mo       2.19641857       5.06872847       4.19870949      -0.00525845      -0.00492568       0.00188563
