49
Lattice="12.336457 0.0 0.0 -6.168228499999997 10.683685154694365 0.0 0.0 0.0 15.0" Properties=species:S:1:pos:R:3:forces:R:3 energy=-431.3615456416769 free_energy=-431.3615456416769 stress="-0.000332829732125157 -0.003581036171388511 -1.4671480209672408e-05 -0.003581036171388511 -0.007264549472565967 -8.655339319119854e-06 -1.4671480209672408e-05 -8.655339319119854e-06 -5.580464360735359e-06" pbc="T T T"
C        0.01603447      -0.03134523       3.37657639       0.00492046       0.00025358       0.00269400
C       -1.21611541       2.13317826       3.56620389      -0.00098706      -0.00353370       0.01114222
C       -2.45250292       4.26521183       3.78629554      -0.00620990      -0.00730990      -0.00351800
C       -3.67008961       6.40172020       3.70016905      -0.00000190      -0.01368989      -0.00205280
C       -4.89869363       8.52299391       3.47545609      -0.00781791       0.00354998       0.00093957
C        2.50709646      -0.07184508       3.44766378      -0.00872833       0.00659841      -0.01143009
C        1.26985962       2.03383422       3.42883294      -0.00364249      -0.01118401       0.01242650
C        0.01776798       4.25268604       4.03331066      -0.00307558       0.00544306       0.00552956
C       -1.22111141       6.41249064       4.00094867       0.00032382      -0.00042905       0.00577789
C       -2.41960964       8.52263955       3.69243018      -0.00869282       0.00237006      -0.01045853
C        4.95867995      -0.00538771       3.70390949      -0.00647460      -0.00341492       0.00360315
C        3.66562923       2.05612486       3.80861836      -0.00120294       0.01488653      -0.00316647
B        1.21366818       6.51771337       4.53792415       0.00204817       0.01047943      -0.00772441
C        0.04526494       8.55771293       3.91053361       0.00537837      -0.00327094      -0.00694937
C        7.42393387       0.01572720       3.71768524       0.00249318       0.00182638      -0.00657040
C        6.15428080       2.16814309       3.78048643      -0.00543753       0.00497431      -0.00613390
C        4.93984409       4.39334505       3.84253224       0.01044570       0.00027308       0.00599301
O        3.78702986       6.48910154       3.65315768      -0.00294819       0.00434028       0.00192691
C        2.53302442       8.55957085       3.78268321       0.00188797      -0.00480851      -0.00152768
C        9.88832110       0.00765048       3.53711709       0.00677878      -0.00766426      -0.00598475
C        8.64248485       2.14640257       3.66958711      -0.00157233       0.00608266      -0.00672323
C        7.39931908       4.28497381       3.72103988       0.00564116       0.00007016       0.00081793
C        6.20220876       6.43366521       3.59013972       0.00441766      -0.00177598      -0.00026079
C        4.96438978       8.54600963       3.50186660       0.00411258       0.00409501       0.01132238
C        0.01290228       1.39608208       3.41452570      -0.00286088      -0.00408747       0.00546103
C       -1.21818893       3.53817853       3.77974780      -0.00559303       0.00069090      -0.00056407
C       -2.44706437       5.69085087       3.83943520       0.00100936      -0.01314974      -0.00220347
C       -3.65697648       7.81818252       3.61493993      -0.00882866      -0.00626748      -0.00410068
C       -4.90891853       9.93582916       3.39520156      -0.00427246       0.00488488       0.00210930
C        2.48918569       1.34000329       3.50539614      -0.00089217       0.00204019       0.00597987
B        1.34077436       3.46703752       3.75904713       0.00947774      -0.00533785       0.01619259
C       -0.01963801       5.68653009       4.22961221       0.00906550       0.01129049       0.00882605
C       -1.18767468       7.82893154       3.89602749      -0.00046049       0.00064336      -0.00075849
C       -2.42341710       9.93667278       3.60257640      -0.01279638       0.00525829      -0.00712607
C        4.93595757       1.43060206       3.77004480      -0.00600186      -0.00076966      -0.00182231
S        3.39750981       3.70128450       4.27063146      -0.00133604      -0.00044540       0.01103998
C        1.30262556       7.90228784       4.04783137       0.00299093      -0.00152363      -0.01087964
C        0.02710912       9.98202229       3.76643199       0.00234040      -0.00132938       0.00305487
C        7.39739348       1.44792077       3.71390432      -0.00401569       0.00903121      -0.01077131
C        6.14076851       3.60130019       3.77783675       0.00791012       0.00601653       0.00321761
C        4.98024642       5.78275751       3.69395326       0.00119524      -0.00112570      -0.00962115
C        3.76349313       7.85473687       3.66878858      -0.00065046       0.00397728      -0.00024376
C        2.50304976       9.98239005       3.66204026       0.00393472      -0.00733586      -0.00603755
C        9.87998878       1.43342974       3.57147396      -0.00000282      -0.00382760       0.00204004
C        8.64257436       3.56591125       3.71909632      -0.00330875       0.00166527      -0.00885235
C        7.42533190       5.69838317       3.66175744       0.00160601      -0.00681717      -0.00086863
C        6.20376622       7.84110125       3.49281559      -0.00216551      -0.00053059       0.00393283
C        4.94671737       9.96728784       3.45251068       0.01138474      -0.00152091       0.00276545
Mo       1.59916228       4.73651824       5.38392523       0.01061420       0.00040828       0.00955713
