49
Lattice="12.336457 0.0 0.0 -6.168228499999997 10.683685154694365 0.0 0.0 0.0 15.0" Properties=species:S:1:pos:R:3:forces:R:3 energy=-436.30566432395597 free_energy=-436.30566432395597 stress="-0.005102900151655115 -0.0019072269244601015 4.299263005017785e-06 -0.0019072269244601015 -0.005966100441577769 4.2272327502222965e-06 4.299263005017785e-06 4.2272327502222965e-06 -7.453662799844656e-07" pbc="T T T"
C       -0.01165831      -0.02329227       3.57255334       0.00401209      -0.00246310      -0.00396571
C       -1.25783219       2.11318585       3.74553947       0.00533665       0.00254333      -0.00215524
C       -2.50061091       4.25969259       3.59886852      -0.00765419       0.00883991       0.00317502
C       -3.70475358       6.39898699       3.42639162      -0.00949348       0.00467700       0.00363137
C       -4.93196018       8.53719390       3.38423381      -0.00454279       0.00151128       0.00878355
C        2.46570090      -0.04085778       3.57634269       0.00858736       0.00516771       0.01256771
C        1.22207608       2.00500803       4.03955666      -0.00060220       0.00283746       0.00616575
C       -0.11665617       4.29165170       4.01773712      -0.00298677      -0.00102813       0.00441052
C       -1.26164400       6.41096848       3.66851531      -0.00375347       0.00052365       0.00098284
C       -2.46110493       8.53179505       3.47962898       0.00523540      -0.00181650       0.00171239
C        4.93315565      -0.01466315       3.63979707       0.00088098      -0.00374379       0.00773016
C        3.68367217       2.08344586       3.93494061      -0.00484750      -0.00417661      -0.01410065
B        1.21411805       6.40511431       4.32830713       0.00621672       0.00511233       0.00515497
C        0.00005422       8.53596209       3.73928304       0.00248860      -0.00001028      -0.00386446
C        7.39466609      -0.00679975       3.67628478       0.00154255      -0.00996399      -0.00700036
C        6.15128109       2.14065988       3.74520821      -0.00329139       0.00479246      -0.00413886
C        4.93798389       4.33696263       3.96438357      -0.00084974      -0.00159173      -0.00488084
N        3.81742222       6.47129923       3.98945538       0.00907811       0.00432706      -0.00736530
C        2.48038500       8.53313972       3.81014865      -0.00142753      -0.00931702       0.00366877
C        9.85744435      -0.01379628       3.61532108      -0.00477025       0.00282461      -0.00156142
C        8.61497769       2.12753205       3.62901711      -0.00147771       0.00476598      -0.00597357
C        7.37914684       4.27261122       3.59145187       0.00756980       0.00226541      -0.01134053
C        6.17702215       6.42618163       3.49233946       0.00242754      -0.01078232      -0.00695680
C        4.93838042       8.53654928       3.52441850      -0.00016414       0.00205488       0.00310959
C       -0.02581735       1.38469521       3.78560697       0.00589548      -0.00236768      -0.00110967
C       -1.28522887       3.53376864       3.77030683      -0.00748655       0.00454400       0.00345795
C       -2.48676722       5.68472920       3.53469059      -0.01077057       0.00766886       0.00107484
C       -3.69647979       7.82333503       3.39646945      -0.00264796       0.00382826       0.00383131
C       -4.94096782       9.95272877       3.48509570       0.00840563       0.00425041       0.00844926
C        2.46618982       1.35062172       3.83809722      -0.00306031       0.00292790       0.00779736
P        1.35455774       3.61431021       4.64359403       0.01411024      -0.00377698       0.00919876
C       -0.08077276       5.70026310       3.96355542       0.00085334      -0.00169460      -0.00496762
C       -1.23365140       7.82760174       3.62121944       0.00437839      -0.00037223       0.00729870
C       -2.46266815       9.94963035       3.53898631       0.00534310      -0.00186524       0.00677886
C        4.92604686       1.41254892       3.76891772      -0.00466253      -0.00216238       0.00145501
B        3.65663259       3.56850287       4.25998854      -0.00130862      -0.00896649      -0.00074624
C        1.24402274       7.85554599       3.94541186      -0.00351531       0.00021861      -0.00167054
C       -0.00466586       9.96293950       3.66739553       0.00053740      -0.00400540       0.00178012
C        7.38251942       1.42206450       3.66721311      -0.00236286      -0.00253884      -0.00651871
C        6.14376470       3.57560729       3.76359004       0.00499382       0.00824878      -0.01346468
C        4.97830848       5.75785913       3.79021794       0.00156610      -0.00124556       0.00322698
C        3.73076157       7.82080016       3.76036392       0.00268854       0.00469513       0.00558401
C        2.46461559       9.96164800       3.67895317       0.00046259      -0.01284459      -0.00344549
C        9.85083585       1.41058395       3.64286028       0.00183374       0.00702041      -0.00552864
C        8.60601119       3.55228078       3.58343707       0.00100318       0.00411283       0.00049313
C        7.39682286       5.69201147       3.47568156       0.00068631      -0.00447425      -0.00832221
C        6.16994737       7.83778828       3.42437146      -0.00411139      -0.00969887       0.00155601
C        4.92393304       9.95647510       3.54425378      -0.00285488       0.00262369      -0.00357965
Mo       2.77817618       5.25167795       5.21471763      -0.01749153      -0.00147537      -0.00041774
