49
Lattice="12.336457 0.0 0.0 -6.168228499999997 10.683685154694365 0.0 0.0 0.0 15.0" Properties=species:S:1:pos:R:3:forces:R:3 energy=-428.70958623275453 free_energy=-428.70958623275453 stress="-0.0017722780342841486 0.0002701644933066333 -3.098767317927211e-07 0.0002701644933066333 -0.006453393548939641 2.1924753178719733e-06 -3.098767317927211e-07 2.1924753178719733e-06 2.021060536117461e-06" pbc="T T T"
C        0.02620717       0.02166545       3.66023814      -0.00309210       0.00054623       0.00612791
C       -1.21441195       2.14807020       3.48807331      -0.00138845      -0.00422415      -0.00688575
C       -2.45921737       4.28378908       3.52386563       0.00147819       0.00129782       0.00082511
C       -3.66880581       6.41977302       3.67187686      -0.00572945      -0.00087088      -0.00335446
C       -4.91922486       8.54703351       3.66772754       0.00189168       0.00083408      -0.00094193
C        2.49376864      -0.02263017       3.87724240      -0.00548058      -0.00415517      -0.00015691
C        1.28473900       2.16189653       3.67158532       0.00359892      -0.00452591       0.00182917
C       -0.08192686       4.29388144       2.93040515       0.00749402      -0.00117080      -0.00103279
C       -1.19438877       6.42059673       3.56748144      -0.00149037       0.00688763      -0.01398083
C       -2.43026925       8.54041489       3.81418591      -0.00885218      -0.01053120      -0.00848924
C        4.96734073      -0.00695384       4.05466271      -0.00652871      -0.00771153      -0.00861896
C        3.70357674       2.04448646       4.29749005       0.00286317       0.00675702       0.00009209
B        1.38210354       6.38429607       3.79479838       0.01101253       0.00167434       0.00755217
C        0.04258856       8.55291371       3.87540739       0.00057944      -0.00120830       0.00299870
C        7.42381266       0.03558625       3.96879647       0.00542652       0.00917916      -0.00923638
C        6.19953188       2.15489649       4.16444110      -0.00345403       0.00097987       0.01156487
C        5.03072075       4.35008767       4.20607360       0.00509849      -0.00284858       0.00108027
S        3.45751360       6.27094713       3.08147861      -0.01174642       0.01024059      -0.00004551
C        2.48581838       8.62103515       3.73324514       0.00309528       0.00259717      -0.00180061
C        9.89798657       0.03878442       3.73400945       0.00337428       0.00176866      -0.00378185
C        8.65846868       2.15906924       3.81688180       0.00069166      -0.00409072      -0.00131843
C        7.43748771       4.29077901       3.87323368      -0.00194017      -0.00186671       0.00601902
C        6.18553273       6.42163705       3.64905487       0.00087286       0.01047954       0.00390117
C        4.95129158       8.56730934       3.56431517      -0.00351487       0.00281972       0.00677655
C        0.01799180       1.44607572       3.58998307       0.00235926       0.00020272      -0.00010394
C       -1.26078821       3.55435127       3.28325549       0.00089542      -0.00437557      -0.00620793
C       -2.43591373       5.70929198       3.58331042      -0.00146524       0.00569507      -0.00013113
C       -3.67258617       7.83988405       3.71002730      -0.00547252      -0.00650195       0.00366358
C       -4.91339545       9.96905028       3.72257037      -0.00369759      -0.00203569      -0.00385609
C        2.50066140       1.38621062       3.97180620       0.00484157       0.00002445      -0.00182170
P        1.45085442       3.48066199       2.39207601       0.00241793      -0.00202263       0.00447013
C        0.03269277       5.70454465       3.33951274       0.00375061       0.00010177       0.00467403
C       -1.19443387       7.82774121       3.78089000      -0.00353393       0.00095421      -0.00118015
C       -2.43369823       9.95763596       3.93430523      -0.01021458      -0.01180228      -0.01221356
C        4.97115611       1.41440319       4.20507513      -0.00130494      -0.00328786       0.01222784
P        3.53768441       3.70169600       4.86567835       0.00667646      -0.00181720      -0.00151681
C        1.28814240       7.89188485       3.80512927       0.00324759       0.00095522      -0.00003055
C        0.03149443       9.98670466       3.98794886       0.00254068       0.00277785      -0.00687151
C        7.42630450       1.45606442       4.00369966      -0.00166072       0.00643563      -0.00022345
C        6.22394703       3.58189227       4.12247229      -0.00384372      -0.00197589       0.00014492
C        4.99077956       5.66525523       3.71922877       0.01512362      -0.00460240       0.00062486
C        3.69530304       7.93467211       3.49958776      -0.00139897      -0.01026301       0.00521500
C        2.49392872      10.03681734       3.83686042       0.00549320       0.00486195      -0.00851895
C        9.88888298       1.45249782       3.68483837       0.00103424      -0.00292163       0.00478056
C        8.65947597       3.57893280       3.74603050       0.00017763      -0.00337093       0.00544183
C        7.43073441       5.71058439       3.73036149      -0.00478864       0.00256601       0.01290437
C        6.18238011       7.84060605       3.58102235       0.00036800       0.01321749      -0.00239299
C        4.95951980      10.00111399       3.64668714      -0.00165081       0.00201838       0.00251842
Mo       1.34603105       4.35061145       4.52579224      -0.00415424       0.00230841      -0.00072017
