49
Lattice="12.336457 0.0 0.0 -6.168228499999997 10.683685154694365 0.0 0.0 0.0 15.0" Properties=species:S:1:pos:R:3:forces:R:3 energy=-439.33098093618065 free_energy=-439.33098093618065 stress="-0.0026709506063404033 -0.0023872407561720257 -5.359127429594572e-06 -0.0023872407561720257 0.0008132482148460865 9.32563276523025e-06 -5.359127429594572e-06 9.32563276523025e-06 -3.2816374634456496e-06" pbc="T T T"
C       -0.00172569      -0.00359224       3.58428926      -0.00950267       0.01072730       0.00111628
C       -1.25867262       2.11753136       3.48387910       0.00515650       0.00504174       0.00373382
C       -2.47076235       4.26927738       3.56162749       0.00367567      -0.00243935      -0.00660821
C       -3.68399503       6.41024791       3.65186538       0.00665381      -0.01096732      -0.00282300
C       -4.92602940       8.55360687       3.67959991       0.00227508       0.00034429       0.00350282
C        2.45488736       0.03895059       3.66026093      -0.00683637       0.00045841      -0.00430946
C        1.17796524       2.12433098       3.49673823       0.00817252      -0.00718264      -0.00131404
C       -0.03192570       4.21752947       3.53567411      -0.00108530       0.00651018      -0.00327923
C       -1.21428050       6.38691414       3.64699074       0.00177967       0.00256916      -0.01235759
C       -2.46379067       8.55334707       3.67474683       0.00334976      -0.00407386      -0.00259517
C        4.92147913       0.01214119       3.74237882       0.00298935      -0.00995380      -0.00893866
C        3.66690420       2.19924934       3.89300830       0.00979612      -0.00034523      -0.00421665
C        1.22480771       6.34620456       4.03301339      -0.00594913       0.00133915       0.00421406
C       -0.00179694       8.52574076       3.78087623      -0.00123636      -0.00223381      -0.00172725
C        7.38580585      -0.00886907       3.71446278       0.00455579      -0.00301663       0.00470903
C        6.15902474       2.12824187       3.76016178      -0.01276824       0.00001974      -0.00098175
C        4.97969141       4.25272595       4.04478400       0.00507021      -0.00311481       0.00329846
B        3.74426412       6.45737062       4.26274532       0.00171612      -0.00081510      -0.00990514
C        2.45212986       8.54791373       3.88710674      -0.00467039       0.00365438      -0.00158360
C        9.85357760      -0.01174690       3.63992969       0.00475253       0.00423071      -0.00378316
C        8.61825230       2.12576273       3.59878767      -0.01155213       0.00625625      -0.00119604
C        7.41656604       4.26847891       3.70736326      -0.00989869       0.00508563       0.00705078
C        6.20011665       6.41157793       3.86065601       0.00097953      -0.00074922       0.01206716
C        4.95050270       8.56387448       3.79339926       0.00195262       0.00542027       0.01153120
C       -0.02462675       1.41442976       3.49473636       0.00231976       0.00693063       0.00573886
C       -1.25223112       3.53743969       3.49964146       0.00311024       0.00228362      -0.00239298
C       -2.44867493       5.69067331       3.60235446       0.00838930      -0.00848175      -0.00327265
C       -3.69027836       7.83906920       3.66200119       0.00563000      -0.00618424       0.00208054
C       -4.93116414       9.98631737       3.62938095      -0.01425185       0.00812608       0.00214988
C        2.42823651       1.47854807       3.68350977       0.01249460      -0.00039714       0.00188255
O        1.10003975       3.47603485       3.25516053      -0.00628189      -0.00424858       0.00103347
C        0.03312348       5.64229242       3.72572407      -0.00194666       0.00671554       0.00177849
C       -1.22728890       7.81772943       3.70206307       0.00102693      -0.00190477      -0.00585885
C       -2.47811709       9.98794614       3.70016970      -0.00321642      -0.00403710      -0.00130094
C        4.90897168       1.44197203       3.79905575      -0.00182620      -0.01047675      -0.00858709
C        3.73300856       3.57758849       4.17859356       0.00962906      -0.00005310      -0.00405299
C        1.23626142       7.77918458       3.91774428      -0.00693099       0.00105220      -0.00056621
C       -0.01220470       9.95964784       3.74914269       0.00763090      -0.00634157       0.00637908
C        7.38845499       1.41331518       3.67526520      -0.01298998       0.00137831       0.00793403
C        6.19481090       3.54414873       3.81278110      -0.00765816       0.00149396      -0.00877168
C        5.01430839       5.66717744       4.08376147       0.00421482      -0.00275571       0.00585382
C        3.70566470       7.90450160       3.95706479      -0.00203515       0.00783273       0.00083897
C        2.44886777       9.96846382       3.73481042       0.00516063      -0.00041138      -0.00302416
C        9.85291318       1.41190151       3.55395230      -0.00060896       0.00458799       0.00342508
C        8.63499838       3.55370809       3.60125554      -0.00871147       0.00847565       0.00447369
C        7.43039383       5.69635852       3.72965508      -0.00025759      -0.00048532      -0.00093179
C        6.18326198       7.84150067       3.78130668       0.00359120      -0.00182290       0.00715984
C        4.93299934       9.97507796       3.65547767       0.00121104       0.00253125      -0.00389340
Mo       2.56266844       5.08671279       5.07576624       0.00293084      -0.01057311       0.00631976
