49
Lattice="12.336457 0.0 0.0 -6.168228499999997 10.683685154694365 0.0 0.0 0.0 15.0" Properties=species:S:1:pos:R:3:forces:R:3 energy=-435.29700105773907 free_energy=-435.29700105773907 stress="-0.0008903351392959962 0.0049251198172321885 -5.182666841343977e-06 0.0049251198172321885 0.0012343675472999492 5.323150235048435e-06 -5.182666841343977e-06 5.323150235048435e-06 5.123200409108266e-06" pbc="T T T"
C       -0.01203290       0.02706318       3.68984754       0.00158168      -0.00678940       0.00225299
C       -1.22641811       2.16452946       3.71865026       0.00123306       0.00221545       0.00860470
C       -2.45533133       4.28592260       3.72445736      -0.00655734       0.00126825      -0.00099780
C       -3.72776908       6.41257675       3.69205422      -0.00428367       0.00015107       0.00510731
C       -4.97451005       8.55283770       3.67735783       0.00473831      -0.00146241      -0.00099784
C        2.44744782       0.03239085       3.66547034       0.00450857       0.00004066       0.00181232
C        1.24258860       2.22251781       3.82044552       0.00409889       0.00873925      -0.00817784
C        0.03724609       4.32981542       3.85798121       0.00023949       0.00108641       0.00284058
C       -1.25922202       6.43396551       3.71861747       0.00664854       0.00109248       0.00202650
C       -2.50248254       8.55743061       3.64882942      -0.00492984      -0.00007142       0.00942706
C        4.91618821      -0.00037291       3.66987552       0.00288418       0.00161094       0.00036266
C        3.72880089       2.12149404       3.66742352       0.00000283      -0.00059025      -0.00238598
O        1.12212465       6.48045406       3.60889740       0.00709115       0.00060070      -0.01040676
C       -0.03761134       8.55126398       3.67055756      -0.00835420       0.00203494      -0.01272104
C        7.39201919      -0.00953281       3.67554203      -0.00040299       0.00474595       0.00177927
C        6.18704969       2.11372297       3.77002989       0.00096001       0.00613797      -0.01609047
C        4.96964908       4.19477680       3.90428581       0.00397216      -0.00328264      -0.00815285
B        3.67326797       6.38723109       4.12704308      -0.00393648      -0.01000058       0.00057698
C        2.41116916       8.53186086       3.72686413      -0.00310466      -0.00109381       0.00032420
C        9.85540363       0.00248989       3.68405677      -0.00210071       0.01008273      -0.00196121
C        8.64437115       2.13837161       3.71111351      -0.00201208      -0.00749114       0.00595548
C        7.41399086       4.26858587       3.78587010       0.00615139      -0.00523498       0.00420334
C        6.13098052       6.38700940       3.74983462      -0.00568277      -0.00410485       0.00405335
C        4.89608317       8.54555715       3.74817888      -0.00033822      -0.00227073       0.00465744
C        0.00479396       1.46105962       3.72779390       0.00416663      -0.00288135      -0.00003999
C       -1.21750764       3.59430768       3.75000165      -0.00456140       0.00346677       0.00438987
C       -2.48483092       5.70612587       3.71208819       0.00012229       0.00592144       0.00740406
C       -3.74062741       7.84131001       3.66427759      -0.00074224      -0.00345012       0.00101883
C       -4.95626305       9.98934006       3.67389154       0.00737285      -0.00490154       0.00163402
C        2.46905229       1.47319579       3.71187440      -0.00030416       0.00202636      -0.00251195
C        1.23886923       3.61540281       4.02139171       0.00471456       0.00966699      -0.00119584
C       -0.03755101       5.75510908       3.78491790       0.00728472      -0.00129724      -0.00981974
C       -1.27514328       7.85156262       3.66881882      -0.00658268       0.00180400       0.00807548
C       -2.49761294       9.99090707       3.64863731       0.00271175       0.00066184       0.00041979
C        4.94252824       1.41784148       3.70677762       0.00240050       0.00389681      -0.00840551
O        3.84177237       3.49060032       3.35597518      -0.00655820       0.00126537       0.00472202
C        1.16504277       7.84470094       3.69377897      -0.00578906       0.00309248      -0.00545301
C       -0.01428149       9.97319743       3.66953650       0.00001098       0.00163006      -0.00519835
C        7.40876495       1.41659179       3.71280999      -0.00336083       0.00190547      -0.00581114
C        6.20176044       3.52165445       3.87118078       0.00594814       0.00067936      -0.00106352
C        4.91574848       5.62447521       3.86247555      -0.00460174      -0.00885283       0.00760665
C        3.64725214       7.84579354       3.83891163      -0.00141822      -0.00900995       0.00412246
C        2.44290600       9.96088455       3.67994363       0.00076318       0.00652850       0.00329494
C        9.87179654       1.43144245       3.69025005       0.00123791       0.00763422       0.01089557
C        8.64738062       3.56319010       3.73483027       0.00022639      -0.01126251      -0.00479200
C        7.38091628       5.69144479       3.73331333      -0.00643200      -0.00402587       0.00359581
C        6.12508225       7.82208427       3.72655765       0.00205064      -0.00004481       0.00396323
C        4.92017873       9.98282691       3.69564099      -0.00665397       0.00286718      -0.00268948
Mo       3.00436241       4.58153839       4.90576041       0.00558668      -0.00473522      -0.00625461
