49
Lattice="12.336457 0.0 0.0 -6.168228499999997 10.683685154694365 0.0 0.0 0.0 15.0" Properties=species:S:1:pos:R:3:forces:R:3 energy=-430.6033037268048 free_energy=-430.6033037268048 stress="-0.00013558732458737743 -0.001959660111284751 9.98077251269616e-07 -0.001959660111284751 -0.006701973130388729 -4.2643440565320075e-06 9.98077251269616e-07 -4.2643440565320075e-06 -2.0841207956561497e-06" pbc="T T T"
C       -0.00957419      -0.01432675       3.59728863       0.00632343       0.00743582      -0.00467242
C       -1.24376767       2.13897637       3.52189691       0.01276999       0.00143122       0.00238286
C       -2.49755674       4.26316491       3.73341635      -0.00756330      -0.00587162       0.01126106
C       -3.72184626       6.38891165       3.87286737      -0.01592972       0.00295327       0.00149240
C       -4.94749118       8.51966577       3.78389236       0.00340181       0.00835549      -0.00475142
C        2.45590512      -0.08082743       3.71819716      -0.00077524       0.00386587      -0.01042096
C        1.25274314       2.04454811       3.44361861      -0.00718848      -0.00718027      -0.01114398
C       -0.04558661       4.30748905       3.66551132       0.00194391       0.00661208       0.00470130
C       -1.25792501       6.39044162       3.99542350       0.00959297       0.00096928      -0.00164695
C       -2.46790904       8.50841064       3.90262794      -0.00362280      -0.00555820      -0.00151853
C        4.92965515      -0.04160641       3.79849273       0.00734411      -0.00424223      -0.00954683
C        3.65888032       2.03840527       3.69818498      -0.00670614      -0.00075564       0.00437938
B        1.26136355       6.37398458       4.24789992       0.00561319      -0.00194942       0.00230711
C        0.00851341       8.52208130       3.93589962      -0.00084473      -0.00395523      -0.00827478
C        7.38916007      -0.00138174       3.72165176      -0.01146350       0.01111907      -0.00879646
C        6.12804182       2.14458923       3.71883222       0.00349558       0.00866208       0.00564858
C        4.83308173       4.33502733       3.75131996       0.00560726       0.00187570      -0.00727302
O        3.77420714       6.49826473       3.33673174       0.00712185      -0.01070967      -0.01128335
C        2.47583938       8.53873564       3.74238233      -0.01373840       0.00249520       0.00222743
C        9.85441059       0.00504669       3.59114468       0.00032422       0.00182943       0.00015767
C        8.60682712       2.14111674       3.63108574       0.00390192      -0.01201792       0.00848574
C        7.34745176       4.27127834       3.74864120      -0.00884032      -0.00023644       0.00922859
C        6.15559688       6.42701703       3.84311199      -0.00336119       0.00089332       0.01039049
C        4.93239536       8.55276866       3.65498535       0.00975806      -0.00162627       0.01039889
C       -0.00455353       1.41948939       3.50181053       0.00035717      -0.00282607      -0.01467806
C       -1.24634331       3.55414771       3.61439449       0.00823427       0.00050636       0.01018850
C       -2.49272645       5.67718053       3.87944040      -0.00634075       0.00608020       0.00318908
C       -3.71007611       7.80755546       3.87042388      -0.00808505      -0.00079605       0.00559861
C       -4.95401084       9.93463289       3.69709819       0.00331092       0.00594510      -0.01241141
C        2.45459208       1.32740281       3.61914480      -0.01067192       0.00307787      -0.01062969
S        1.50968848       3.72950824       3.08025034      -0.00293798      -0.01529534       0.00765483
C       -0.03350513       5.66260735       4.00839349       0.01192911       0.00392765      -0.00200884
C       -1.23000741       7.80724291       3.98194406       0.00210017      -0.00052108       0.00033063
C       -2.46742800       9.91962364       3.81919368       0.00270767      -0.00359406      -0.00850435
C        4.91335468       1.39061979       3.74123365       0.00237584       0.00636796      -0.00003705
B        3.51927333       3.51445403       3.83622882       0.00886351      -0.00255178       0.00276839
C        1.26009261       7.84080092       3.96282731      -0.00710544      -0.00885291       0.00073099
C       -0.00370926       9.95200571       3.82032494       0.00273225      -0.00274227      -0.00183266
C        7.37067176       1.43076552       3.68293969      -0.00303030       0.00397793       0.00343627
C        6.08962395       3.58063352       3.71949591       0.00191546       0.00241347       0.00115602
C        4.91346410       5.76533642       3.81338607       0.00389483      -0.00729899      -0.00505362
C        3.71543184       7.86835860       3.63284611       0.00012592      -0.00010869       0.00708375
C        2.46182902       9.97586581       3.67117293      -0.01420029       0.01305811      -0.00392520
C        9.85476901       1.43550638       3.56705797       0.01411221       0.00032270       0.00850508
C        8.59420845       3.56081479       3.69353002      -0.00961253      -0.01270157       0.01064593
C        7.37395834       5.68669152       3.83092388      -0.01583275       0.00192838       0.00372106
C        6.15972635       7.83369851       3.76307174       0.01158023       0.00058762      -0.00530364
C        4.91996907       9.97618806       3.60841801       0.00642406       0.00671286       0.00316086
Mo       3.03668446       5.25563727       4.88406426      -0.00001111      -0.00201233       0.00248172
