49
Lattice="12.336457 0.0 0.0 -6.168228499999997 10.683685154694365 0.0 0.0 0.0 15.0" Properties=species:S:1:pos:R:3:forces:R:3 energy=-436.15535078131995 free_energy=-436.15535078131995 stress="-0.006228986735773878 -0.0036284213430151776 -5.564195911357592e-06 -0.0036284213430151776 -0.008120326700359214 -3.1366714597479893e-06 -5.564195911357592e-06 -3.1366714597479893e-06 2.218705223431413e-06" pbc="T T T"
C       -0.00609376      -0.00947498       3.73827049       0.00418376      -0.00100803      -0.00603586
C       -1.25790386       2.12194221       3.76824594       0.00005798       0.00817346       0.00215678
C       -2.50242804       4.26384706       3.78879539      -0.00896142       0.00112285       0.01092897
C       -3.70161744       6.40617402       3.77415711       0.00410938      -0.00766185      -0.00146655
C       -4.92058522       8.54879506       3.74273591       0.00712418      -0.00920019       0.01123835
C        2.47212065      -0.04075998       3.68511890      -0.00316325       0.00111291      -0.00110692
C        1.23046700       2.07832130       3.71292345       0.00926778       0.00326330      -0.00452125
C       -0.05845940       4.26470315       3.90337930      -0.00208355       0.00104553       0.01118580
C       -1.25156354       6.40417772       3.90045352      -0.00475612      -0.00399659       0.00290521
C       -2.45551996       8.53087660       3.79494756       0.00380038       0.00198086      -0.00444100
C        4.93602009      -0.01522773       3.67598569      -0.00370254      -0.00751696      -0.00881084
C        3.67189007       2.05687854       3.34863582      -0.00319885       0.00144435      -0.00265221
B        1.27878202       6.35568541       4.16359155       0.00848669       0.00678288      -0.00206485
C        0.01040743       8.53447250       3.89780110      -0.00249454       0.00292350      -0.00796963
C        7.39250949       0.00109259       3.76097784       0.00502781       0.00604234      -0.00457120
C        6.14117127       2.14961010       3.59957880      -0.01491778       0.00099701       0.01107646
C        4.89203160       4.35370475       3.62424368      -0.00151067      -0.00253455      -0.01215757
N        3.79542226       6.47446711       3.76970870      -0.00235897      -0.00716786       0.00283565
C        2.48356946       8.54713531       3.88854974      -0.00061750      -0.00185514      -0.00785391
C        9.85819165      -0.00017518       3.76785989       0.00343143       0.00511539      -0.00321882
C        8.60982565       2.13431895       3.73335083      -0.00585127       0.00605334      -0.00600583
C        7.37001773       4.27491931       3.71645773       0.00665131       0.00036105       0.00008923
C        6.19885746       6.45179724       3.68470388      -0.00006906       0.00036403       0.00723924
C        4.95215599       8.56059963       3.75311267      -0.00842692      -0.00327974       0.00946916
C       -0.01654096       1.41068986       3.74160674       0.00763414       0.00534834       0.00355646
C       -1.27023777       3.54076286       3.80736368      -0.01065342       0.00754452       0.00536488
C       -2.48610123       5.68776130       3.81939918      -0.00236468      -0.00687962      -0.00084121
C       -3.69021432       7.82843591       3.77346410       0.01117423      -0.00805507      -0.00911711
C       -4.93438384       9.96147354       3.73343998       0.00330968      -0.00658184      -0.00397492
C        2.45629414       1.36861740       3.58281320       0.00129495      -0.00121212      -0.00250926
B        1.29470201       3.56380404       3.91764507       0.01680074       0.00788175      -0.00244571
C       -0.05841447       5.66661477       3.98570562       0.00233033       0.00216560       0.00754521
C       -1.22464757       7.82382549       3.87701710      -0.00158659      -0.00196755       0.00054093
C       -2.45833668       9.94799258       3.71625574      -0.00538182       0.00200375       0.00259018
C        4.92176920       1.41054031       3.51889845      -0.01138537      -0.00834839       0.01006052
P        3.48878290       3.69794237       2.65219285       0.00222254      -0.00434638       0.00452519
C        1.26012870       7.84594951       3.99334541      -0.00229214       0.00789627       0.00270968
C       -0.00206902       9.96393060       3.78173882       0.00328857       0.00273425       0.00129037
C        7.37673171       1.42943175       3.69423714      -0.00901610       0.00900561       0.00467667
C        6.12716268       3.57435367       3.64487997       0.00501631       0.00090587      -0.00184234
C        4.98045470       5.79291421       3.67187152      -0.00033881      -0.00070556       0.00193638
C        3.73035334       7.83879420       3.81831873      -0.00764580      -0.00820766      -0.00911729
C        2.46410508       9.97415584       3.80656109       0.00589252      -0.00048562      -0.00759270
C        9.84737117       1.41962530       3.75516039      -0.00204584       0.00780117      -0.00758435
C        8.60163961       3.55822246       3.74411932      -0.00068755       0.00104820      -0.00617683
C        7.40542028       5.70148886       3.72286189       0.00264322      -0.00186313       0.00837020
C        6.18604727       7.86212203       3.72145437      -0.00327388      -0.00012268       0.00473194
C        4.93090719       9.97513237       3.75677513       0.00075700      -0.00096017      -0.00470511
Mo       2.80720057       4.88608721       4.52400856       0.00427956      -0.00716145       0.00175981
