49
Lattice="12.336457 0.0 0.0 -6.168228499999997 10.683685154694365 0.0 0.0 0.0 15.0" Properties=species:S:1:pos:R:3:forces:R:3 energy=-429.0930357665225 free_energy=-429.0930357665225 stress="-0.005176869249855677 -0.00043479304007240237 -1.4347609323410972e-06 -0.00043479304007240237 -0.007250413228590094 -7.694406552895872e-07 -1.4347609323410972e-06 -7.694406552895872e-07 -8.733123030434209e-07" pbc="T T T"
C       -0.02411457       0.00587276       3.69034240       0.00762647       0.00044403      -0.00099019
C       -1.25184471       2.15693423       3.54409711       0.00259138       0.00422384      -0.00802581
C       -2.49985245       4.29531474       3.77058927       0.00028529       0.00150393      -0.00069287
C       -3.73179935       6.42249374       3.92800807      -0.00648140       0.00193893       0.00572887
C       -4.96260051       8.55027826       3.87971168      -0.00346935      -0.00413834       0.00120216
C        2.44699894      -0.02949771       3.70633638       0.00257968      -0.00382252      -0.00255713
C        1.21724130       2.02624850       3.22050453      -0.00111868       0.00264836      -0.00169568
C       -0.11451468       4.34986571       3.43667668       0.00702169      -0.00612360       0.00276437
C       -1.26532152       6.42330720       4.04665771      -0.00626194      -0.00414247       0.00623864
C       -2.48460122       8.55272393       4.02947898      -0.00348919       0.00278079       0.00494297
C        4.91406064       0.01807330       3.88333842       0.00259555      -0.00191765      -0.00350572
C        3.67286585       2.10380279       3.31935080      -0.00989140      -0.00761386       0.01212332
P        1.50126320       6.19933021       4.59068358       0.00157874       0.01176893       0.00438138
C       -0.01789301       8.57827470       4.21982067       0.00288764      -0.00089820       0.00472646
C        7.37641971       0.04509071       3.98321671      -0.00459565       0.00545416      -0.00173055
C        6.15172202       2.14485069       3.66144788       0.00030257      -0.00214709      -0.01183926
C        5.01396387       4.30272296       3.23471003      -0.00239457       0.00352936      -0.00212790
B        3.57987238       6.41080749       3.84999966      -0.00237784       0.00698707       0.00204298
C        2.45396980       8.64221988       4.11829515      -0.00164595       0.00014148      -0.00268028
C        9.85723995       0.04543283       3.84644652      -0.00365959      -0.00247362      -0.01713590
C        8.61867480       2.16132111       3.77859899       0.00047641       0.00029194      -0.00134043
C        7.38763487       4.28891432       3.75099447       0.00941196       0.00059481       0.00094833
C        6.13775919       6.42497066       3.78107666       0.00505770      -0.00050238       0.00257205
C        4.91071475       8.57875157       3.86767918      -0.00173788      -0.00660945      -0.00467871
C       -0.03021497       1.42168809       3.48039079       0.00306225       0.00401821      -0.00188651
C       -1.28193135       3.57820523       3.55248865       0.00404139       0.00193754       0.01173912
C       -2.49760247       5.71409581       3.92233369      -0.00977261      -0.00136302      -0.00337342
C       -3.72501360       7.84385848       3.96166479      -0.00539138       0.00151735      -0.00203245
C       -4.96124991       9.96779156       3.77082453       0.00588984      -0.00375055       0.00885705
C        2.44092245       1.35980733       3.39403364      -0.00531928      -0.00587919      -0.00405593
S        1.28636679       3.66194773       2.65885911      -0.01139606      -0.00030997       0.00569201
C       -0.06204475       5.65982099       3.94072587      -0.00069032       0.00337756       0.00418597
C       -1.25228842       7.84669907       4.14935267      -0.00051502       0.00088995       0.00010985
C       -2.48519482       9.96949134       3.89687979       0.00196035       0.00073631       0.00278132
C        4.91994957       1.42579791       3.62906390      -0.00546532      -0.00429287      -0.00188736
P        3.85027351       3.44977378       2.07143423       0.00391296       0.00567359      -0.00098939
C        1.24043268       7.93614430       4.34241540       0.00168796      -0.00251184       0.00447255
C       -0.02381560      10.00622983       4.05716990       0.00147247      -0.00013345      -0.00902211
C        7.38433436       1.45089162       3.82578340      -0.00179686       0.00276300      -0.00363411
C        6.19366594       3.55440369       3.54758057       0.01150894      -0.00149886      -0.00315252
C        4.91393059       5.70070369       3.60944938       0.00094259       0.00635450       0.00719657
C        3.66279163       7.91935525       3.94346605      -0.00409404      -0.00201241      -0.00397028
C        2.45117381      10.04796485       4.00537863      -0.00659726       0.00125518       0.00024591
C        9.86156598       1.46038907       3.73068979       0.00022739       0.00015107      -0.01289123
C        8.61492873       3.58034065       3.78002725       0.00500231      -0.00071954      -0.00158262
C        7.37465940       5.71408543       3.82220430       0.00411909       0.00030393       0.00166606
C        6.13998041       7.84774236       3.85042229      -0.00173804      -0.00599744       0.00802531
C        4.91399444      10.00261372       3.81441502       0.00467734      -0.00301032       0.00171240
Mo       3.05991964       4.36060278       4.05960440       0.00897966       0.00058284       0.00312270
