49
Lattice="12.336457 0.0 0.0 -6.168228499999997 10.683685154694365 0.0 0.0 0.0 15.0" Properties=species:S:1:pos:R:3:forces:R:3 energy=-435.08138043912805 free_energy=-435.08138043912805 stress="-0.0009698630115575643 0.0007431717569401231 4.22919483407e-06 0.0007431717569401231 0.003006438010839785 -1.6459938634719486e-06 4.22919483407e-06 -1.6459938634719486e-06 3.911267010026322e-06" pbc="T T T"
C        0.00534369      -0.00133795       3.66425701       0.00198063      -0.00253249      -0.00366958
C       -1.22528912       2.13877330       3.67930396      -0.01046592       0.01044225      -0.00865617
C       -2.44336128       4.27714867       3.76933931      -0.00451139      -0.00351641       0.00224122
C       -3.68317064       6.41034109       3.76760957       0.00934590       0.00370835      -0.00123822
C       -4.92996609       8.54980555       3.73243695       0.00276089      -0.00172368       0.00944417
C        2.46515560       0.02924520       3.68146321       0.00061155       0.00414489      -0.00005601
C        1.22242950       2.12670087       3.60070424       0.00011050      -0.00095210      -0.01927183
C        0.01877838       4.27433130       3.79210187       0.00349080      -0.00514823       0.00114790
C       -1.21356632       6.41174577       3.77173144       0.00756872      -0.00068498      -0.00471738
C       -2.45826189       8.55444123       3.69059309      -0.00525215       0.00097703       0.00340036
C        4.93561578       0.01992347       3.67806464      -0.00194822      -0.00817737      -0.00472713
C        3.69626806       2.19938920       3.83336815       0.00460528      -0.00268107      -0.00185846
O        1.17991615       6.44332895       3.38604638       0.00596736      -0.01663767      -0.00178778
C        0.00070541       8.54112410       3.62286695      -0.00342617       0.00478381      -0.00810358
C        7.40841914      -0.01080954       3.64687964       0.00652591       0.00891637      -0.00015345
C        6.18587518       2.12920709       3.74555420      -0.00165753      -0.00219317       0.00495392
C        4.97390933       4.25014338       3.96951588      -0.00169482      -0.00005412       0.00038347
B        3.67700544       6.35012210       4.13420191      -0.00419563      -0.00871798      -0.00714550
C        2.45020298       8.51415864       3.70313920      -0.01101306      -0.00309356      -0.00968319
C        9.87133125      -0.01489389       3.66715909       0.00641935       0.00383632       0.00412385
C        8.65014956       2.13017534       3.69729451      -0.00596184      -0.00296299      -0.00416974
C        7.43087769       4.26572744       3.79129765       0.00600578       0.00889090      -0.00021245
C        6.19311016       6.40590620       3.87213820      -0.00007623       0.00843229      -0.00223440
C        4.92836073       8.52798404       3.79211428      -0.00399111      -0.00489570       0.00096751
C        0.00683537       1.43116863       3.62535866      -0.00677208       0.00318250      -0.00466179
C       -1.20990508       3.56419590       3.76739350      -0.00385525       0.00520890       0.00670531
C       -2.44535335       5.69630806       3.77597037       0.00781700      -0.00145186       0.00158444
C       -3.69439033       7.83931588       3.73068469       0.00192581      -0.00250517       0.00387017
C       -4.92808238       9.98268543       3.68234666       0.00529564      -0.00335933       0.00961753
C        2.45558873       1.46945996       3.70378306       0.00113417       0.00422576       0.00131877
O        1.18121928       3.52576567       3.37220696       0.01037116      -0.00169078       0.00166362
C        0.01416919       5.70133835       3.79246481       0.00457612      -0.01121575       0.00116518
C       -1.23346922       7.83515347       3.68525329      -0.00306825       0.00456832       0.00065371
C       -2.46866009       9.99124053       3.67938929      -0.00558244      -0.00099730       0.00406844
C        4.93510804       1.44454544       3.74388215       0.00050246      -0.00872669       0.01160226
C        3.73390198       3.57783451       4.04240964      -0.00661512      -0.00282825      -0.00236270
C        1.21507105       7.84521215       3.60897855      -0.00849953      -0.00844425      -0.00239609
C        0.00302663       9.97389381       3.64258856       0.00496406       0.00757199       0.00085131
C        7.41776049       1.41601769       3.68423486      -0.00326324       0.00224286       0.00957700
C        6.20721114       3.54295284       3.82508216       0.00464697       0.00100028       0.00066967
C        4.99280996       5.66744304       3.99898898       0.00295163      -0.00067712      -0.00096126
C        3.68517236       7.82399293       3.86379319      -0.00795122      -0.00436657      -0.00878125
C        2.46393656       9.95349772       3.65844821       0.00524021       0.00598714       0.00144426
C        9.88601805       1.41990527       3.67117571      -0.00465843       0.00668626       0.00592079
C        8.66082493       3.55682190       3.74575646      -0.00176459      -0.00570436      -0.00127813
C        7.43042366       5.69335582       3.80884600       0.00334789       0.01501914       0.00621569
C        6.17434323       7.83010422       3.80642376      -0.00099569       0.00613268       0.00799129
C        4.93823919       9.96106949       3.69734377       0.00181824      -0.00289177       0.00444125
Mo       2.11575525       4.91258885       4.65273492      -0.00276408       0.00287272      -0.00789698
