49
Lattice="12.336457 0.0 0.0 -6.168228499999997 10.683685154694365 0.0 0.0 0.0 15.0" Properties=species:S:1:pos:R:3:forces:R:3 energy=-430.0885735542423 free_energy=-430.0885735542423 stress="-0.002451582884955145 -0.0037977499265844598 2.8430752944186963e-06 -0.0037977499265844598 -0.00414872717910113 -1.5103896498883112e-05 2.8430752944186963e-06 -1.5103896498883112e-05 1.3702892247360273e-06" pbc="T T T"
C       -0.00946798      -0.00909045       3.84707125       0.00424709       0.00239717      -0.00142635
C       -1.27606657       2.11076676       4.05852472       0.01114905       0.00141026       0.00761331
C       -2.51768478       4.25527274       3.95406672      -0.00297575      -0.00106662       0.00414431
C       -3.70202152       6.39920937       3.79949878      -0.01010265       0.00882834      -0.00061170
C       -4.92313798       8.54435660       3.76543123      -0.00355387      -0.00282135      -0.00667051
C        2.46883693      -0.03378186       3.75308739      -0.00336577      -0.00002400      -0.00250074
C        1.23536224       2.03799770       4.17656436      -0.00234221       0.00710745       0.00912470
C       -0.13677199       4.27654128       4.44937636       0.00692313      -0.00674422       0.00411803
C       -1.24755707       6.39226080       3.94141310      -0.00093926       0.00382732      -0.00382358
C       -2.45237199       8.52370808       3.73440329      -0.00190288       0.00419373       0.00282294
C        4.92937952      -0.01782363       3.55569603       0.00565789       0.00276442       0.00934550
C        3.63744978       2.07518374       3.39869500      -0.00081406       0.00619313       0.00738097
B        1.28339213       6.34904783       4.02643706      -0.00301420       0.01082720       0.00026642
C        0.01768416       8.51767626       3.69033258       0.00770052      -0.00001610      -0.00457963
C        7.39106842      -0.00564566       3.56295419      -0.00692082      -0.00791181       0.00238661
C        6.13355984       2.14900728       3.44505599       0.01450628      -0.00035803      -0.00420762
C        4.92118698       4.37301942       3.29679539      -0.01597714      -0.00661356      -0.00061757
O        3.82517995       6.52554804       3.15033171       0.00558957       0.00310951      -0.00432637
C        2.48884900       8.53179937       3.57893659      -0.00403322      -0.00285556      -0.00087105
C        9.85555285      -0.00298274       3.70051330      -0.00804379       0.00499589      -0.00924935
C        8.60192230       2.12991245       3.71799125      -0.00217055      -0.00281520      -0.00777393
C        7.36623533       4.27266917       3.64616459      -0.00578451       0.00249339       0.00291405
C        6.19340446       6.44666392       3.71009610       0.00752955      -0.01075601      -0.00999666
C        4.95253874       8.56349613       3.63448825       0.00544061      -0.00608283       0.00794160
C       -0.02395671       1.40114721       4.04291314       0.00588810       0.00077890       0.01416053
C       -1.30800278       3.52936947       4.17900610       0.00614748      -0.00120914      -0.00261038
C       -2.48611669       5.68083178       3.89959896      -0.00672582       0.00475802      -0.00081564
C       -3.68848974       7.82242663       3.77314064      -0.00622849       0.00614383      -0.00002529
C       -4.93485643       9.96126736       3.79928350      -0.00054560      -0.00220104      -0.01230953
C        2.44993759       1.38187278       3.78240325      -0.00763709       0.00031254       0.00519230
P        1.31734104       3.52886737       5.13006100      -0.00676593       0.00697805      -0.00006196
C       -0.05439819       5.66051084       4.17098018      -0.00066477      -0.00374775      -0.00744867
C       -1.21875156       7.80718379       3.77966377       0.00573668       0.00847912      -0.00830811
C       -2.46235228       9.94525355       3.66369638       0.00136225       0.00298491       0.00136294
C        4.90287224       1.41505302       3.43438549       0.01006127       0.00464871       0.00480390
P        3.41153603       3.67880702       2.60243734       0.00423653      -0.01038594       0.00084412
C        1.26571133       7.81823616       3.72415544       0.00188695      -0.00505098       0.00677248
C       -0.00381767       9.95402619       3.57836446       0.00092849      -0.00527288       0.00767070
C        7.37136726       1.42741735       3.56094876       0.00492934      -0.01104390      -0.00563298
C        6.13685931       3.57962736       3.44283377       0.00233509       0.00250579       0.00171410
C        4.98033355       5.78683734       3.52485945      -0.00257228      -0.00213933       0.00868120
C        3.74233693       7.87650046       3.51153763      -0.00123183       0.00307507      -0.00104688
C        2.46680028       9.96621985       3.59065418      -0.01173278      -0.00391524       0.00181636
C        9.84109261       1.41782625       3.82592267       0.00271296       0.00727318      -0.00780647
C        8.59471855       3.55252301       3.77291982      -0.00731823      -0.00181305      -0.00611000
C        7.40005841       5.69601005       3.72990564      -0.00079802      -0.00187803       0.00050814
C        6.18845957       7.85671167       3.71472935       0.00567886      -0.01488440      -0.00170968
C        4.92807911       9.97959789       3.72774728      -0.00025372       0.00076907       0.00505788
Mo       3.02410880       5.04961210       4.39864615       0.00376753       0.00475195      -0.00610241
