49
Lattice="12.336457 0.0 0.0 -6.168228499999997 10.683685154694365 0.0 0.0 0.0 15.0" Properties=species:S:1:pos:R:3:forces:R:3 energy=-433.2960272213381 free_energy=-433.2960272213381 stress="-0.004411239812777646 -0.004573802366033837 -1.194834199682727e-05 -0.004573802366033837 -0.00526552715949709 -6.0597910771722184e-06 -1.194834199682727e-05 -6.0597910771722184e-06 -2.283286154108316e-06" pbc="T T T"
C       -0.00469057      -0.00070772       3.73665391      -0.00203433       0.00472487       0.00664766
C       -1.27447302       2.11520950       4.01501763      -0.00323016      -0.00617708      -0.01272278
C       -2.51203055       4.26321970       3.90135356       0.00734581       0.00674670       0.00108809
C       -3.68929077       6.40808893       3.66860534      -0.00037977       0.00682164      -0.01025198
C       -4.91352879       8.55672690       3.58199738       0.00359447       0.00102758       0.00181280
C        2.47112926      -0.02741968       3.71980167      -0.00422570      -0.01287658       0.00290163
C        1.22596434       2.05207080       4.16647913       0.00500739      -0.00745396      -0.00125090
C       -0.14341350       4.27282387       4.44515034       0.01100141       0.00837250      -0.00032545
C       -1.24447000       6.39635901       3.93622359       0.00281811      -0.00350043      -0.00812254
C       -2.44775035       8.52897195       3.69652202       0.00122672      -0.00946852       0.00226494
C        4.93364854      -0.01274795       3.63003063      -0.00353972       0.00729992       0.00411918
C        3.64843326       2.07126218       3.47437213      -0.00389626       0.00343962       0.00158854
B        1.28922117       6.35668387       4.13751532      -0.00251121       0.01180826      -0.00410285
C        0.01762604       8.52594994       3.77792921      -0.00539829      -0.00562124       0.00567941
C        7.39049694      -0.00086857       3.64199716      -0.00171843       0.00062966       0.00004587
C        6.13246686       2.15446403       3.53610560       0.00055093       0.00240810      -0.00138699
C        4.92878657       4.35761468       3.44965809      -0.00230352       0.00501674      -0.00461849
N        3.80341246       6.48268814       3.52878236      -0.01043781      -0.01298578       0.00975660
C        2.48456895       8.54144966       3.68244139       0.00371659       0.00408932       0.00186948
C        9.85778323       0.00295956       3.67387646      -0.00178314      -0.00127351      -0.00110584
C        8.60419959       2.13670744       3.72340035       0.00087433      -0.00657119      -0.00424658
C        7.37755412       4.28185071       3.61770920      -0.00263187      -0.00892291      -0.00335985
C        6.21438106       6.46038218       3.44941166       0.00408663       0.00421162      -0.00047151
C        4.95777291       8.57148128       3.51312992      -0.00180189       0.00234460       0.00150180
C       -0.02368921       1.40403566       3.98566924      -0.00122754       0.00024016       0.00584971
C       -1.31136444       3.53200762       4.14193380       0.01059507      -0.00134572       0.00140232
C       -2.48008038       5.68773791       3.83622125       0.00138106       0.00997776       0.00277801
C       -3.68231645       7.83086380       3.64134240       0.00100275       0.00114439      -0.00767673
C       -4.93302684       9.96986488       3.68145560      -0.00613158      -0.00484710       0.00054260
C        2.44948736       1.39314648       3.81265869       0.00075788      -0.00874676       0.00319996
P        1.23486673       3.47266246       5.24077569      -0.00001386       0.00315687       0.00854227
C       -0.05858931       5.66059840       4.20001511       0.00284994       0.00727148      -0.00725245
C       -1.21645400       7.81352329       3.79909867      -0.00143536      -0.01063707       0.00210016
C       -2.45949263       9.95289156       3.66654826      -0.00058006      -0.00811810       0.00186430
C        4.90732576       1.42247101       3.52883174      -0.00114072       0.01291432      -0.00173735
S        3.49812668       3.64209975       2.69190451      -0.00260580       0.00440314      -0.00310960
C        1.26951546       7.83281963       3.84755170       0.00324809       0.00853477       0.00965406
C        0.00090870       9.95853246       3.67089976      -0.00524657      -0.00205435      -0.00620267
C        7.36930399       1.43303814       3.62176894       0.00028197      -0.00205589      -0.00718659
C        6.13528223       3.57763973       3.53910412      -0.00507306      -0.00446187      -0.00422264
C        4.98921780       5.79617441       3.44037873       0.00456297       0.00091385      -0.00217482
C        3.73495129       7.84704762       3.56738203      -0.00344122      -0.01342076      -0.00359760
C        2.46462503       9.97221707       3.64455596       0.00085245       0.00516589       0.00326451
C        9.84336462       1.42114463       3.79764009      -0.00600421      -0.00848790       0.00086315
C        8.60023164       3.55946333       3.74286400       0.00536709      -0.00366085       0.00402882
C        7.41569287       5.70866121       3.56713125       0.00203829      -0.00270448      -0.00012277
C        6.19431773       7.87209165       3.48423505       0.00324830       0.00847957       0.00820017
C        4.93344245       9.98386630       3.62693964      -0.00129215       0.00586876       0.01029801
Mo       2.89394849       4.93872975       4.47364928       0.00367596       0.00837996      -0.00661508
