49
Lattice="12.336457 0.0 0.0 -6.168228499999997 10.683685154694365 0.0 0.0 0.0 15.0" Properties=species:S:1:pos:R:3:forces:R:3 energy=-432.59977556199584 free_energy=-432.59977556199584 stress="-0.0016154153726791415 0.001637165520828895 9.890381346877589e-06 0.001637165520828895 -0.004452830827069893 -6.728362564467361e-06 9.890381346877589e-06 -6.728362564467361e-06 -6.089124390114458e-07" pbc="T T T"
C        0.01530670      -0.00571076       3.81942184      -0.00554071      -0.00050684       0.00190300
C       -1.21361970       2.13354054       3.65659649      -0.01068643       0.00519390       0.00558913
C       -2.46147900       4.27663851       3.78090767      -0.00370608       0.00301745      -0.00606619
C       -3.69757904       6.40821428       3.90088161       0.00262197       0.00496437      -0.00339407
C       -4.93105456       8.53750670       3.93283507      -0.00101327      -0.00436072      -0.00210302
C        2.48187811       0.00206601       3.84602648      -0.00045642      -0.00050444       0.00972532
C        1.26675545       2.06580413       3.41076701      -0.00262628      -0.00848464      -0.00250134
C       -0.08207718       4.27946925       3.24121211       0.01614847      -0.00903708       0.00207519
C       -1.24624179       6.43271309       3.59222024      -0.00330284      -0.00706623      -0.00251627
C       -2.45486520       8.54860736       3.81296570       0.00041543      -0.00391459       0.00132928
C        4.94076510       0.01700099       3.85176901      -0.00237732      -0.00602159       0.00278491
C        3.72508556       2.17343501       3.85740719       0.00713389       0.00243435       0.00210556
S        1.34271475       6.42326248       2.52828812       0.00274826      -0.01641889       0.00533598
C        0.00460300       8.57168709       3.60284903      -0.00446471       0.00080411      -0.00238956
C        7.41192493       0.01737099       3.84087093       0.00360692       0.00156760       0.00501836
C        6.18705273       2.13461143       3.94714481      -0.00368013      -0.00147110      -0.00000020
C        4.94780113       4.21894348       4.00988687      -0.00260371       0.00086433       0.00299994
B        3.62443418       6.36398394       3.98910358       0.01186140       0.00104126      -0.00487577
C        2.47162229       8.58218281       3.72588307       0.00748270       0.00627284      -0.00100497
C        9.88854376       0.01212104       3.85800316       0.00368296      -0.00354821       0.00633114
C        8.65597810       2.14458299       3.88617609       0.00379860      -0.00930739      -0.00027722
C        7.41313439       4.26869133       3.97236956      -0.00074506       0.00263853      -0.00470603
C        6.16385228       6.39243463       4.00283821      -0.00430409       0.00813517       0.00164619
C        4.93379506       8.53855826       3.93009112      -0.00392958       0.00638455      -0.01029906
C        0.02016883       1.41501796       3.63027636      -0.01085624       0.00222909       0.00341934
C       -1.24828417       3.54638613       3.58510331      -0.00549180       0.00530910       0.00001081
C       -2.46472142       5.70383217       3.77924435      -0.00197953      -0.00051841       0.00231475
C       -3.69429875       7.83207678       3.89290548       0.00290435       0.00178898      -0.00277257
C       -4.92085746       9.96677292       3.87163556      -0.00289454      -0.00358980      -0.00206963
C        2.49282396       1.43905892       3.72716161       0.00492732       0.00153725      -0.00092439
S        1.25399475       3.49209429       2.37099461       0.00347765       0.01218931      -0.00532336
C       -0.07533617       5.69722876       3.27149170       0.01080237      -0.00160299      -0.00163728
C       -1.22868614       7.84923630       3.64874172      -0.00400634      -0.00766674       0.00202303
C       -2.45613016       9.97814451       3.85268159      -0.00251687      -0.00565697       0.00378439
C        4.94608076       1.44278978       3.90372953       0.00114585      -0.00721013      -0.00007272
N        3.74449460       3.54464883       3.97059442      -0.00151781       0.00326579      -0.00478853
C        1.25262979       7.93737910       3.40786577       0.00251576       0.01346155      -0.00642108
C        0.00797150       9.99230254       3.78495710      -0.00003304       0.00008159      -0.00099959
C        7.42121741       1.43430740       3.91026920       0.00037990       0.00017232       0.00171957
C        6.19061308       3.53832055       3.99237740      -0.00517074       0.00193575       0.00277244
C        4.94248197       5.64262812       4.01599049       0.00192804       0.00047979       0.00563853
C        3.68316331       7.85839785       3.86831450       0.00313401       0.00075161       0.00098047
C        2.47687572      10.00421134       3.83057318       0.00593079       0.00264905       0.00619846
C        9.89528480       1.43492534       3.81678703      -0.00021903      -0.00894131       0.00462347
C        8.64972829       3.56371298       3.90220968      -0.00037494      -0.00617907      -0.01192494
C        7.40850777       5.69163493       3.97439240       0.00053165       0.00773981       0.00642600
C        6.16640843       7.82038721       3.97080131      -0.00701686       0.00544880      -0.00517396
C        4.94717980       9.97269954       3.87988318      -0.00114775      -0.00039398      -0.00073511
Mo       2.07775178       4.84263932       4.09922312      -0.00451617       0.01004286      -0.00377837
