49
Lattice="12.336457 0.0 0.0 -6.168228499999997 10.683685154694365 0.0 0.0 0.0 15.0" Properties=species:S:1:pos:R:3:forces:R:3 energy=-436.7650690126099 free_energy=-436.7650690126099 stress="-0.006573276486599376 1.4131752483138787e-05 -1.8405790382156503e-06 1.4131752483138787e-05 -0.006032561686237457 -3.246810506350235e-06 -1.8405790382156503e-06 -3.246810506350235e-06 2.039676250903545e-06" pbc="T T T"
C        0.01002819       0.01032214       3.53516982      -0.00983156      -0.00262569      -0.00857251
C       -1.22973977       2.13154505       3.48143441      -0.00680215       0.00167011      -0.00337777
C       -2.46681614       4.27013502       3.40782862       0.00027028      -0.00601633       0.00246558
C       -3.69378887       6.41095855       3.42217233       0.00575717       0.00569964       0.00143338
C       -4.92927126       8.54977696       3.52035049      -0.00036160       0.00018180       0.00476694
C        2.47013376      -0.00756867       3.57670181       0.00788167       0.00011643      -0.00040512
C        1.23052140       2.14492307       3.82963199       0.00286480       0.00534739      -0.00102060
C       -0.04858765       4.26315010       3.80188559       0.00125902       0.00397031       0.00315528
C       -1.24584351       6.41440346       3.50592307       0.00131602      -0.00486860      -0.00333926
C       -2.46406965       8.54852084       3.42913305       0.00323175      -0.00408628      -0.00269363
C        4.94756145      -0.01677978       3.57604070      -0.00842498      -0.00509550      -0.00912535
C        3.71541677       2.01163548       4.08915519       0.01018117      -0.00499707      -0.00467859
C        1.13964241       6.43069033       4.06592168       0.00386385       0.00251203       0.00787857
C        0.00581151       8.53567918       3.58231891      -0.00508482       0.00280358      -0.00844567
C        7.40754390      -0.00685820       3.51929414       0.00534840       0.00158009       0.00660548
C        6.19083778       2.11935975       3.72896514      -0.00784850      -0.00525430      -0.00889145
C        5.11835610       4.27603675       4.31040207       0.00088118      -0.00155482      -0.00188398
P        3.68537336       6.46152445       4.95948250       0.01489219      -0.00002837      -0.00786574
C        2.46382650       8.57434167       3.82807802       0.00730446      -0.00005511      -0.00262087
C        9.87526686      -0.00071094       3.51085478      -0.00129085       0.00059354      -0.00164983
C        8.64040360       2.12891398       3.43172866       0.00483352       0.00171568       0.00540838
C        7.42897661       4.26840362       3.57686141      -0.00409572       0.00393634       0.00417669
C        6.23481182       6.42777789       3.84566654      -0.01284918      -0.00359797       0.01078445
C        4.96133187       8.57689849       3.79121808       0.00130730       0.00157344       0.00200907
C        0.00633449       1.43097358       3.58241987      -0.00814341      -0.00013731      -0.00472721
C       -1.24580499       3.55248929       3.50608280       0.00514462       0.00090251      -0.00264111
C       -2.46694935       5.69693709       3.40812014       0.00126237      -0.00563802      -0.00045123
C       -3.69629451       7.83737704       3.43151409       0.00490220       0.00406734       0.00414115
C       -4.92866134       9.97330464       3.51985521       0.00135520       0.00155622       0.00398847
C        2.46413378       1.39220787       3.82969263       0.00884451       0.00079180       0.00085666
C        1.14020779       3.53606661       4.06510967       0.00566918       0.00218182       0.01423952
C       -0.04875570       5.70333338       3.80192851      -0.00030708       0.00236197       0.00365840
C       -1.23021301       7.83532311       3.48045382      -0.00243119      -0.00467500       0.00353869
C       -2.46133957       9.96767850       3.51123578      -0.00005510      -0.00811339      -0.00040847
C        4.96163815       1.38972650       3.79382990      -0.00250662      -0.01041079      -0.00118333
P        3.68781605       3.50350608       4.96519532       0.00283189       0.00427570      -0.00436211
C        1.23003450       7.82174628       3.82963155       0.00222658      -0.00096668      -0.00387029
C        0.00960957       9.95627611       3.53470427      -0.00408480       0.00528589      -0.00576698
C        7.40716280       1.41665086       3.52123511       0.00549166       0.00111405       0.00028339
C        6.23492100       3.53860672       3.84600793      -0.00908079      -0.00095697       0.01514782
C        5.11813795       5.68977791       4.30936893      -0.00014596       0.00832429      -0.00129406
C        3.71510974       7.95372497       4.08475332       0.00915636       0.01560075      -0.00049603
C        2.47012037       9.97426576       3.57545071       0.00631944      -0.00215005       0.00229788
C        9.87287840       1.41832824       3.42952613      -0.00199497       0.00114773      -0.00240354
C        8.64311643       3.55529538       3.42197743      -0.00049259      -0.00013274       0.00311053
C        7.42875962       5.69744953       3.57683259      -0.00277128       0.00748295       0.00486966
C        6.19060358       7.84726058       3.72738243      -0.00938301      -0.00510036      -0.00731004
C        4.94765367       9.98374766       3.57524252      -0.00875195      -0.00364575      -0.00765475
Mo       1.97944685       4.98341622       5.30094988      -0.01765869      -0.00668627       0.00232355
