49
Lattice="12.336457 0.0 0.0 -6.168228499999997 10.683685154694365 0.0 0.0 0.0 15.0" Properties=species:S:1:pos:R:3:forces:R:3 energy=-430.5216092517101 free_energy=-430.5216092517101 stress="-0.004595057242405357 -0.0026229664868461077 -1.114956904630389e-06 -0.0026229664868461077 -0.007313024561152701 4.954103920596778e-07 -1.114956904630389e-06 4.954103920596778e-07 5.561022737634693e-06" pbc="T T T"
C       -0.01107440      -0.00616426       3.69049017      -0.00094646       0.00043583       0.00137132
C       -1.26888568       2.12119637       3.92577942       0.00622015       0.00331661      -0.00007946
C       -2.49878574       4.26824939       3.82961979       0.00218940       0.00503545       0.00487585
C       -3.68964655       6.41171317       3.61844027      -0.00443515      -0.00272094       0.00619166
C       -4.92193303       8.55197500       3.56201276      -0.00379065       0.00240976       0.00104241
C        2.46292612      -0.03009241       3.69250774      -0.00189845       0.00343368       0.00310890
C        1.22103150       2.04223604       4.14098747       0.00120209       0.00316443       0.00294737
C       -0.16433510       4.26132101       4.53940886       0.00456898      -0.00936677      -0.00576392
C       -1.26761536       6.41422911       4.07287995       0.00860732      -0.00134877      -0.00901993
C       -2.45141235       8.53261656       3.73387699       0.00062025       0.00543195       0.00077042
C        4.92381059       0.00122714       3.61432561       0.00634432       0.00262955       0.00854306
C        3.64697339       2.08297300       3.48141907      -0.00178770      -0.00368793       0.01150471
S        1.33805102       6.42713139       4.94186769      -0.00351480      -0.00827660       0.00309460
C       -0.00307533       8.55896936       3.91096906       0.00111548       0.00244459       0.00008473
C        7.38284931       0.01323522       3.59416040       0.00306153      -0.00310592       0.00253189
C        6.13985758       2.15026418       3.41220898       0.00085010      -0.00143201      -0.00070571
C        4.97105451       4.32808657       3.23852106      -0.00806605      -0.00558289      -0.00546030
C        3.76577154       6.46681860       3.58360068      -0.00397317       0.00150334       0.00626516
C        2.46153147       8.57951563       3.76021614      -0.00370694      -0.00523472       0.00111806
C        9.85728710       0.01204495       3.60355470      -0.00167470       0.00114031       0.00051561
C        8.61426065       2.14211958       3.58924980       0.00077188       0.00995839       0.00256705
C        7.40125339       4.27978018       3.46254804      -0.00251734      -0.00219801      -0.00131881
C        6.21761664       6.44888390       3.39284474      -0.00176124      -0.00461642       0.00018457
C        4.93681034       8.56506433       3.52492909       0.00331160      -0.00410805      -0.00796906
C       -0.02794528       1.40062213       3.92707492       0.00415838       0.00289067      -0.00381556
C       -1.30527085       3.53596349       4.09602135      -0.00154159       0.00007954       0.00150490
C       -2.48235634       5.69394927       3.82800376       0.00189872      -0.00143674       0.00274148
C       -3.68914598       7.83258598       3.63083093      -0.00277943       0.00191361      -0.00547452
C       -4.94124917       9.96308437       3.65025729      -0.00228905       0.00369926       0.00192592
C        2.44265112       1.38732599       3.79266702      -0.00378896      -0.00193727      -0.00330192
P        1.24219588       3.42311145       5.25418511      -0.01057539       0.00011420      -0.00520789
C       -0.14339902       5.66089123       4.48366211       0.00455656       0.00742304       0.00465402
C       -1.22762736       7.83058621       3.92837375       0.00117360       0.00029226      -0.00437851
C       -2.46512568       9.95797290       3.66732294       0.00221109       0.00811666      -0.00826819
C        4.90698381       1.43133410       3.47998216      -0.00050148      -0.00194297       0.00112072
S        3.47233506       3.61809499       2.63435696      -0.00072042      -0.00077678       0.00193520
C        1.25356288       7.92595617       4.09968836      -0.00591310       0.01467135      -0.00442586
C       -0.00904787       9.97821054       3.68237224       0.00583366      -0.00130932      -0.00215649
C        7.37535094       1.43897440       3.50706270       0.00325800       0.00165138      -0.00357141
C        6.16707490       3.56516336       3.34949164       0.00129382      -0.00422071      -0.00401399
C        4.97592058       5.75869803       3.38594242      -0.00308961      -0.00209864       0.00085170
C        3.69288644       7.84795740       3.62381381       0.00189859       0.00212765      -0.00247147
C        2.45259895       9.99312293       3.61554606      -0.00108249      -0.00925479       0.00523916
C        9.85060745       1.42933260       3.68713002       0.00129020       0.00572277       0.00887838
C        8.62022149       3.56304183       3.60896781       0.00101724       0.00868411      -0.00287881
C        7.42292460       5.70867775       3.46255376      -0.00479400      -0.00655390       0.00419950
C        6.18187448       7.86032810       3.47245091       0.00190512      -0.00585941      -0.00234684
C        4.92586572       9.98087125       3.59288520      -0.00048775      -0.00192021      -0.00649301
Mo       3.12118496       4.76929867       4.57765779       0.00627782      -0.00930062      -0.00064669
