49
Lattice="12.336457 0.0 0.0 -6.168228499999997 10.683685154694365 0.0 0.0 0.0 15.0" Properties=species:S:1:pos:R:3:forces:R:3 energy=-431.0244253599368 free_energy=-431.0244253599368 stress="-0.009435585770636733 -0.006056579666952247 3.380814948597662e-06 -0.006056579666952247 -0.0057324671250278455 5.345380286759624e-06 3.380814948597662e-06 5.345380286759624e-06 -7.043652757554121e-07" pbc="T T T"
C       -0.01634976      -0.00390345       3.64188704      -0.00168045      -0.00777666      -0.00372908
C       -1.29594838       2.10611149       3.48933226      -0.00283769       0.00680352       0.00412958
C       -2.50028752       4.26875040       3.56008928       0.00275027      -0.00778712       0.00305093
C       -3.67757419       6.41840746       3.68082024       0.00972650       0.00650883       0.00919217
C       -4.91193287       8.56785443       3.74295810       0.00231087      -0.00292267      -0.01052545
C        2.44750234       0.01010398       3.68633717       0.00059027      -0.00619289       0.00040736
C        1.14326231       2.09871937       3.49551023      -0.00080164      -0.00302520      -0.00802153
C       -0.09689206       4.19034787       3.60579938       0.00296196       0.00158169      -0.01081720
C       -1.22196889       6.37285741       3.81355192       0.00386515      -0.00801721       0.00377440
C       -2.44470310       8.53704090       3.79800642      -0.00327392       0.00407970       0.00524905
C        4.91353497       0.00350941       3.76180064      -0.00294086      -0.00388021       0.00602516
C        3.64736692       2.10634919       3.50805896       0.00535823      -0.00378816      -0.00583962
S        1.28786156       6.21459990       4.78507135      -0.00012424       0.00718936      -0.00132642
C       -0.00062620       8.53456071       4.02543892      -0.00430592       0.00094978       0.00169764
C        7.37057072       0.00452089       3.79519229       0.00174825       0.00377923       0.00246008
C        6.12925225       2.15385194       3.62456803       0.00285785      -0.00794482      -0.00719433
C        4.99154501       4.35051632       3.64483944      -0.00380468       0.00156377       0.01371288
C        3.81899077       6.51049717       4.04227298      -0.00397712      -0.00068880      -0.00034260
C        2.45533610       8.57350763       4.05679081       0.00621565      -0.00950005       0.00012690
C        9.83807874      -0.00514247       3.70372074      -0.00673930       0.00878217       0.00207128
C        8.59229640       2.13163618       3.59504601      -0.00255204       0.00624078      -0.00119988
C        7.40278541       4.28465423       3.64331864      -0.00126921       0.00350390      -0.00020028
C        6.24077016       6.46367127       3.77890107      -0.00286550       0.00490695       0.00110498
C        4.94902894       8.57730971       3.83858654       0.00547439       0.00027199       0.00249359
C       -0.05219804       1.40910183       3.52304158      -0.00217986      -0.00131238       0.00699371
C       -1.30092802       3.52169527       3.49418163       0.00592828       0.00161918      -0.00556585
C       -2.46009598       5.68675040       3.65261685       0.00558823      -0.00638122      -0.00224820
C       -3.68036691       7.84179559       3.73808624       0.00221617       0.00493166       0.00362706
C       -4.94149490       9.98595973       3.69914656       0.00114212      -0.00845569      -0.00716161
C        2.40110253       1.43812985       3.57390358       0.00254636      -0.00451769      -0.01073130
O        1.05494573       3.46394723       3.38242279       0.00099692       0.00081313       0.00392191
C       -0.05440890       5.56080512       3.93210050       0.00068092      -0.00684575      -0.01014758
C       -1.21418148       7.80572269       3.90570273      -0.00516090      -0.00094984       0.00901872
C       -2.47621454       9.97425832       3.76168784      -0.00230302      -0.00170101       0.00366180
C        4.89045964       1.44132098       3.63420258      -0.00008091      -0.00800553      -0.00124552
S        3.57478264       3.73998124       2.91117851      -0.00786644       0.01418915      -0.00292628
C        1.24369328       7.87752186       4.25686905      -0.00127207      -0.00264720      -0.00366049
C       -0.01811371       9.96969443       3.86974554      -0.00029891       0.00374079      -0.00351398
C        7.35816829       1.42946024       3.66597560       0.00380354       0.00122024      -0.00221474
C        6.17673777       3.56549220       3.63854343      -0.00221255      -0.00514338       0.00404292
C        5.00750758       5.77486039       3.85480975      -0.00387276       0.00583926       0.00636182
C        3.71010660       7.87758390       3.99817274       0.01070647      -0.00414016       0.00303479
C        2.43896122       9.98278806       3.84481440       0.00072408      -0.00240625       0.00998742
C        9.82415023       1.40925701       3.57787863      -0.00538330       0.01227094       0.00065245
C        8.61032846       3.55588333       3.57946590      -0.00106298       0.00062282       0.00029822
C        7.43276171       5.71417291       3.68412591       0.00446708       0.01105414       0.00757681
C        6.19538523       7.87453541       3.78990126       0.00255967       0.00311372      -0.00863873
C        4.91930113       9.98183303       3.72541020      -0.00649120      -0.00046367      -0.00468133
Mo       3.17510411       4.82566617       4.94283730      -0.00986177      -0.00108310      -0.00274164
