50
Lattice="12.336457 0.0 0.0 -6.168228499999997 10.683685154694365 0.0 0.0 0.0 15.0" Properties=species:S:1:pos:R:3:forces:R:3 energy=-450.42548008869306 free_energy=-450.42548008869306 stress="-0.005130361349915632 0.004012773034582872 6.82777835184946e-06 0.004012773034582872 -0.006417068333702157 1.4472896821432255e-05 6.82777835184946e-06 1.4472896821432255e-05 -5.558700526182177e-06" pbc="T T T"
C       -0.01645302      -0.00543704       3.78533617       0.00386506      -0.00239721       0.00341310
C       -1.22720612       2.14562579       3.85572789       0.00560910      -0.00117280       0.00322482
C       -2.45632610       4.27355130       3.86054195      -0.00339787      -0.00106111      -0.00747693
C       -3.71351679       6.40159590       3.77312207      -0.00051201      -0.00152429       0.01268161
C       -4.95974859       8.53556820       3.73080198      -0.00037162       0.00868431       0.00124006
C        2.44263118      -0.01543623       3.73704563       0.00275704       0.00454559      -0.00403043
C        1.23050236       2.13593952       3.76215977       0.00122012       0.00106156      -0.00139708
C        0.02213392       4.30575895       3.93176402       0.00421863      -0.00419929      -0.00059801
C       -1.25572957       6.42328164       3.92695731       0.00485788      -0.00688806       0.00287782
C       -2.50213578       8.54275564       3.81125467      -0.01117228      -0.00716939      -0.00454077
C        4.91228681      -0.01260943       3.74580397       0.00144519       0.00358785      -0.00007727
C        3.69809427       2.08450853       3.59371358      -0.00849715       0.00015711      -0.00681922
C        2.50395229       4.22320075       3.61539938       0.00063840      -0.00417616       0.00162344
N        1.13361912       6.50294181       4.15121004      -0.01223553       0.01265354      -0.00286602
C       -0.05765095       8.56088534       3.88010891      -0.00670894      -0.00330610       0.00887912
C        7.38336580      -0.00162750       3.82141480      -0.00249256       0.00092354       0.00149406
C        6.17703614       2.10367480       3.66470077      -0.00411750       0.01198394      -0.00427479
C        4.96768957       4.18433826       3.43728625       0.00024022      -0.00572842       0.00319255
P        3.65133534       6.39294088       2.44498071       0.00724647       0.01240709      -0.00851437
C        2.39369066       8.56159030       3.83027692       0.00504962      -0.00002903       0.00564517
C        9.85704997       0.00038302       3.83048000       0.00521441      -0.00262352      -0.00015654
C        8.64161649       2.13094132       3.80776438      -0.00671055      -0.00403299      -0.00406336
C        7.41799585       4.25259883       3.67598985       0.00403126       0.01119206       0.00270035
C        6.17675639       6.39889527       3.57953111       0.00073640       0.00387387      -0.00793027
C        4.91546524       8.53739813       3.69065883       0.00417683      -0.00607546       0.00643209
C       -0.00196918       1.42552607       3.81232150       0.00650597      -0.00276668       0.00267302
C       -1.21319651       3.57759054       3.89486446       0.00003900       0.00046841      -0.00083426
C       -2.47497651       5.69717240       3.85660427       0.00227893      -0.00088629       0.00749918
C       -3.73052248       7.82570313       3.77470189      -0.01023075      -0.00413313      -0.01106138
C       -4.95897063       9.95782102       3.75449375       0.00501788       0.00717494       0.00581857
C        2.45264398       1.40510931       3.69349025      -0.00504151       0.00177923      -0.01080577
C        1.25778260       3.58174727       3.79195899       0.00293954      -0.00149940       0.00733793
C       -0.00897928       5.74278262       4.02129611       0.00785808      -0.00528980      -0.00154755
C       -1.27526425       7.83913587       3.88016156      -0.00828426      -0.00651331       0.01582093
C       -2.49468585       9.96284654       3.76147786      -0.00055922      -0.00182013      -0.00760362
C        4.93207302       1.39542295       3.65479318      -0.00455246       0.00775560       0.00180909
C        3.72358649       3.49851248       3.50341141      -0.00762960      -0.00142282       0.00265317
C        1.15354964       7.86604158       3.94903247      -0.00080369       0.00206893      -0.01564147
C       -0.02707454       9.97540327       3.81474960       0.00008458      -0.00286048      -0.00099581
C        7.40429725       1.41273743       3.77083644      -0.01048474       0.00133581      -0.00192197
C        6.19694817       3.51727594       3.57697904       0.00696157       0.01028514       0.00385369
C        4.94924116       5.63290124       3.42700172       0.00782766      -0.00965903      -0.00145039
C        3.63244790       7.82844954       3.62920481       0.00389371      -0.00538545      -0.00004616
C        2.44144971       9.97609897       3.84288322       0.00158031       0.00140786       0.00308251
C        9.87357019       1.42442848       3.84492237       0.00154689      -0.00143440      -0.00760834
C        8.64813041       3.55448697       3.78726843      -0.00366197      -0.00124611      -0.00838221
C        7.39972927       5.68410731       3.67607849       0.00032607       0.00846033       0.00900797
C        6.13787386       7.81486705       3.65698808       0.00451592       0.00482853       0.00489773
C        4.91839565       9.96045711       3.78752173       0.00495341      -0.00779357       0.00101274
Mo       3.04574463       5.95481690       4.60358667      -0.00017195      -0.01354082       0.00177330
