49
Lattice="12.336457 0.0 0.0 -6.168228499999997 10.683685154694365 0.0 0.0 0.0 15.0" Properties=species:S:1:pos:R:3:forces:R:3 energy=-430.3698522662678 free_energy=-430.3698522662678 stress="-0.007112795123523294 0.001220187933830049 1.4114016674296146e-05 0.001220187933830049 -0.004145671096074845 -5.3040536208996266e-06 1.4114016674296146e-05 -5.3040536208996266e-06 -1.100816437941088e-06" pbc="T T T"
C        0.02034498       0.01455267       3.84850058      -0.00126785      -0.00251842       0.00583170
C       -1.21650500       2.14258592       3.65188362       0.00067667       0.00110236      -0.01055178
C       -2.45679791       4.28261346       3.76546869       0.00044501       0.00416963      -0.00210729
C       -3.67945227       6.42549872       3.92468973       0.00317132       0.00299575      -0.00297117
C       -4.91619952       8.56057566       4.02070969      -0.00566759      -0.01153558      -0.00131734
C        2.48363234      -0.01047762       3.68649060      -0.00323561      -0.00062327      -0.00575163
C        1.24738114       2.10255358       3.32246961       0.00132022       0.00197267      -0.01219887
C       -0.08609513       4.30735775       3.27051489      -0.00679432       0.00436118       0.00394927
C       -1.25356202       6.44152761       3.65508529       0.00305620       0.00119691       0.00091960
C       -2.45380972       8.56111086       3.80669005       0.00521256       0.00014455      -0.00242227
C        4.95886811      -0.00200858       3.63657700       0.00019559       0.00000869      -0.00532861
C        3.72227656       2.06271207       3.27876252      -0.00064538       0.01246997       0.00776806
C        1.20704446       6.41618687       3.66425071       0.00407262       0.00136896      -0.00438544
C        0.02118369       8.55095529       3.73349416       0.00528081       0.00449825       0.00151481
C        7.42280533       0.00593373       3.73844240       0.00289099      -0.00090773       0.00775729
C        6.19511420       2.14484783       3.59124650       0.00043859      -0.00699835       0.00673168
C        5.05277196       4.33445072       3.70008014       0.00105238      -0.00913785       0.00322681
P        3.54116962       6.25352537       4.92956946      -0.01134570       0.00910905      -0.00355678
C        2.47965748       8.57010590       4.00400041      -0.00265714       0.00140342      -0.00399713
C        9.89006373       0.01052650       3.88982480      -0.00103974      -0.00822796       0.00031595
C        8.65578680       2.14219599       3.76580716       0.00356641      -0.00246909      -0.00338326
C        7.44363639       4.28231439       3.86611733       0.00523711       0.00684640       0.01220712
C        6.22333609       6.42423547       4.17107083      -0.00508628       0.00146902       0.01400568
C        4.95396112       8.57087934       4.20171697      -0.00602752      -0.00029473       0.00203967
C        0.01771288       1.43157430       3.61956684       0.00092232      -0.00014067      -0.00900115
C       -1.25119154       3.55389249       3.59156748      -0.00171319       0.00484769       0.00126826
C       -2.46141885       5.71394704       3.77878631       0.00343903       0.00209897       0.00175827
C       -3.68267388       7.85092456       3.93077414       0.00253236      -0.00118079      -0.00549299
C       -4.91493771       9.97982082       3.87059943      -0.00380346      -0.01011424      -0.00505585
C        2.48946835       1.39750345       3.40330107       0.00107084       0.00242803      -0.01302965
S        1.05010415       3.47070012       2.17485566       0.00325232      -0.00426302       0.00073562
C       -0.02926216       5.74080451       3.48722000       0.00189794       0.00343876      -0.00420832
C       -1.22322855       7.85619340       3.72939194       0.00697750       0.00128969      -0.00171157
C       -2.44710207       9.97785096       3.72090994      -0.00055807       0.00033415      -0.00584283
C        4.96395367       1.42404019       3.49862543      -0.00343847      -0.00045165       0.00432428
S        3.69828830       3.73263807       2.80987274      -0.00253025      -0.00509063       0.00437828
C        1.25916448       7.82462852       3.80420251       0.00046398       0.00152937       0.00213786
C        0.02394029       9.97210729       3.70817015       0.00332918       0.00403857       0.00144363
C        7.41787149       1.43198631       3.69819072       0.00225715      -0.00374960       0.00993282
C        6.22522589       3.56140373       3.70992353       0.00553175      -0.00320623       0.00507530
C        5.02797221       5.65368530       4.19056890      -0.00210973      -0.00207519      -0.00658886
C        3.69506602       7.91537105       4.32934081      -0.00403504       0.00385692      -0.00765243
C        2.48431770       9.98716099       3.87425016      -0.00027328      -0.00462303      -0.00183799
C        9.89074677       1.43146546       3.78139318       0.00266606      -0.00611237      -0.00757201
C        8.66023342       3.56361935       3.81493316       0.00327350       0.00171085       0.00211009
C        7.44066502       5.70686348       3.99973108       0.00075333       0.00922178       0.00739201
C        6.19531765       7.85264395       4.18771222      -0.00906854      -0.00190974       0.00850648
C        4.95569772       9.98934905       3.99258105      -0.00241457      -0.00342599       0.00827617
Mo       1.93484967       4.56361526       4.12478798      -0.00127204       0.00114456       0.00235851
