49
Lattice="12.336457 0.0 0.0 -6.168228499999997 10.683685154694365 0.0 0.0 0.0 15.0" Properties=species:S:1:pos:R:3:forces:R:3 energy=-435.5224169027624 free_energy=-435.5224169027624 stress="-0.003819851368051063 0.0005056897811115637 -7.027427136081391e-06 0.0005056897811115637 -0.0026255100542768093 1.3547984543388623e-06 -7.027427136081391e-06 1.3547984543388623e-06 -1.1788253532691287e-07" pbc="T T T"
C        0.00748464       0.00083411       3.66740854       0.00342277      -0.01008705       0.00994929
C       -1.23761612       2.12092422       3.75834763       0.00047289      -0.01377901       0.00714348
C       -2.46834103       4.26662906       3.79088004       0.00050108       0.00932969       0.00371288
C       -3.68634376       6.40656515       3.70445965       0.00019021       0.00020189      -0.00899219
C       -4.93574376       8.54321495       3.61365050      -0.00126088       0.01166176      -0.00292190
C        2.47083490       0.03054507       3.71864660      -0.00394279      -0.00181689       0.00426216
C        1.21706247       2.15682373       3.81893358       0.00221564       0.00801083      -0.00535116
C       -0.05173990       4.20448696       4.08941856      -0.00170883       0.00623281      -0.00107464
C       -1.23147293       6.39663188       4.04589479       0.01424657       0.00360565      -0.00907952
C       -2.46318417       8.54740602       3.82642323      -0.00932549      -0.00369642       0.01236385
C        4.93075820       0.00855001       3.76472066       0.00457721       0.00664860       0.00205384
C        3.72074082       2.17437209       3.67891861      -0.00440117      -0.00334587      -0.00057808
P        1.17762668       6.50639764       5.32997929       0.00270801      -0.00125663       0.00085540
C       -0.00621938       8.56355762       4.02729357       0.00424077      -0.01046585      -0.00852247
C        7.40394259      -0.00085869       3.78277892      -0.00110399       0.00203826      -0.00391123
C        6.18466443       2.11656923       3.62943163       0.00537111       0.00743451       0.00093676
C        4.99613232       4.21419567       3.43864906       0.00050804      -0.01231200      -0.00344330
S        3.54772785       6.35772720       2.62222379      -0.01424327       0.01135003      -0.00767698
C        2.47002225       8.55827110       3.85510266      -0.00567514       0.00437802      -0.00375243
C        9.87412820      -0.00578403       3.68992099      -0.00418677      -0.00364858       0.00605603
C        8.64373142       2.12950888       3.68041798      -0.00682713       0.00238450       0.00565208
C        7.42771505       4.26524819       3.57799410       0.00028148      -0.01070636       0.01021751
C        6.18215511       6.39668625       3.43851617       0.01127378       0.00017130      -0.00088742
C        4.93185226       8.53971991       3.52593287      -0.00338076       0.00238479      -0.00091068
C       -0.00135337       1.42268852       3.74512418       0.00773577      -0.01051893       0.00335344
C       -1.25687973       3.53035634       3.87435354       0.00049820      -0.00344323       0.00846044
C       -2.45872494       5.69227468       3.84053409       0.00869314       0.01342949      -0.00527917
C       -3.69535043       7.83325062       3.71249796      -0.00961735       0.00105107      -0.00396189
C       -4.92701870       9.98038491       3.66400653       0.00099395       0.00079983       0.00554458
C        2.47143796       1.47173876       3.74368696      -0.00485109      -0.00231655      -0.00128179
N        1.13708416       3.51657835       4.00983794      -0.00060896       0.00886660      -0.00374107
C       -0.02632983       5.63132400       4.27499505       0.00539202       0.00256615      -0.00602492
C       -1.23770927       7.83211254       4.00369362       0.00067737      -0.00524584      -0.01619106
C       -2.47007773       9.98269917       3.76717360      -0.00198638       0.00177615       0.01298352
C        4.94028014       1.43037060       3.67714283       0.00416771       0.01114446      -0.00585715
N        3.79421416       3.54916930       3.57125931      -0.00501892      -0.00582179       0.00345872
C        1.24390357       7.90205022       4.20192064       0.00350500       0.00803542       0.01342052
C       -0.00307615       9.98011468       3.84532526       0.00398526      -0.00594488      -0.01263297
C        7.41172846       1.41473082       3.68946841      -0.00244082       0.00379405      -0.00397317
C        6.21411065       3.52612511       3.53356093       0.00269491      -0.00376334       0.00043057
C        5.00313980       5.62517211       3.27989136       0.01549184      -0.00934333      -0.00355018
C        3.67166113       7.89088431       3.47774513      -0.00495494       0.00209940      -0.00129465
C        2.47228899       9.98253661       3.77790769      -0.00385908      -0.00095995      -0.00254491
C        9.87332485       1.41643342       3.69984162      -0.00887062      -0.00480122       0.00689346
C        8.64916569       3.55257842       3.67150023       0.00001658       0.00125404       0.00696904
C        7.42321362       5.69078376       3.56892106       0.00653234      -0.01171252       0.00080903
C        6.16894309       7.82566765       3.48946488       0.00519906       0.01312891      -0.00149654
C        4.93923128       9.96785898       3.63639267      -0.00194762      -0.00114695       0.00326935
Mo       2.43426780       5.03244304       4.12253065      -0.01538071      -0.00764503      -0.00386449
