49
Lattice="12.336457 0.0 0.0 -6.168228499999997 10.683685154694365 0.0 0.0 0.0 15.0" Properties=species:S:1:pos:R:3:forces:R:3 energy=-436.2255614521924 free_energy=-436.2255614521924 stress="-0.0010054445428286376 0.002684475568524718 4.77180658371344e-07 0.002684475568524718 0.0030037384108466117 7.263994096588154e-06 4.77180658371344e-07 7.263994096588154e-06 1.8921624118502506e-06" pbc="T T T"
C       -0.00153508       0.02506228       3.70305551       0.00753584      -0.00124041       0.00556395
C       -1.22198422       2.15824136       3.57193818       0.00720073       0.00143168      -0.00984062
C       -2.44803406       4.29035001       3.50397746      -0.00669222       0.00438640      -0.01255109
C       -3.70327352       6.42471231       3.59919938       0.00583844      -0.00260949       0.00636682
C       -4.95748191       8.56155845       3.73625214      -0.00477508      -0.00388881       0.01002180
C        2.45902029       0.05227289       3.74646053      -0.00282998      -0.00499891       0.00426038
C        1.21826807       2.20072089       3.88470665      -0.00571296       0.00098799       0.01070997
C        0.00333895       4.30848078       3.72396497       0.00089465       0.00083220      -0.00240701
C       -1.23993523       6.43325770       3.55944578      -0.00054244       0.00522749      -0.00596517
C       -2.48318317       8.57173876       3.59548047       0.00213156       0.00422042       0.00327596
C        4.92684586       0.02002572       3.59934545       0.00643103       0.00493412       0.00301983
C        3.74498749       2.16187578       3.94976327      -0.00578320      -0.01044858      -0.00143422
O        1.13204240       6.47620408       3.48311828      -0.00440487      -0.00183487       0.00972540
C       -0.01691402       8.55491297       3.53281551       0.00590854      -0.00312217      -0.00211274
C        7.40395747      -0.00716879       3.49532088      -0.00279960      -0.00319406       0.00834911
C        6.18992709       2.12712416       3.59684045       0.00945863      -0.00107638      -0.00824937
C        5.02751543       4.20970436       4.05873813       0.00065756       0.00618471      -0.00111244
S        3.62453129       6.34804866       4.85539524       0.01003924      -0.00224770      -0.00638691
C        2.43022454       8.51967006       3.70503444      -0.00553490       0.00187001      -0.00304189
C        9.86681763      -0.00464915       3.57919022      -0.00044796      -0.00046969       0.00095842
C        8.65120848       2.13943577       3.47145301       0.00123236       0.00873055       0.01088884
C        7.42649639       4.27529386       3.59540836      -0.00531949      -0.00122880       0.00269443
C        6.18377594       6.40266455       3.90329673       0.00146624      -0.00237363      -0.00839029
C        4.91098970       8.54645328       3.87512148      -0.00403797       0.00005485       0.00525933
C        0.00633568       1.45952293       3.69376858       0.00464411      -0.00001084       0.00298212
C       -1.21351445       3.58808107       3.55604406      -0.00118054       0.00312743      -0.01293318
C       -2.46601796       5.71018018       3.54137941       0.00333061       0.00209653      -0.00447656
C       -3.71877209       7.85263835       3.64295658      -0.00044630       0.00042588       0.01135929
C       -4.94132085      10.00256268       3.73329172       0.00085705      -0.00553006       0.00642693
C        2.47127901       1.49216236       3.89421101      -0.01219175      -0.00638182       0.00122580
N        1.15240646       3.58135966       4.03292464      -0.00098166       0.00172563      -0.00023426
C       -0.02660122       5.73905622       3.63116825      -0.00429719       0.00189435      -0.00261484
C       -1.25759757       7.85645273       3.54656995       0.00319061       0.00389935      -0.01052695
C       -2.48396300      10.00719641       3.64710850       0.00399671       0.00570406       0.00451083
C        4.94734041       1.44006803       3.68828755       0.00512607       0.00032640      -0.00403458
N        3.85856175       3.49800950       4.28576116       0.00653025      -0.00791224      -0.00909017
C        1.17830835       7.84906390       3.59075482      -0.00184540      -0.00133575      -0.00052479
C       -0.00474977       9.98539536       3.52695209       0.00059902      -0.00538871      -0.00015189
C        7.41574769       1.42184088       3.48962079       0.00607711      -0.00065599      -0.00181908
C        6.21324961       3.53796607       3.69810099       0.00042265      -0.00078183      -0.00412603
C        5.04241409       5.61566505       4.20259484      -0.01094683       0.01409271       0.00764199
C        3.65969595       7.87901195       4.05643242      -0.00637533      -0.00081453      -0.00302065
C        2.45964638       9.95145037       3.55874485      -0.00573649      -0.00238581      -0.00647702
C        9.88281778       1.43036254       3.51204173       0.00170206       0.00353014      -0.00053088
C        8.65590421       3.56631355       3.49116004      -0.00774765       0.00769545       0.00363066
C        7.41235609       5.69995592       3.67956086       0.00639221      -0.00569051      -0.00799456
C        6.15198991       7.83543274       3.86658659      -0.00523546      -0.00533402       0.00267166
C        4.92776900       9.97743402       3.69681035       0.00477187       0.00125696       0.00713109
Mo       2.42650204       4.40537592       5.36656524      -0.00056987      -0.00367969       0.00137260
