49
Lattice="12.336457 0.0 0.0 -6.168228499999997 10.683685154694365 0.0 0.0 0.0 15.0" Properties=species:S:1:pos:R:3:forces:R:3 energy=-436.0213105362975 free_energy=-436.0213105362975 stress="-0.0010350814867787497 -0.003027227146992791 3.2555091736410427e-06 -0.003027227146992791 0.0028108508355726516 -3.97937111316658e-06 3.2555091736410427e-06 -3.97937111316658e-06 1.1897910870812258e-06" pbc="T T T"
C       -0.00517701       0.01498404       3.84525012       0.00533020      -0.00564329      -0.00657625
C       -1.26377573       2.12633445       3.88365507       0.00257439       0.00626233       0.00059957
C       -2.48476552       4.26466942       3.89114775      -0.00622756      -0.00159102      -0.00642168
C       -3.69624779       6.41076133       3.87764865      -0.00226415       0.00205448      -0.00739429
C       -4.93001741       8.56053924       3.85832295      -0.00408986       0.00577531      -0.00208828
C        2.46074946       0.01641233       3.78958566       0.00533582       0.00282262       0.00358190
C        1.19765646       2.17293364       3.85904936      -0.01057055      -0.00048917      -0.00105102
C       -0.02828793       4.24675825       4.00362019       0.00640409       0.00024658      -0.00684090
C       -1.23300556       6.40160209       3.90763913      -0.00258829      -0.00198573       0.00859574
C       -2.46193621       8.54512490       3.83233841      -0.00260539      -0.00145936       0.00306391
C        4.93082240      -0.01319251       3.66795832      -0.00118818      -0.00237694      -0.00294725
C        3.66149384       2.08628010       3.35438744      -0.00674238      -0.00155141       0.00192668
N        1.19641333       6.36099077       3.97163748       0.00062269       0.00180092       0.00476072
C        0.01525756       8.50050848       3.78950515       0.00464554       0.00281283       0.00142766
C        7.39466894      -0.02969186       3.69701396      -0.00690902      -0.00180879       0.00763627
C        6.14530351       2.14257338       3.55607592       0.00769354       0.00283778      -0.01007459
C        4.96806210       4.36042993       3.41368506      -0.00641871      -0.00503838       0.00206617
O        3.84440792       6.51203854       3.24298873       0.00305377      -0.00020523       0.00111311
C        2.47602779       8.46728225       3.72950955       0.00232671      -0.00494209      -0.00136366
C        9.84730439      -0.02389312       3.77683392      -0.00623797       0.00229344       0.00515075
C        8.60803263       2.12667803       3.76759295       0.00428050       0.00129301      -0.00868452
C        7.38670797       4.27710542       3.75551045       0.00223740       0.00046720       0.00262237
C        6.19052435       6.44300196       3.81176746       0.00687142       0.00018773       0.00350080
C        4.94388167       8.55673081       3.75919215      -0.00300667      -0.00181080       0.00256468
C       -0.01741094       1.44209141       3.87283751      -0.00502033      -0.00415522      -0.00166668
C       -1.25859838       3.54437056       3.93090112       0.00095052       0.00594064      -0.00659292
C       -2.46696033       5.68952918       3.89820605      -0.00617320      -0.00319504       0.00573186
C       -3.69403416       7.83802147       3.86868367      -0.00826193       0.00403203      -0.00288959
C       -4.93497310       9.99079528       3.84615305       0.00871168       0.00374815       0.01044648
C        2.44167092       1.45771772       3.69530201      -0.00935574       0.00117005      -0.00008939
N        1.15731216       3.54289536       4.03422640       0.01202659       0.00404292      -0.00115624
C       -0.00381439       5.68972914       3.97735399       0.00209133      -0.00185856      -0.01104927
C       -1.22939477       7.81993090       3.84326363       0.00422491       0.00000252       0.00351593
C       -2.47206477       9.97532180       3.76194544       0.00072014      -0.00130444       0.00295579
C        4.91322521       1.41912562       3.51278665       0.00172198      -0.00310987       0.00023683
S        3.62576686       3.64103333       2.50969530       0.00425351      -0.00454050      -0.00445948
C        1.23070539       7.74280469       3.82502122       0.00358293       0.00151800       0.00699889
C        0.00195087       9.93776571       3.70971362      -0.00451149      -0.00115101       0.00267643
C        7.37389399       1.41441886       3.67373028       0.00602290      -0.00010894      -0.00787799
C        6.15603100       3.57403764       3.58293108       0.00151827       0.00548066       0.00454811
C        4.99063725       5.76417410       3.61234130       0.00718608       0.00720567      -0.00176677
C        3.74066785       7.86694595       3.64271036       0.00173506      -0.00507682       0.00182229
C        2.45777981       9.92047574       3.73295615      -0.00837358      -0.00482098       0.00739802
C        9.84173265       1.41021179       3.81459686       0.00340574       0.00567047       0.00005248
C        8.61571474       3.55342063       3.81141447      -0.00303658      -0.00204408      -0.00153099
C        7.40821878       5.70139551       3.83120408       0.00658941      -0.00177646       0.00100364
C        6.18608000       7.85902535       3.82064004      -0.00166083       0.00031926       0.00449497
C        4.92614639       9.97947188       3.80611751      -0.00123033      -0.00136845       0.00002731
Mo       2.72300912       4.87687762       4.29807195      -0.00964441      -0.00457203      -0.00799760
