49
Lattice="12.336457 0.0 0.0 -6.168228499999997 10.683685154694365 0.0 0.0 0.0 15.0" Properties=species:S:1:pos:R:3:forces:R:3 energy=-436.27469052820027 free_energy=-436.27469052820027 stress="-0.0031743289563493948 0.0016168693480728602 -4.0105917381208094e-06 0.0016168693480728602 0.00488464237472399 -4.445730193420448e-07 -4.0105917381208094e-06 -4.445730193420448e-07 -4.250384656462477e-06" pbc="T T T"
C        0.02687919       0.04603968       3.82370017       0.00200658      -0.00072225      -0.00952198
C       -1.21807665       2.15447160       3.61620802       0.00670383       0.00345227      -0.00265020
C       -2.49280006       4.29104496       3.61792025       0.00259846      -0.00446650       0.00759970
C       -3.71633598       6.43302811       3.75829270      -0.00799505       0.00183484       0.00345437
C       -4.92722734       8.57421574       3.85982586       0.00016039      -0.00296842       0.00054990
C        2.49802019       0.03810038       3.82464276      -0.00172923       0.00429972       0.00523185
C        1.29390317       2.20914601       3.62991618      -0.00125339      -0.00234895       0.00365153
C       -0.09951804       4.33273889       3.16144852      -0.01068280       0.00485012       0.00041482
C       -1.28343729       6.46184559       3.53340545       0.00434577      -0.00317584       0.00185973
C       -2.45966212       8.57798797       3.76750775       0.00030111      -0.00278165      -0.00299750
C        4.97155617       0.00316487       3.82965999       0.00035255      -0.00177770      -0.00240051
C        3.77186170       2.17104342       3.86929943       0.00780226       0.00193594       0.00271474
N        1.14898128       6.36676549       3.63241192      -0.00303895      -0.00931663      -0.00381284
C        0.03088932       8.51860724       3.74050570       0.00164558       0.00844674       0.00339286
C        7.43952116      -0.03051801       3.82781186      -0.00915397       0.01118951       0.00021652
C        6.20479071       2.14098867       3.88106490       0.00034627       0.00055738      -0.00150184
C        4.93541966       4.28700426       3.98112734      -0.00197830       0.00247547      -0.00586246
O        3.81410440       6.46974112       4.05539965      -0.00169622      -0.00375899       0.01463995
C        2.50155457       8.46342090       3.85032445      -0.00125282       0.00145150      -0.00229741
C        9.88539801      -0.01359466       3.81369213      -0.00059471      -0.00038949      -0.00223081
C        8.65380530       2.13518846       3.77403326      -0.00203309      -0.00647437      -0.00204262
C        7.39655958       4.28270441       3.84398571      -0.00451664       0.00083096      -0.00335924
C        6.17147706       6.42456611       3.92854782      -0.00170285       0.00157490       0.00040238
C        4.95804690       8.56104611       3.90925233       0.01009469      -0.00791617      -0.00024860
C        0.02755809       1.47711668       3.70834695       0.00139009       0.00153488       0.00228578
C       -1.27094952       3.57418215       3.46994773       0.00548781       0.00043385       0.00000449
C       -2.49826478       5.72316265       3.62055856      -0.00235542       0.00101907       0.00307859
C       -3.69712866       7.86142387       3.79454126      -0.00248210      -0.00255574       0.00870230
C       -4.91118262      10.00949293       3.84459083      -0.00099286      -0.00426975      -0.00791891
C        2.52471895       1.46934713       3.77925576       0.00292444       0.00590784       0.00771155
S        1.15909238       3.46160639       2.18644834      -0.00083639      -0.00012925      -0.00677134
C       -0.06564398       5.78391199       3.37948344      -0.00032150      -0.00512966       0.00303588
C       -1.23603983       7.86421072       3.67822254       0.00610935       0.00006789      -0.00311288
C       -2.44221009      10.00007198       3.81833985      -0.00096273      -0.00026945      -0.00102271
C        4.98521705       1.43155534       3.87201457       0.00538512      -0.00117348      -0.00344431
N        3.76773265       3.54251580       3.97410155       0.00021708      -0.00193954       0.00351342
C        1.24226745       7.74792317       3.75869324      -0.00320550      -0.00513916      -0.00360566
C        0.03761664       9.94835935       3.80851799      -0.00173794       0.01111269       0.00032505
C        7.43251471       1.41092243       3.83593196      -0.00530501       0.00125606       0.00476504
C        6.17633702       3.57023863       3.91217488      -0.00428925      -0.00048510      -0.00960905
C        4.96256652       5.71979249       3.99558965       0.00260697      -0.00055981       0.00040887
C        3.76133405       7.83951819       3.92968622       0.00547395      -0.00275814      -0.00132340
C        2.49665457       9.91328406       3.83367294      -0.00970150       0.00815393      -0.00393354
C        9.88751224       1.42382605       3.73732173       0.00520255       0.00268280      -0.00206151
C        8.63140370       3.56513738       3.75090956       0.00011247      -0.00549287       0.00518578
C        7.39613278       5.70655424       3.84772879      -0.00918859       0.00360869      -0.00035450
C        6.18623443       7.85356343       3.90988633       0.00702758      -0.00290057      -0.00239089
C        4.95720657       9.99470433       3.85078685       0.00211877      -0.00264594       0.00075249
Mo       1.86100209       4.38738044       4.12798388       0.00859318       0.00286837       0.00057713
