49
Lattice="12.336457 0.0 0.0 -6.168228499999997 10.683685154694365 0.0 0.0 0.0 15.0" Properties=species:S:1:pos:R:3:forces:R:3 energy=-435.329945670589 free_energy=-435.329945670589 stress="-0.00266854337046854 -6.113602145584027e-05 1.1516460653408976e-05 -6.113602145584027e-05 -0.00015043511580540184 1.124102681123113e-05 1.1516460653408976e-05 1.124102681123113e-05 -1.998456255056156e-06" pbc="T T T"
C       -0.00937321       0.01682233       3.76416331       0.00831262       0.00503170       0.00302833
C       -1.25005895       2.13613708       3.72551946      -0.00172471      -0.00375019       0.00604330
C       -2.47514426       4.27108103       3.74164153       0.00093193       0.00041318       0.00490470
C       -3.70845093       6.41122607       3.77666073      -0.00154236       0.00318778      -0.00109151
C       -4.94709687       8.55758450       3.82952558      -0.00581521       0.00202594      -0.00794101
C        2.44894464       0.01435130       3.63773127       0.00614381       0.00271843       0.00610466
C        1.20612614       2.18177938       3.60768800      -0.00556428      -0.00256580      -0.00746711
C       -0.01623855       4.25792316       3.74201181       0.00253346       0.00251142      -0.00397673
C       -1.24574242       6.41132840       3.76872796      -0.00334803       0.00597122       0.00081178
C       -2.48252419       8.54648094       3.73418893       0.00140379      -0.00264558       0.00395265
C        4.92437091      -0.01837390       3.62141276      -0.00531656      -0.00006333      -0.00589828
C        3.69330685       2.05876042       3.19769263       0.00038109      -0.00511471      -0.00083243
N        1.17260753       6.40480435       3.83157502      -0.00468283       0.00351146       0.00356919
C       -0.01043521       8.51970905       3.79939124       0.00499821      -0.00234683       0.00678423
C        7.39129520      -0.02229677       3.73926458      -0.00619915      -0.00690432       0.00172426
C        6.15932808       2.11938608       3.54648732       0.01126064      -0.00019465      -0.00410384
C        4.97386723       4.28456803       3.53157084      -0.00110792      -0.00162666      -0.00469376
P        3.86973910       6.36178348       5.24101313      -0.00638021      -0.00587369      -0.00236471
C        2.44435422       8.51989274       4.03444331      -0.00132074      -0.00287910       0.01301007
C        9.85011947      -0.00715432       3.83040852      -0.00599261      -0.00047072      -0.00340522
C        8.62030746       2.12954939       3.71794315       0.00681890       0.00311168       0.00110267
C        7.40343694       4.26955114       3.73579858      -0.00372687      -0.00263248      -0.00713153
C        6.17712901       6.42627872       3.88898887       0.00113866      -0.00778619      -0.00105312
C        4.92802102       8.56845286       4.04959386      -0.00047199       0.00918590      -0.00082200
C       -0.00909404       1.44651051       3.69569450      -0.00178382      -0.00025813       0.00021382
C       -1.24705311       3.55409083       3.72804933       0.00327085      -0.00273608      -0.00021017
C       -2.47549276       5.69564611       3.75622402      -0.00205368       0.00316460       0.00442949
C       -3.71434614       7.83768611       3.77712479      -0.00311860       0.00299428       0.00681102
C       -4.94572811       9.98660608       3.75432490       0.00763222       0.00463433       0.00475851
C        2.44748552       1.45227355       3.47897126      -0.00257912       0.00184232       0.00409204
N        1.17118494       3.55895108       3.71693546       0.00035711      -0.00555256       0.00178636
C       -0.01488325       5.70760683       3.77999642      -0.00554525       0.00466122      -0.00096031
C       -1.24884279       7.83017624       3.76310662       0.00431805       0.00325521      -0.00018403
C       -2.48607041       9.97369372       3.66235360      -0.00026068      -0.00392948      -0.00481423
C        4.92496430       1.40328416       3.45649728       0.00537607       0.00112617      -0.00941314
S        3.82548543       3.60691498       2.34270380       0.00745914       0.01413318      -0.00077459
C        1.20467575       7.78600448       3.90828702       0.00452108      -0.00375783       0.00151211
C       -0.00797306       9.94706160       3.72721389      -0.00865603      -0.00363998       0.00591106
C        7.38389266       1.41043614       3.67014906       0.01133939      -0.00309894      -0.00831048
C        6.17677805       3.53880369       3.62844499      -0.00094395      -0.00144066       0.00345536
C        4.93218579       5.67579732       3.92225651      -0.00198839      -0.00473104      -0.00582789
C        3.69199335       7.89980537       4.30718395       0.00565178       0.00515957      -0.00391962
C        2.44822523       9.95117519       3.86018472      -0.00710057      -0.00706881       0.00324487
C        9.85288028       1.41843843       3.75334713       0.00007270      -0.00128765       0.00195945
C        8.62853096       3.55505887       3.73025600      -0.00077454       0.00197801       0.00390137
C        7.39987948       5.69914551       3.79093678      -0.00052966      -0.00384507      -0.01440760
C        6.16308955       7.84941497       3.95752318      -0.00400542      -0.00358906       0.00313895
C        4.92491170       9.98427885       3.87471253       0.00092378       0.01160097       0.00168166
Mo       2.73282476       4.99006301       3.81879940      -0.00231210      -0.00242904       0.00167141
