49
Lattice="12.336457 0.0 0.0 -6.168228499999997 10.683685154694365 0.0 0.0 0.0 15.0" Properties=species:S:1:pos:R:3:forces:R:3 energy=-429.0854920306934 free_energy=-429.0854920306934 stress="-0.003964792442066458 -0.005244928905646343 4.680034828883624e-06 -0.005244928905646343 0.0027021827548549034 1.4881582649240128e-06 4.680034828883624e-06 1.4881582649240128e-06 3.2895729769739037e-06" pbc="T T T"
C        0.00559216      -0.00581698       3.70178325      -0.00555980       0.00050689       0.00123651
C       -1.26075826       2.11770706       3.80884389      -0.00266326       0.00961425      -0.00194461
C       -2.46189571       4.26604809       3.95714073      -0.00356904       0.00293587       0.00201789
C       -3.65317046       6.41688278       3.91631829       0.01230798      -0.00239800       0.00382440
C       -4.89411315       8.56321550       3.79876688       0.00533792       0.00001133       0.00812040
C        2.47664862       0.01139112       3.63949717      -0.00023388      -0.00251567       0.00101501
C        1.18154522       2.10185414       3.52849841       0.01116196       0.00061050       0.00527396
C       -0.03712386       4.24011730       3.91918747      -0.00596963       0.00679763      -0.00985067
C       -1.19653953       6.39651396       3.92628935       0.00442144      -0.00365316      -0.00435479
C       -2.42250080       8.54411649       3.76606352      -0.00821044      -0.00072106       0.00325293
C        4.94856831       0.00214542       3.63222843       0.00321404      -0.00132197       0.00213518
C        3.67559573       2.13018822       3.48771624       0.00308532      -0.00187578      -0.01002487
O        1.21412256       6.36183185       3.55118357      -0.01183861      -0.00387329      -0.01257053
C        0.04558651       8.50176278       3.68572459      -0.00529618      -0.00958211       0.00286847
C        7.41324696      -0.03060173       3.68234803       0.00156022       0.01419449       0.00124581
C        6.16222717       2.15690529       3.67753956      -0.00740965      -0.00366362       0.00090805
C        5.03119598       4.40301817       3.71455348       0.00334657      -0.00373997       0.00777727
O        3.84042807       6.45414061       3.67555052      -0.00442447      -0.00232792      -0.00423042
C        2.49670091       8.45210761       3.68258042       0.00277490       0.00643141       0.00319645
C        9.86006000      -0.03563690       3.72811798       0.00170853      -0.00179897       0.00674504
C        8.62408673       2.12508217       3.80842492       0.00119945      -0.00547309       0.00105805
C        7.42619094       4.28686955       3.88465152       0.00275051      -0.00151273       0.00015634
C        6.24384982       6.46051112       3.90709381      -0.00474387       0.00824312       0.00580431
C        4.96165072       8.53656663       3.76097228       0.00310709      -0.00060829      -0.00660843
C       -0.01669733       1.42263080       3.67359837       0.00352981       0.00672229       0.00195286
C       -1.25391635       3.53216717       3.93962856      -0.00506528       0.01099923      -0.00659652
C       -2.43146311       5.68685221       3.95286837       0.01258191      -0.00098782      -0.00016447
C       -3.65693996       7.84295996       3.83623886       0.00105760      -0.00593639       0.00237318
C       -4.91516624       9.98701350       3.70565627      -0.00246475      -0.00223381       0.00713291
C        2.43940530       1.44688693       3.53964195       0.00811266      -0.00484748      -0.01183338
O        1.07247423       3.50667241       3.29748841       0.00416450       0.00197191       0.00312624
C        0.01093060       5.67556796       3.93564839       0.00061755       0.00030752       0.00082518
C       -1.20031162       7.81626779       3.78968005      -0.01255364      -0.00760026      -0.00252657
C       -2.44729020       9.97933277       3.66841903      -0.00017940       0.00096088       0.00474175
C        4.92096450       1.45369850       3.58794529      -0.00308868      -0.00071403      -0.00043561
S        3.52375855       3.82863020       3.20903122      -0.00245081      -0.00317391      -0.00173834
C        1.25028046       7.80090869       3.66836402      -0.00071534      -0.00192255      -0.00853839
C        0.01976505       9.95005584       3.65807759       0.00603897      -0.00035337       0.00204278
C        7.38946163       1.41918478       3.72288904      -0.00444650       0.00821044       0.00167664
C        6.18660872       3.59118743       3.76774075       0.00166800      -0.00864010      -0.00014801
C        5.04522614       5.78871148       3.82583006      -0.00316954      -0.00090591       0.00443048
C        3.77448127       7.82718323       3.71699862       0.00259586      -0.00066608       0.00768314
C        2.47387064       9.91035674       3.69766903       0.00129502       0.00969359       0.00037337
C        9.85630660       1.40323704       3.78603340       0.00283932      -0.00197263       0.00022055
C        8.64155238       3.55232568       3.89325037       0.00083036      -0.00612761      -0.00205372
C        7.45264269       5.70821022       3.92290926       0.00248685       0.00684004       0.00603640
C        6.22324332       7.86799432       3.83770758       0.00342566       0.00826491      -0.00685482
C        4.93838027       9.96157437       3.73159050      -0.00371030      -0.00294279       0.00135539
Mo       1.89863115       4.76201882       4.74874024      -0.00945692      -0.00922594      -0.01013278
