49
Lattice="12.336457 0.0 0.0 -6.168228499999997 10.683685154694365 0.0 0.0 0.0 15.0" Properties=species:S:1:pos:R:3:forces:R:3 energy=-426.88139662288086 free_energy=-426.88139662288086 stress="0.002008972213134688 -0.00441593655237344 -3.503024902448508e-06 -0.00441593655237344 -0.0036011196068564022 -6.365771615284791e-06 -3.503024902448508e-06 -6.365771615284791e-06 -7.24395408414759e-06" pbc="T T T"
C       -0.01797082      -0.00487522       3.72119808       0.00218977       0.00262257       0.00523911
C       -1.28370965       2.12014662       3.99864545      -0.01294195      -0.00088195      -0.00492528
C       -2.53050418       4.26496090       4.00997679       0.00246917       0.00219409       0.00385123
C       -3.72777336       6.40687814       3.87007704       0.00155751       0.00365884      -0.00000520
C       -4.93748257       8.53899410       3.70305523      -0.00453172      -0.00723913       0.00703853
C        2.46260900      -0.05001074       3.69105024       0.00273845      -0.00594120       0.00351344
C        1.22366509       2.02700187       4.12799900       0.00660404      -0.00033533       0.00640691
C       -0.14398484       4.25998685       4.54654546      -0.01714053       0.00858415       0.00169905
C       -1.24861592       6.40207482       4.08207207      -0.00555240      -0.00061519       0.00287537
C       -2.44487552       8.51411537       3.75686195       0.01278874      -0.00017506       0.00270374
C        4.92516529      -0.01762288       3.54218124      -0.00785666      -0.00597519       0.00248787
C        3.63063787       2.07283793       3.44714779       0.00019315      -0.00874183      -0.00657149
S        1.49982537       6.35814550       4.56669164       0.00662171      -0.00481449       0.00363356
C        0.03160252       8.52227490       3.72159952       0.00613165       0.00691572       0.01299864
C        7.38302279       0.00867941       3.47518639       0.00378849      -0.00531957      -0.01290245
C        6.11560524       2.16612828       3.45195205       0.00332939      -0.00589942      -0.01115455
C        4.91140682       4.37737869       3.35598053      -0.01283731       0.01127474       0.00251067
O        3.87000246       6.57318252       2.84726854      -0.00254350       0.00898973       0.00779477
C        2.49789284       8.55209647       3.37540164       0.00245330      -0.00665044       0.00438225
C        9.85068611       0.02386106       3.53086724      -0.00038537      -0.00264729      -0.00074305
C        8.58896688       2.15076960       3.67745900      -0.00003499       0.01172042      -0.01163369
C        7.34210806       4.29140798       3.71621726       0.00588705      -0.00010280      -0.00299177
C        6.13519262       6.45849864       3.76260383      -0.00083737      -0.00912990       0.01076396
C        4.94461748       8.57953902       3.44138237       0.00103443       0.00002459      -0.00131744
C       -0.03569721       1.40077343       3.96164067      -0.00367542       0.00721453      -0.00134456
C       -1.31824499       3.53100349       4.19903345      -0.00801361       0.00358299      -0.00181186
C       -2.50172962       5.69077779       3.99736394      -0.00065418      -0.00305369      -0.00808567
C       -3.69829707       7.82136308       3.78817707       0.00771741       0.00384118      -0.00304195
C       -4.94779441       9.95441055       3.69796065       0.00119135      -0.00538064       0.00997312
C        2.43656078       1.36636248       3.76037830       0.00230644      -0.00312288      -0.00532967
P        1.32423342       3.45712192       5.15443368       0.01064310      -0.00671727       0.00716788
C       -0.08546730       5.65049570       4.39787308      -0.00344014       0.00482282      -0.00557526
C       -1.20574996       7.80856036       3.86453475       0.00986326      -0.00244707       0.00584810
C       -2.46073844       9.93694237       3.63974814       0.00078562      -0.00510082       0.00674582
C        4.89476777       1.42449195       3.44600599      -0.00054851      -0.01123252      -0.00955935
S        3.42108960       3.67078590       2.74513309      -0.00619179       0.00034199       0.00112511
C        1.30342144       7.87252561       3.77003474       0.00328870       0.00254351      -0.00648929
C       -0.00106506       9.95651653       3.54304886      -0.00239989       0.00198190       0.01046229
C        7.35721543       1.44680226       3.51597724       0.00515307      -0.00154274      -0.00701193
C        6.11569436       3.59660097       3.49030983      -0.00232498       0.00118129       0.00282665
C        4.86631545       5.82267801       3.59795262      -0.00767387       0.00404086       0.00083260
C        3.76008756       7.89587808       3.20891881      -0.00062094       0.01413971      -0.00440401
C        2.46196877       9.98607764       3.41784022       0.00394766      -0.00883569      -0.01055735
C        9.83348259       1.43842582       3.72959329      -0.01155930       0.00289979      -0.00441515
C        8.57782794       3.56827754       3.80385494       0.00976045       0.00787922      -0.00828546
C        7.35327785       5.71364867       3.81129897       0.00328692      -0.00270094       0.00315301
C        6.16552627       7.85580565       3.63876219      -0.00354678      -0.00913658       0.00053052
C        4.91898309       9.99782766       3.55405183       0.00438241      -0.00223106       0.00211166
Mo       3.26363547       4.71794585       4.80137290      -0.00480204       0.01551605      -0.00051939
