49
Lattice="12.336457 0.0 0.0 -6.168228499999997 10.683685154694365 0.0 0.0 0.0 15.0" Properties=species:S:1:pos:R:3:forces:R:3 energy=-427.1203420679315 free_energy=-427.1203420679315 stress="-0.0041543380776264864 -0.0023157892200392116 -6.076498864089351e-06 -0.0023157892200392116 -0.003550358073305484 6.0235153736765885e-06 -6.076498864089351e-06 6.0235153736765885e-06 4.339918386159924e-06" pbc="T T T"
C       -0.01533103       0.00070837       3.91261223      -0.00363973      -0.00711477      -0.00313802
C       -1.28268886       2.11312607       4.18796711       0.00910175      -0.00508497      -0.00193142
C       -2.52843087       4.26186962       4.10527262      -0.00189408       0.00107193       0.00575526
C       -3.71554462       6.41156470       3.90893337      -0.00765471      -0.00076821      -0.00188854
C       -4.93450861       8.55547928       3.81906534       0.00754105      -0.00156957       0.00061320
C        2.46293867      -0.01728972       3.79161836      -0.00860606       0.00083255       0.00170631
C        1.23710613       2.06009894       4.22680866       0.00392456       0.00437089      -0.00524965
C       -0.14496530       4.28838082       4.53381768      -0.00417607      -0.00476654       0.00083108
C       -1.27788792       6.40579611       3.95983365       0.00820398      -0.00320349      -0.00259359
C       -2.46438971       8.53379709       3.76243860      -0.00611141       0.00575365       0.00820707
C        4.92206599      -0.00848830       3.59858386       0.01039113       0.00297536      -0.01354014
C        3.64531925       2.07744173       3.41173819      -0.00489849      -0.00013210      -0.00283175
P        1.26116485       6.11350272       3.09224940       0.00166215       0.00160637       0.01206120
C       -0.00035995       8.52517878       3.56460048      -0.00750207       0.00219045      -0.00230672
C        7.38843687      -0.00397835       3.58806584       0.00848964       0.00522856       0.00021136
C        6.13930509       2.15109558       3.50453733      -0.00328470      -0.00254965       0.00525117
C        4.97712209       4.36326948       3.25556022       0.01510564      -0.00159216      -0.00187309
O        3.87991534       6.51740999       2.99990462      -0.00370767      -0.00331927       0.00336535
C        2.48914782       8.54098283       3.40241819       0.00037442      -0.00222249       0.00304900
C        9.85015976      -0.00120003       3.75825366      -0.00450433       0.00848190      -0.01129416
C        8.59984011       2.13166699       3.83675620      -0.00706993      -0.00164920      -0.00072390
C        7.37027430       4.27740342       3.75737033      -0.00214902      -0.00596267       0.00582003
C        6.19483342       6.45164511       3.74658313      -0.00792783       0.00231795       0.00513159
C        4.94573497       8.56682787       3.60343407       0.00905863       0.00137209       0.00138580
C       -0.02424195       1.41172564       4.13213352       0.01065620      -0.00810514       0.00000054
C       -1.32014994       3.53427206       4.32592976       0.00003733      -0.00501527      -0.00065168
C       -2.50529905       5.69017253       4.01850183       0.00168082       0.00557727       0.00038577
C       -3.70126500       7.83422688       3.84223170      -0.00118559      -0.00181665       0.00020103
C       -4.94237952       9.97530316       3.84783912      -0.00449158      -0.00594754      -0.00331318
C        2.44776631       1.40826584       3.81594184      -0.00557473       0.00133882      -0.00479859
P        1.34751328       3.55527749       5.17520887       0.00133288       0.00703411       0.00078961
C       -0.09107194       5.63934098       4.10466806       0.00765640      -0.01245727       0.00239797
C       -1.23694414       7.81378404       3.73383428      -0.00792075      -0.00101033      -0.00318540
C       -2.47308775       9.95921853       3.69734911      -0.00002730       0.00878321      -0.00016712
C        4.90412346       1.42559205       3.48558839      -0.00071172       0.00395794      -0.00055389
S        3.55281744       3.61021974       2.52982650      -0.00711530       0.00479044      -0.00393610
C        1.23905881       7.85254773       3.38552278      -0.00709899       0.00434055       0.00671296
C       -0.00989627       9.96243762       3.57356044       0.01216939       0.00403291      -0.01002093
C        7.37047409       1.43021563       3.63971476      -0.00605351       0.00089319       0.00629617
C        6.15616267       3.57713591       3.50146432       0.00187789      -0.00654293       0.00774159
C        5.00247472       5.77778391       3.48208442      -0.00045533      -0.00125059      -0.00746785
C        3.75314152       7.89058432       3.35450109       0.00739691       0.00062914      -0.00031182
C        2.46546890       9.96989930       3.57855513       0.00106311       0.00024163       0.00663336
C        9.83681934       1.41721366       3.94203484       0.00058177       0.00715929      -0.01013946
C        8.59293560       3.55384458       3.91304725      -0.00265432      -0.00358498       0.00721583
C        7.39365546       5.70253023       3.82954215      -0.01120630      -0.00285376      -0.00151054
C        6.18132380       7.86295920       3.73877178       0.00908856       0.00247846       0.00904331
C        4.92336692       9.98412159       3.76559246      -0.00756832       0.00338933      -0.00592685
Mo       3.01536876       5.02358739       4.21285204       0.00779559      -0.00232840      -0.00145221
