49
Lattice="12.336457 0.0 0.0 -6.168228499999997 10.683685154694365 0.0 0.0 0.0 15.0" Properties=species:S:1:pos:R:3:forces:R:3 energy=-427.3508394560681 free_energy=-427.3508394560681 stress="-0.004122767301839808 0.003157578248761656 7.863558893020448e-07 0.003157578248761656 -0.004918864001167896 1.6177556334634525e-06 7.863558893020448e-07 1.6177556334634525e-06 1.0478691762816109e-06" pbc="T T T"
C        0.00684017      -0.00864524       3.63153875       0.00257805      -0.00547768      -0.00286915
C       -1.20339456       2.15343986       3.51373514      -0.00371801       0.00111922       0.00006680
C       -2.42819810       4.27687381       3.70907635       0.00180840       0.00438556       0.00952380
C       -3.68224623       6.40824038       3.86500997      -0.00313563       0.00199463       0.00113040
C       -4.94966354       8.52872291       3.76757440       0.00654915      -0.00370488      -0.00468934
C        2.46710466      -0.02630065       3.84886756      -0.00592877      -0.00009326      -0.00410991
C        1.29118774       2.08399094       3.49493964      -0.00465920      -0.00474607       0.00069644
C       -0.01126542       4.37271561       3.23011450       0.00277435      -0.00011886       0.00109138
C       -1.25670097       6.45340915       3.69359097      -0.00137556      -0.00153645      -0.00119131
C       -2.47267048       8.55164499       3.82413160      -0.00281130       0.00353200      -0.00812959
C        4.94571666      -0.00353076       3.95057036      -0.00077681      -0.00275124      -0.00615712
C        3.69721644       2.04025798       4.28207640       0.00177084       0.00002584       0.00538516
O        1.06370589       6.54649791       3.01886055      -0.01292066       0.00272556      -0.00023541
C       -0.01673728       8.57293858       3.61774439      -0.00157851      -0.00991757      -0.00192377
C        7.41550917       0.00391425       3.77591845      -0.00102804       0.00513765      -0.00501057
C        6.21655645       2.11200301       4.19429422      -0.00126765       0.00658293      -0.00601970
C        5.06968192       4.28835253       4.46057181       0.00050735       0.00392130       0.01070272
S        3.63826199       6.16519508       3.16712416       0.00395130      -0.00513196       0.00615479
C        2.43612411       8.54835821       3.43338464       0.00390123       0.00558855       0.00126432
C        9.87903332       0.00126349       3.60508898       0.00675364      -0.00151745       0.00486672
C        8.67216533       2.13338555       3.82741580       0.00521998      -0.00675959       0.00166476
C        7.46605463       4.26012978       4.06205701       0.00198429      -0.00503457      -0.00106036
C        6.20837542       6.39845882       3.89676946      -0.00042151       0.00660799       0.00308904
C        4.92239083       8.52205870       3.58134032      -0.00136745       0.00279815      -0.00647998
C        0.02691861       1.42107356       3.52652924      -0.00395198      -0.00331725      -0.00284122
C       -1.21286106       3.58085227       3.47131970       0.00067096       0.00383847       0.00010499
C       -2.45536858       5.70081827       3.77471712      -0.00391145       0.00543234       0.00267713
C       -3.70623531       7.82973163       3.82813890       0.00448205      -0.00073883      -0.00414762
C       -4.93794426       9.95516305       3.73534202       0.00144913      -0.00712649      -0.00904116
C        2.48482004       1.38973340       3.88677512      -0.00041660       0.00178547      -0.00554558
P        1.43427223       3.56909900       2.48371120       0.00286682       0.01070809       0.00557437
C       -0.06149551       5.79157433       3.43395600      -0.00316966       0.00188710       0.00707549
C       -1.25113362       7.86194029       3.72639201      -0.00683927      -0.00295979      -0.00537285
C       -2.46434564       9.96868533       3.88490123      -0.00647483       0.00249422       0.00520385
C        4.96037532       1.40475802       4.16929818       0.00075914       0.00132344      -0.00242091
P        3.58693514       3.57760312       5.16100910      -0.00084744       0.00614926       0.00449402
C        1.17564094       7.90324571       3.37825519       0.00269575      -0.00182813       0.01020313
C        0.00685754       9.98796781       3.78999069       0.00032515      -0.00697117      -0.00480538
C        7.43359912       1.42087721       3.94671441      -0.00021100       0.00543675       0.00006497
C        6.25709271       3.53462581       4.28756557      -0.00398252       0.00253179      -0.00405472
C        5.04147864       5.61561072       3.99490451       0.00619136      -0.00148427       0.00371030
C        3.67976886       7.85893088       3.41789896      -0.00028942      -0.00137904       0.00222308
C        2.46586849       9.97710370       3.60003899       0.00455337       0.00744619       0.00263128
C        9.89788612       1.43330316       3.64500805       0.00279476      -0.00613410      -0.00433547
C        8.68530491       3.55560943       3.87929676       0.00532101      -0.00630945       0.00118681
C        7.44317768       5.68527183       3.96515491      -0.00081932       0.00016563       0.00428342
C        6.15923170       7.80838132       3.71705773       0.00150696       0.00782941      -0.00458293
C        4.93780539       9.96403343       3.59471043       0.00414529      -0.00132941      -0.00698609
Mo       1.91469572       4.99918092       4.20423810      -0.00365774      -0.01508000       0.00694097
