49
Lattice="12.336457 0.0 0.0 -6.168228499999997 10.683685154694365 0.0 0.0 0.0 15.0" Properties=species:S:1:pos:R:3:forces:R:3 energy=-437.3879812881813 free_energy=-437.3879812881813 stress="-0.003363184142477402 -0.0024948923151713667 -4.039101398814936e-06 -0.0024948923151713667 -0.003541195052980228 -3.823279937946586e-06 -4.039101398814936e-06 -3.823279937946586e-06 -1.7946719554273984e-06" pbc="T T T"
C       -0.00039357      -0.01178933       3.70284370      -0.00170116      -0.00062132      -0.00841000
C       -1.24826865       2.11887949       3.74715118       0.00650957       0.00131341       0.00458886
C       -2.46718577       4.26643189       3.74603996       0.00628275      -0.00774196       0.00048054
C       -3.69055701       6.40886962       3.69282496      -0.00039284       0.00177700      -0.01027399
C       -4.92315000       8.54532332       3.68154513       0.00043219      -0.00660020       0.00683685
C        2.46044793      -0.00658461       3.63857350      -0.01582514       0.00049392       0.00034498
C        1.20732775       2.09257155       3.72490836      -0.00767917      -0.00996377       0.00158537
C       -0.03409316       4.22390078       3.87649115       0.00829441       0.00062705      -0.00245302
C       -1.22989734       6.39490369       3.69827883      -0.00309961      -0.00523706      -0.00704644
C       -2.45552115       8.54062109       3.62703164       0.00123103       0.00433434      -0.00275645
C        4.93446770       0.00421269       3.61682306      -0.00071408      -0.00453784      -0.00708130
C        3.67793811       2.11697048       3.73065705       0.00588539       0.00688128       0.00016062
B        1.24839468       6.44155777       3.84043955      -0.00073768      -0.00710753      -0.00287794
C        0.00002730       8.56048988       3.62211859      -0.00090051       0.00180494      -0.00288316
C        7.40485656       0.00483197       3.65199100       0.00867454       0.00505854      -0.00563473
C        6.15986418       2.15008514       3.69428938      -0.00742465      -0.00042670       0.01234295
C        4.96191554       4.32927164       3.88916981       0.00867707      -0.00441572       0.00524174
N        3.75704614       6.42501599       4.05024144      -0.00155178      -0.00010486      -0.00503943
C        2.49664558       8.54948198       3.74605396      -0.00260342      -0.00275567      -0.00803350
C        9.87160959      -0.00731445       3.71533894       0.00638064       0.00106644       0.00094145
C        8.63031426       2.13669518       3.69843351      -0.00074521      -0.00106424       0.00319610
C        7.40732760       4.28027320       3.72459279      -0.00483851       0.00396523       0.01457947
C        6.18532653       6.43697342       3.77763701      -0.00432284       0.00103017       0.00635047
C        4.94361215       8.52841531       3.77622126       0.00780837       0.01481429      -0.00547142
C       -0.01269023       1.41407315       3.71651267      -0.00404667      -0.00737063       0.00006999
C       -1.24577088       3.52885041       3.79939937       0.01357355       0.00092577       0.00450907
C       -2.45799351       5.68997116       3.70948573      -0.00346219      -0.00808417      -0.00256648
C       -3.68981386       7.83173526       3.66118060       0.00434692       0.00203438      -0.00332385
C       -4.93263887       9.96947975       3.66781873      -0.01224905      -0.00769245      -0.00025841
C        2.43877540       1.42409264       3.67953952       0.00082285       0.00409858       0.00077362
O        1.18773353       3.52227235       3.70611436      -0.01720725      -0.00734716       0.00133036
C       -0.00584586       5.63137665       3.79741217       0.00117816       0.00123158      -0.00756317
C       -1.21963488       7.82127574       3.64135018      -0.00151256      -0.00142318       0.00265048
C       -2.46606736       9.96869719       3.61610803      -0.01011947       0.00381992      -0.00199020
C        4.92915556       1.42908800       3.66777329      -0.00123695      -0.00572289      -0.00350952
B        3.71185775       3.55928679       3.98573773       0.00740598       0.00973560      -0.00021039
C        1.25729150       7.88583772       3.68079366      -0.00641479      -0.00590031      -0.00262281
C       -0.00062512       9.98042493       3.61568918       0.00814200       0.00386996      -0.00363358
C        7.39600201       1.42963055       3.66997568      -0.00509837       0.00568733       0.00531270
C        6.17585463       3.57517269       3.75371519      -0.00266801      -0.00162586       0.01052069
C        4.95257719       5.75245883       3.90953176       0.00182862      -0.00696385       0.00409863
C        3.71907881       7.79745834       3.86043749       0.00678308       0.00794039      -0.00524490
C        2.47857316       9.97505195       3.69821535       0.00619103      -0.00175016      -0.00263724
C        9.86603415       1.41912760       3.71317112       0.00535199      -0.00056810       0.00663802
C        8.63520733       3.56211748       3.71420008      -0.00233434      -0.00043366       0.00730105
C        7.40952161       5.70675278       3.72961194      -0.00264140       0.00509461       0.00247406
C        6.18151270       7.84088528       3.74772472       0.00053478       0.00192227       0.00204696
C        4.93329388       9.95178122       3.73088465       0.00650947       0.01053794      -0.00537835
Nb       2.33794976       4.98156302       4.81264059      -0.00131675       0.00539435       0.00252524
