49
Lattice="12.336457 0.0 0.0 -6.168228499999997 10.683685154694365 0.0 0.0 0.0 15.0" Properties=species:S:1:pos:R:3:forces:R:3 energy=-435.6441473695824 free_energy=-435.6441473695824 stress="0.0035470129956197494 0.002488968868329477 -2.7293849390823043e-06 0.002488968868329477 -0.00617346962255324 -1.0162913482783689e-05 -2.7293849390823043e-06 -1.0162913482783689e-05 6.883633293409257e-07" pbc="T T T"
C       -0.00812225       0.00875711       3.64827671      -0.01236087      -0.00559530      -0.00125807
C       -1.22646274       2.16204000       3.77910345      -0.00247534      -0.00438544       0.00019287
C       -2.48095914       4.28887929       3.85210778      -0.00755446      -0.00459257      -0.00723708
C       -3.73590286       6.40404257       3.81444965       0.00858829       0.00579641       0.01027197
C       -4.96921574       8.52549773       3.68595983      -0.00401874       0.00181560      -0.00191486
C        2.46098019      -0.03096292       3.66104833       0.00368243      -0.00419636       0.00469313
C        1.25796768       2.12071401       3.83400655       0.00236487      -0.00384364      -0.00650885
C       -0.02038159       4.30541665       3.98359597      -0.00507299       0.00013264      -0.00626052
C       -1.21858881       6.41605107       3.86686039      -0.00254293       0.00345259      -0.00104569
C       -2.48159961       8.52554565       3.73678267      -0.00609745       0.00101143       0.00159578
C        4.92821579      -0.02484162       3.66917001       0.00873083      -0.00983313      -0.01259353
C        3.71618091       2.05032400       3.63070360      -0.00023427       0.00273268      -0.00700472
B        1.47458246       6.38223015       3.94668450       0.00997426       0.00983934      -0.00842469
C        0.00127361       8.54379475       3.73965134      -0.00394924      -0.00776137      -0.00833975
C        7.38677807       0.02923060       3.63439935       0.01341073       0.00629359       0.00399317
C        6.16349738       2.13019088       3.71066783      -0.00180270       0.00380436      -0.00796587
C        4.91672928       4.19278075       3.82113794      -0.00163380       0.00663159       0.00197761
B        3.41629789       6.44176780       3.58958102       0.00662660       0.01177427       0.00881311
C        2.44636679       8.63182394       3.56865781       0.00004787      -0.00778115       0.00235167
C        9.86824114       0.04642961       3.58929466      -0.00452973       0.00247387      -0.00659878
C        8.63132640       2.16254752       3.72391980       0.00595223       0.00560485       0.01095277
C        7.37419184       4.28056149       3.83092318       0.00232753       0.00243462       0.00632532
C        6.08205029       6.39406067       3.78952441      -0.00422756      -0.01306592       0.01127732
C        4.90755411       8.56911669       3.54040158       0.00215508      -0.00398986       0.00365869
C        0.00633304       1.43911361       3.75075641      -0.00199601      -0.00830658      -0.00268404
C       -1.24132534       3.57815933       3.87623685      -0.00871796      -0.00543690      -0.00095054
C       -2.47955200       5.70987715       3.85514190       0.00388373       0.00149788       0.00491633
C       -3.72861343       7.82061173       3.74976861      -0.00185422       0.00254161       0.00126319
C       -4.95223103       9.95330280       3.65699638      -0.00448975      -0.00002533      -0.00614496
C        2.47756550       1.39950078       3.68635915       0.00335646      -0.00307105       0.00406108
B        1.26713905       3.56489647       4.12387924       0.01612356       0.00214965       0.00829868
C        0.04177102       5.70654185       3.94363864      -0.00195156      -0.00090679      -0.01028503
C       -1.24067852       7.82917029       3.78929061      -0.00960470       0.00132535      -0.00074160
C       -2.47732189       9.94721571       3.67881937       0.00396387      -0.00354699      -0.00526741
C        4.93989976       1.39709750       3.64989206      -0.00362114      -0.00079853      -0.01111134
O        3.74611518       3.44491490       3.39202861      -0.00614390       0.00314931       0.01671135
C        1.25252608       7.88393567       3.73783393      -0.00195358      -0.00290338       0.00189263
C       -0.00443960       9.97008477       3.67518427       0.01339395      -0.00409178      -0.00691371
C        7.39182902       1.44670999       3.68366413       0.00571209       0.01077075      -0.00600266
C        6.15529571       3.53962673       3.80275044      -0.00079122       0.00361802       0.00007962
C        4.78255629       5.63621176       3.84647794      -0.01365046      -0.00634857       0.00075689
C        3.65355432       7.91823991       3.48284652       0.00611831       0.00156712      -0.00516726
C        2.45717476      10.03936426       3.57018280       0.00531758      -0.00637424       0.00749708
C        9.87121162       1.46046814       3.68894154       0.00147183       0.00376367      -0.00015619
C        8.61940089       3.58128460       3.80596631      -0.00213141       0.00117819      -0.00038290
C        7.33570267       5.70124069       3.82808162       0.00355379       0.00351708       0.00420353
C        6.12021959       7.81537257       3.66873721      -0.00250110      -0.00820267       0.01751194
C        4.92625235       9.99825285       3.57505178      -0.01329932      -0.00061104      -0.00565518
Nb       3.06600718       4.84135667       4.78928490       0.00245050       0.01679211       0.00331951
