49
Lattice="12.336457 0.0 0.0 -6.168228499999997 10.683685154694365 0.0 0.0 0.0 15.0" Properties=species:S:1:pos:R:3:forces:R:3 energy=-440.8067025001785 free_energy=-440.8067025001785 stress="-0.00328600346865995 -0.001178135178118524 4.382095812430766e-06 -0.001178135178118524 -0.0018717262175921895 7.158108599064067e-06 4.382095812430766e-06 7.158108599064067e-06 3.5902931070843787e-06" pbc="T T T"
C        0.00580156      -0.00297367       3.69320809      -0.00059676      -0.00374967       0.00087163
C       -1.23838699       2.13265297       3.74115931      -0.00513792       0.00549847      -0.01068564
C       -2.45983881       4.27483294       3.74042907      -0.00526097      -0.00675008       0.00088380
C       -3.68566583       6.41090824       3.68421631       0.00242077       0.01143917      -0.00273154
C       -4.92412205       8.54978942       3.69185864       0.00696449      -0.00530713       0.00225532
C        2.46837921       0.01396313       3.65346857      -0.00447961      -0.00087423      -0.00954005
C        1.21061009       2.09387171       3.67779474       0.00397109       0.00087890      -0.00701904
C       -0.02289924       4.25098130       3.85994685       0.00383394      -0.00396705      -0.01548894
C       -1.22497582       6.40459514       3.66889143       0.00130430       0.00153871      -0.00156094
C       -2.45749352       8.55142015       3.62804521       0.00047178       0.01024823       0.00460577
C        4.93512422       0.01488122       3.64085724       0.00132542      -0.00683877      -0.00582614
C        3.69086175       2.17770346       3.77238034       0.00712526       0.00087658      -0.00157259
C        1.23217746       6.40668414       3.85191651       0.00161659      -0.01344948       0.00842684
C        0.00881586       8.54626476       3.65888797       0.00100848       0.00252981       0.00869122
C        7.40275974       0.00346275       3.66091155       0.00521282       0.01431540       0.00250353
C        6.17452309       2.13673679       3.69182207      -0.00507393       0.00325527      -0.00472458
C        4.97236121       4.26684738       3.88965928      -0.00339965       0.00251364       0.01410097
B        3.66863035       6.39746709       4.10439669      -0.00314409       0.00895009       0.00255128
C        2.46990612       8.56494706       3.78237442      -0.00796762      -0.00462506       0.00823506
C        9.87266704       0.00172840       3.70732475       0.00259381       0.00194873       0.00525538
C        8.63807793       2.13715468       3.69269879      -0.00498695      -0.00609927      -0.00556476
C        7.41935054       4.27274186       3.72095866       0.00152204       0.00138070       0.00706330
C        6.19387590       6.41430646       3.81425724      -0.00500452      -0.00346121      -0.00084484
C        4.94525719       8.55104624       3.79754627       0.00845397      -0.00446763       0.01140937
C       -0.00599810       1.42164815       3.69344726       0.00037635       0.00029265       0.00493786
C       -1.23557503       3.54862598       3.80785493       0.00195264       0.00238408      -0.00372975
C       -2.44872471       5.69686709       3.68952110      -0.00115441       0.00271002      -0.00050594
C       -3.68879929       7.83753385       3.65942038       0.00829026       0.00527021       0.00342051
C       -4.92581372       9.98012056       3.67117822       0.00010124      -0.00961639      -0.00046366
C        2.45387792       1.45062829       3.68840782       0.00410118       0.00155980       0.00092867
O        1.15488592       3.50521263       3.50244629       0.00266231      -0.00116765      -0.01711807
C        0.01536685       5.67573290       3.77085966      -0.00072274      -0.00759030      -0.00041645
C       -1.22286684       7.82975756       3.63856304      -0.00157979       0.00883865      -0.00376445
C       -2.46489392       9.98107960       3.63185957      -0.00413164       0.00396131       0.01624849
C        4.92850072       1.44027209       3.68861351       0.00132152      -0.00400278      -0.00047289
C        3.73319310       3.57108145       3.96515814      -0.00151096      -0.00384359      -0.00638561
C        1.24932099       7.83317562       3.75391725      -0.00415529      -0.01530054       0.00232067
C        0.00129235       9.97275964       3.64388166       0.00794175       0.00794974      -0.00689874
C        7.40639577       1.42415222       3.66655659      -0.00585537       0.00772333       0.00965701
C        6.19776148       3.55228613       3.74608929      -0.00156373       0.00156662       0.00860869
C        4.98605060       5.67599060       3.94396871      -0.00819986      -0.00126593       0.00125505
C        3.69987765       7.87242069       3.89067084       0.00190131       0.00183900      -0.00717601
C        2.46818091       9.98362178       3.70371007       0.00214118       0.00509738       0.00240226
C        9.87562421       1.42705266       3.70743872      -0.00230700       0.00466734      -0.00914103
C        8.64801018       3.56210527       3.70727870      -0.00219407      -0.01061212       0.00432679
C        7.42446951       5.70027038       3.73539901      -0.00171279       0.00938853      -0.00055871
C        6.18348484       7.83878843       3.77449830       0.00570605      -0.00326543       0.00464684
C        4.94050339       9.97221172       3.72689426       0.00015605      -0.00252434      -0.00240323
Nb       2.20747155       4.85314019       4.72207625      -0.00433693      -0.00984371      -0.01101270
