49
Lattice="12.336457 0.0 0.0 -6.168228499999997 10.683685154694365 0.0 0.0 0.0 15.0" Properties=species:S:1:pos:R:3:forces:R:3 energy=-443.6764272521995 free_energy=-443.6764272521995 stress="-0.003610419804938932 6.688412188568584e-05 -1.3309896171591126e-06 6.688412188568584e-05 -0.0012812449570363462 1.1826375880930711e-07 -1.3309896171591126e-06 1.1826375880930711e-07 1.1021046652873435e-06" pbc="T T T"
C       -0.00066219       0.00593896       3.67823076       0.00401295       0.00357430      -0.00498017
C       -1.24079044       2.12863284       3.66939725      -0.00569581      -0.00151366       0.00236403
C       -2.47644089       4.26984200       3.66410794      -0.00328490       0.00119194      -0.00039186
C       -3.70427574       6.41287487       3.66331699       0.00309353      -0.00678508      -0.00427821
C       -4.93674491       8.55422399       3.66552958       0.00507403      -0.00131467       0.00779821
C        2.46291756       0.02752808       3.69945112       0.00808305      -0.00312490       0.00879117
C        1.21441273       2.16654540       3.82521328       0.00618473      -0.00511339      -0.00485823
C       -0.03773942       4.23056509       3.84655351      -0.00688244      -0.00544705      -0.00325985
C       -1.24067720       6.40398637       3.73965173      -0.00611122       0.00849436       0.01129914
C       -2.47156099       8.55444727       3.66281065      -0.00445824      -0.00148224       0.01566737
C        4.92645868       0.01103337       3.66416304      -0.00452666       0.00143421      -0.00292961
C        3.71705152       2.15104911       3.79448437      -0.00573094       0.00534286       0.00028889
B        1.25990552       6.41698089       4.02255390       0.00620889      -0.00100800       0.00749206
C       -0.01276117       8.56036272       3.71515301       0.00429461      -0.00438349       0.00250809
C        7.39930165       0.00233085       3.64526676      -0.00076911      -0.00148191       0.00269685
C        6.17064379       2.13511104       3.68065591       0.00316419      -0.00027029      -0.00535181
C        4.96723958       4.24529848       3.87396136      -0.00404153       0.00272021      -0.01451459
C        3.71678355       6.38973901       3.93521185      -0.00188282       0.00203688       0.00011151
C        2.47130625       8.56259192       3.75515408       0.00438610      -0.00016483       0.00090807
C        9.87038501      -0.00304005       3.64785090      -0.00332308       0.00419293       0.00184670
C        8.63436792       2.13438160       3.62977797       0.00469388       0.00479993      -0.00197331
C        7.40372844       4.27318389       3.68272716       0.00525197      -0.00128727      -0.01487562
C        6.17208187       6.40837678       3.73058143       0.00137301      -0.00106923       0.00049826
C        4.93104062       8.53853752       3.71249328      -0.00424504       0.00012224       0.00085335
C       -0.00426649       1.43333871       3.70836780       0.00117795       0.00149477      -0.00565720
C       -1.25323608       3.53919253       3.69769646      -0.01192465      -0.00392245      -0.00034358
C       -2.47519505       5.69715198       3.67996600       0.00088422       0.00092593      -0.00175384
C       -3.70520013       7.84035304       3.65815997       0.00172508      -0.00947014       0.00405306
C       -4.93456454       9.98429575       3.67833272       0.00929933      -0.00017914       0.00158816
C        2.46451111       1.46717479       3.78322771       0.00458328      -0.00365414      -0.00121386
N        1.14740193       3.53310412       3.98992974      -0.00450249      -0.00635156      -0.00597635
C       -0.02537639       5.65233187       3.86972322      -0.00447239       0.00023230       0.00206120
C       -1.24066188       7.83480040       3.70486400      -0.00300917       0.00772417       0.01679825
C       -2.47560553       9.98676960       3.66940408       0.00043586      -0.00377254       0.00256092
C        4.93530731       1.43594158       3.69518854      -0.00538522       0.00684237      -0.00483317
N        3.77943992       3.52161367       3.93693182      -0.00781042       0.00280723       0.00412972
C        1.23316517       7.88299413       3.80521834       0.00948279      -0.00127593      -0.00119831
C       -0.00810034       9.98162510       3.66113595      -0.00367657      -0.00401324      -0.00191830
C        7.40005650       1.42456939       3.63793900       0.00704949       0.00015476      -0.00952030
C        6.17674759       3.54992764       3.72866148       0.00183853       0.00138346      -0.01092319
C        4.93768947       5.67936211       3.86176248      -0.00353819       0.00182781       0.00006746
C        3.69027145       7.82022807       3.79879688      -0.00186205      -0.00191566       0.01028452
C        2.46918033       9.98007268       3.66629089       0.00039610       0.00057918       0.00464473
C        9.86653495       1.41930017       3.63123564      -0.00236480       0.00428980       0.00412705
C        8.63094066       3.55866602       3.64528884       0.00397287       0.00201900      -0.01189434
C        7.39862506       5.69954735       3.68687694       0.00146164      -0.00302295      -0.00426534
C        6.16684939       7.83199273       3.69774692      -0.00106926       0.00210652       0.00833319
C        4.93349215       9.96380587       3.67091134      -0.00335816       0.00448923      -0.00283665
Nb       2.57341499       4.87986782       4.78676498       0.00579711       0.00123738      -0.00202428
