49
Lattice="12.336457 0.0 0.0 -6.168228499999997 10.683685154694365 0.0 0.0 0.0 15.0" Properties=species:S:1:pos:R:3:forces:R:3 energy=-443.3837979566549 free_energy=-443.3837979566549 stress="-0.004575494622210405 0.0014590575018130626 -4.76870818545868e-06 0.0014590575018130626 -0.0005484386763581832 -8.044823565660722e-07 -4.76870818545868e-06 -8.044823565660722e-07 -2.536875354796982e-06" pbc="T T T"
C        0.00464714       0.01070602       3.67235133      -0.00222600      -0.00853622       0.00053714
C       -1.23452056       2.13800431       3.65953370       0.01098621       0.00257954       0.00269309
C       -2.47117358       4.27557038       3.64487775       0.01429872       0.01252106      -0.00129224
C       -3.70031543       6.41320400       3.64446503      -0.00637074       0.00372419      -0.00798905
C       -4.93594492       8.55446841       3.67092501      -0.00443240       0.00369290       0.00769250
C        2.47243269       0.02206784       3.69628364       0.01319639      -0.00032448       0.00740311
C        1.24353813       2.15274044       3.77068752      -0.00982628      -0.00184007      -0.00119316
C       -0.02376562       4.29215593       3.82295890      -0.00345930      -0.00483032      -0.01193192
C       -1.24254228       6.42813261       3.69659748       0.00479838      -0.00207549      -0.00342975
C       -2.47321257       8.55767643       3.65327594       0.00754557      -0.00201710       0.00962248
C        4.93548650       0.00592636       3.68283870       0.00670385      -0.00016752      -0.01093211
C        3.72944405       2.16931340       3.82379307       0.00573481      -0.00700085       0.00437273
N        1.17156989       6.41906205       3.95513707      -0.01039642       0.00501677      -0.00232704
C       -0.00741379       8.53190081       3.71486719      -0.00898950       0.00791200       0.00131856
C        7.40271367      -0.01340166       3.66151105      -0.01112704      -0.01236517       0.00757943
C        6.18200750       2.12059391       3.67442570      -0.00631330       0.00406329      -0.00676139
C        4.97716283       4.22011524       3.85568161      -0.00791729       0.00399533       0.00353991
B        3.72144820       6.41443889       4.09973830       0.01418988      -0.00647128       0.00325699
C        2.44597551       8.53262903       3.79772339       0.01121814      -0.00138920       0.00168352
C        9.86787013      -0.00849137       3.66448967      -0.00700496       0.00599164       0.00206238
C        8.64055394       2.12825096       3.62218324      -0.00141983      -0.00154028      -0.00858643
C        7.41286810       4.26462211       3.65261385      -0.00454646      -0.00675336      -0.00524100
C        6.18145902       6.40145787       3.75275486      -0.00424836      -0.00048064       0.00005437
C        4.94152657       8.55294502       3.75580613      -0.00296186       0.00441358       0.00140887
C        0.00300870       1.43183606       3.68424438      -0.00193452      -0.00741843      -0.00030104
C       -1.25156758       3.56340243       3.68724665       0.00899015       0.00176973      -0.00641254
C       -2.46975523       5.70379973       3.65299980       0.00268529       0.01106586      -0.00944167
C       -3.70404976       7.84106162       3.64973783      -0.00283712       0.00798073      -0.00000002
C       -4.93001538       9.98420210       3.67429453       0.00326878       0.00471460       0.00841809
C        2.48395809       1.45256037       3.77261297       0.00004663      -0.00085695       0.00496335
C        1.17990645       3.55851456       3.87401783      -0.00390461       0.00228368       0.00157415
C       -0.02383249       5.73112076       3.82624976      -0.00420428      -0.00881458      -0.00162382
C       -1.24305376       7.84228811       3.68177995       0.00159948      -0.00563345      -0.00036574
C       -2.46939443       9.98519780       3.67415774       0.01530668      -0.00234532       0.01120737
C        4.94613947       1.43138888       3.71421910       0.00553229      -0.00556562      -0.00370306
N        3.78718940       3.53608267       3.99612014      -0.00242208      -0.00541883      -0.00324726
C        1.21228741       7.79962430       3.82246090      -0.00583513       0.01302982       0.00061506
C        0.00084418       9.95941549       3.68037222      -0.00818549      -0.00061470      -0.00831641
C        7.41065930       1.41049836       3.63502268      -0.00998764      -0.00698567       0.00831798
C        6.19229200       3.53014351       3.69796438      -0.01587325       0.00574965      -0.00374778
C        4.97736668       5.64302270       3.89441931       0.00407646       0.00214625      -0.00575679
C        3.69083256       7.86483077       3.86345766       0.01179714      -0.00796529       0.00250068
C        2.45966766       9.95951946       3.69313434      -0.00446930      -0.00406630       0.00718861
C        9.87099192       1.41642025       3.63426884       0.00665206       0.00384515      -0.00091018
C        8.64009919       3.55466249       3.62332483       0.00921278       0.00406102      -0.00812690
C        7.41192351       5.69336748       3.67007491      -0.00247209      -0.00694752       0.00209449
C        6.16974030       7.83206654       3.72861324      -0.00484603       0.00029212       0.01081985
C        4.93973882       9.97530036       3.68619741      -0.00712461       0.00184617      -0.00342351
Nb       2.35060122       4.89413334       4.79220804       0.00749620       0.00572958       0.00413612
