49
Lattice="12.336457 0.0 0.0 -6.168228499999997 10.683685154694365 0.0 0.0 0.0 15.0" Properties=species:S:1:pos:R:3:forces:R:3 energy=-432.7461830086054 free_energy=-432.7461830086054 stress="-0.0014551398460605582 -0.0012880020947851512 8.169155980715588e-06 -0.0012880020947851512 -0.007917762523005755 -3.520310308355934e-06 8.169155980715588e-06 -3.520310308355934e-06 -1.4339690623734288e-06" pbc="T T T"
C       -0.00433946      -0.00155936       3.62011449      -0.01212820       0.00479810       0.00244540
C       -1.23978593       2.14890170       3.64204473      -0.00204912      -0.00935376      -0.00790178
C       -2.50764122       4.26584008       3.87670885       0.00055029       0.00491957      -0.00881902
C       -3.73450623       6.39351666       3.94478330      -0.00160081      -0.00041985       0.00068283
C       -4.95054394       8.52618686       3.79285925       0.00331170       0.00190167       0.00663580
C        2.46044943      -0.08318246       3.55714328      -0.00663655      -0.01560775       0.00107243
C        1.25428255       2.04111906       3.37636568       0.01074740      -0.00307020      -0.00932374
C       -0.06813872       4.32406052       3.83433037      -0.00778165       0.00183206      -0.01729154
C       -1.27626643       6.40683706       4.08783055       0.00346282       0.00540609       0.01038772
C       -2.47412020       8.51555388       3.86894403      -0.00214328      -0.01441213       0.00442511
C        4.93308580      -0.04786462       3.65112495       0.01048460       0.00564331      -0.00233961
C        3.68122301       2.00849864       3.29365766      -0.00066816       0.00464381      -0.00924214
B        1.25699131       6.38498959       4.28097171      -0.00535794      -0.01449917      -0.00351961
C        0.00375402       8.52877075       3.95174672       0.00161941      -0.00329667      -0.01094241
C        7.38830896       0.00468461       3.73017488       0.00986578       0.00072303       0.01082428
C        6.13311405       2.14076843       3.62013896       0.00989934       0.00287621       0.00782778
C        4.82764510       4.32866281       3.66799018       0.00215084      -0.00652077       0.00224524
O        3.75476482       6.54891858       3.42948824      -0.00031734      -0.00067363      -0.00620703
C        2.47536831       8.56217856       3.83522726      -0.00267366       0.01213357      -0.00004338
C        9.85917907       0.01687630       3.68991527       0.00524660       0.00303008      -0.00558716
C        8.60953799       2.14512712       3.71855329      -0.00717075      -0.00033711       0.00245758
C        7.33893795       4.26830388       3.81649467      -0.01305515       0.01042118       0.00788329
C        6.15058837       6.43214993       3.89644571      -0.00368173       0.00866362       0.00886610
C        4.93746662       8.57456157       3.74999062       0.00330000      -0.00708845       0.00585449
C       -0.00152172       1.42958853       3.54018292       0.00524302       0.00146676      -0.00420389
C       -1.25989672       3.55732227       3.77428762       0.00085868      -0.00643657      -0.00995518
C       -2.50467090       5.68487992       3.98906931       0.00585611       0.01039244       0.00167817
C       -3.71583325       7.81332947       3.88303904      -0.00336069      -0.00910800       0.00837495
C       -4.95010531       9.93998257       3.65353133      -0.01622625      -0.00222862       0.00389686
C        2.46234800       1.31652966       3.36450506       0.00443307      -0.01102415      -0.00705568
S        1.47885977       3.76016825       3.23528507       0.00856290      -0.00927219      -0.00304635
C       -0.04660466       5.68499854       4.13279490      -0.00811369      -0.00615846      -0.00247482
C       -1.24061751       7.81902392       4.00090388       0.00050861      -0.00108746       0.00897645
C       -2.46704247       9.91725845       3.68769068       0.00643685      -0.01217360      -0.00687242
C        4.92490797       1.37210883       3.49954485       0.00580390       0.01635591      -0.00016851
B        3.58203518       3.47450089       3.22762069      -0.00503393       0.00933806       0.00484117
C        1.25581743       7.84765503       4.02583219       0.00063734      -0.00516452      -0.01822468
C       -0.00457789       9.95055600       3.77895875       0.01065399       0.00294718       0.01099931
C        7.37413973       1.43268123       3.68591800       0.00191863      -0.00626762      -0.00089331
C        6.10933573       3.56584148       3.69121218      -0.00145329      -0.00267250       0.00862737
C        4.91485219       5.77553783       3.83439999       0.00430170      -0.00673847      -0.00073697
C        3.71562664       7.92090869       3.74787632      -0.00334578       0.00212799       0.01325094
C        2.46240841       9.99128639       3.74964175       0.00875066       0.01461365       0.00442409
C        9.86074836       1.44424831       3.67772103      -0.00410009      -0.00131645       0.00264995
C        8.59002571       3.56191280       3.80291597      -0.00969690       0.00654315      -0.00296714
C        7.36377004       5.68884644       3.90250048      -0.00897830       0.01197138       0.00235186
C        6.15865102       7.84181341       3.81999618       0.00879687       0.00699994       0.00612293
C        4.92676876       9.99393179       3.69313119      -0.00541166      -0.00458041      -0.00251359
Nb       3.07861356       4.95973825       4.62311556      -0.00241619       0.00975975      -0.00747215
