49
Lattice="12.336457 0.0 0.0 -6.168228499999997 10.683685154694365 0.0 0.0 0.0 15.0" Properties=species:S:1:pos:R:3:forces:R:3 energy=-434.8303729564871 free_energy=-434.8303729564871 stress="-0.0019071548593809268 -0.004033342185036686 -9.21307854822904e-06 -0.004033342185036686 -0.0059407133341987835 3.225516924134315e-06 -9.21307854822904e-06 3.225516924134315e-06 1.6169025229160447e-06" pbc="T T T"
C        0.00327209      -0.03757498       3.81390274      -0.00281250       0.00945817      -0.00002452
C       -1.24810091       2.10687087       3.92913075       0.00774411       0.00314621      -0.00646951
C       -2.44838319       4.26182217       4.02193489       0.00300035       0.00616855      -0.00741418
C       -3.65400330       6.40766716       3.94850080      -0.01433174      -0.00552869      -0.00181679
C       -4.89828297       8.54212199       3.87846489      -0.00084345       0.00115216      -0.00379433
C        2.47351155      -0.02103651       3.64280556       0.00098358      -0.00186384      -0.00373667
C        1.17407614       2.02521079       3.53307431       0.00407635      -0.00039077      -0.01281494
C       -0.00393235       4.17405428       3.96752171       0.00314651      -0.01778276       0.00219108
C       -1.19028168       6.39112088       3.84911645      -0.00557515       0.00349871      -0.00141756
C       -2.43098523       8.53377397       3.75432349      -0.00148587       0.00251980       0.00089907
C        4.93210821       0.01640680       3.58381314       0.00590677      -0.00110557      -0.00631447
C        3.67133466       2.10199705       3.31965660      -0.01811554       0.00286318      -0.00140475
B        1.27077436       6.47938260       3.54249351       0.00601716       0.00575212       0.01281988
C        0.01012154       8.57689816       3.57817742       0.00461013       0.00401333       0.00228224
C        7.40482003       0.02131803       3.66507739      -0.00098214      -0.01313703      -0.00017944
C        6.15590028       2.16785172       3.62697729      -0.00678004       0.00193358      -0.00085578
C        5.00624590       4.37658917       3.63034365      -0.00540838       0.00567652       0.00366737
N        3.75947826       6.43326796       3.94085495       0.01104610      -0.00645761      -0.00384858
C        2.50549864       8.57202407       3.66764219       0.00296631       0.00482155       0.00718396
C        9.87405143      -0.00481715       3.82495348       0.00109579       0.00213048      -0.00331575
C        8.62893512       2.14199051       3.86812485       0.00123568       0.00029388      -0.00583371
C        7.42094084       4.28646430       3.90578515       0.00315233       0.00393153       0.00345033
C        6.21685236       6.44400869       3.95643984       0.00827547       0.00422035       0.00628105
C        4.95649016       8.52875759       3.87180990      -0.00423898      -0.00536581       0.01046529
C       -0.01980698       1.38156975       3.77280771       0.00683959       0.01043719      -0.00038014
C       -1.24050226       3.51046069       4.05186317      -0.00207597      -0.00242657      -0.00789679
C       -2.41662871       5.68889523       3.95787282      -0.01127891       0.00482459      -0.00292478
C       -3.65968206       7.82823532       3.87231887      -0.00424786      -0.00467818       0.00049743
C       -4.91796905       9.95789306       3.78132571      -0.00331972       0.00554268       0.00290506
C        2.43782983       1.40592421       3.46600563      -0.00409488      -0.00507971      -0.00142616
O        1.04132793       3.41362295       3.26458022       0.01328442      -0.01052360      -0.00636955
C        0.06016680       5.61678162       3.83552442      -0.00148701      -0.01390736       0.00135376
C       -1.19336864       7.81693245       3.71931036       0.00089396       0.00796434      -0.01009903
C       -2.45277170       9.96330303       3.64882817       0.00567996       0.00273606       0.00507421
C        4.91761750       1.45364039       3.50440026      -0.00974342      -0.00135241      -0.00861837
S        3.61507038       3.76994911       2.82604746      -0.01530443      -0.00016908       0.00629401
C        1.26883205       7.92275899       3.50323896       0.00330377       0.01058157       0.00786799
C        0.00188276       9.99726655       3.60038550       0.00396198      -0.00564911      -0.00092123
C        7.38749447       1.44736496       3.72487353      -0.00453877      -0.00982217      -0.00046896
C        6.18126033       3.58934516       3.73026095      -0.00235908       0.01073456       0.01113654
C        4.96569462       5.77386099       3.87532986       0.01401219       0.00369432       0.01257668
C        3.72595833       7.79658714       3.83001687      -0.00302078      -0.00587198       0.00615036
C        2.48175103       9.98774090       3.72098701       0.00152768       0.00038118       0.00325927
C        9.86382469       1.41630051       3.88996711       0.00660721       0.00202530      -0.00487454
C        8.64656101       3.56328215       3.94877987       0.00528870       0.00538141       0.00137613
C        7.43742869       5.70947839       3.96060900      -0.00499498      -0.00305876      -0.00405889
C        6.20171701       7.84774593       3.92970643       0.00081446       0.00108963       0.00646149
C        4.93543519       9.94459266       3.85056347      -0.00106619      -0.00311199      -0.01107288
Nb       2.01782817       4.84884684       4.36819127       0.00263523      -0.00968993       0.00415909
