49
Lattice="12.336457 0.0 0.0 -6.168228499999997 10.683685154694365 0.0 0.0 0.0 15.0" Properties=species:S:1:pos:R:3:forces:R:3 energy=-438.2744791775321 free_energy=-438.2744791775321 stress="-0.0014018637748017889 -0.0036470625835528223 -1.3742894830763966e-06 -0.0036470625835528223 -0.003923559173726518 -2.1115234604120023e-06 -1.3742894830763966e-06 -2.1115234604120023e-06 3.2448811355979404e-06" pbc="T T T"
C       -0.00857605       0.01700554       3.95386581       0.00488842      -0.00308509       0.00636636
C       -1.27142980       2.14131401       3.89788308      -0.00173197      -0.00328388       0.00152967
C       -2.51846827       4.28229636       3.92226731       0.00241079      -0.00265279      -0.00416924
C       -3.69956266       6.42925129       4.01440873       0.00356349       0.00282656      -0.00285879
C       -4.91667126       8.57889939       4.04749082      -0.00438593       0.00159096       0.00230083
C        2.46993673      -0.01221628       3.74765913       0.00001505       0.00096698       0.00163958
C        1.22629990       2.10022145       3.71318505      -0.00434338       0.00019788       0.00781960
C       -0.07632864       4.28146768       3.75230185      -0.00055621       0.00101734       0.00603208
C       -1.25013146       6.41984340       3.77256644       0.00137734      -0.00531271      -0.00736194
C       -2.45703689       8.55294483       3.80688348      -0.00431476      -0.00238846      -0.00457353
C        4.92852061       0.00522314       3.57446659      -0.00600966       0.00512141       0.00236350
C        3.64563125       2.03923669       3.11768610       0.00208958      -0.00142965       0.00438593
B        1.30088674       6.33413120       3.42029844       0.00264236       0.00020235       0.00342536
C        0.01609358       8.53467820       3.62513926      -0.00399361       0.00021556       0.00168474
C        7.38294272       0.01670788       3.70691931      -0.00142185      -0.00187251      -0.00126156
C        6.10880526       2.16802104       3.66085068       0.01046947       0.00275758      -0.00319711
C        4.90493375       4.39743862       3.83781566       0.00078165       0.00426745      -0.00950602
N        3.81519752       6.51464116       3.77029113       0.00016597      -0.00743391      -0.00579389
C        2.48268940       8.55411834       3.73065325       0.00314562      -0.00285413      -0.00083976
C        9.84624271       0.01659258       3.89807135      -0.00147026       0.00402272       0.00730511
C        8.58641315       2.15290554       3.86432041      -0.00221562       0.00691911       0.00657422
C        7.34857271       4.29867123       3.96496712      -0.00296160       0.00091356       0.00575261
C        6.20312545       6.48123040       4.15102203       0.00218602      -0.00317992       0.00069271
C        4.94969345       8.58433896       4.03500908       0.00383024       0.00199489      -0.00922166
C       -0.02387157       1.43329817       3.87258422      -0.00166494      -0.00573163       0.00122774
C       -1.29133599       3.55821195       3.87180912       0.00252775      -0.00331828       0.00818117
C       -2.48850814       5.70840649       3.91269098       0.00300278      -0.00267375      -0.00274666
C       -3.68634689       7.85411352       3.97649916      -0.00504821       0.00252672      -0.00130511
C       -4.93298545       9.99092653       3.93969430       0.00289750      -0.00171480      -0.00870792
C        2.44575730       1.38955482       3.57164691      -0.00395054       0.00070529       0.00316790
B        1.23380907       3.57105150       3.66032147       0.00055507       0.00685969       0.00178787
C       -0.04822543       5.68332988       3.65888692       0.00275595      -0.00095937      -0.00048178
C       -1.22535848       7.83723958       3.72121387      -0.00318291      -0.00499468      -0.00331513
C       -2.46482536       9.96992501       3.69120266      -0.00406292      -0.00101791      -0.00284323
C        4.91561952       1.42392103       3.45430207       0.00562881       0.00616229       0.01520981
O        3.56678254       2.98683405       2.18020518       0.00146001      -0.00176306      -0.00279910
C        1.27068549       7.82790144       3.57773942       0.00002193       0.00056273      -0.00432796
C       -0.00138540       9.97204014       3.63192774      -0.00690984       0.00253310      -0.00226636
C        7.34975135       1.45036807       3.75116549       0.00512307       0.00043368       0.00193761
C        6.08626968       3.60737485       3.83426505      -0.00242780       0.00211143      -0.00433938
C        4.99236685       5.81377346       3.96298742       0.00171482      -0.00070719      -0.00289932
C        3.73611055       7.86482245       3.86649590       0.00388945      -0.00247521      -0.00498383
C        2.45680103       9.98544669       3.78872336       0.00113452      -0.00222638      -0.00294154
C        9.82811970       1.43788124       3.89952762      -0.00508507       0.00541784       0.00293496
C        8.57889785       3.57852802       3.92519464      -0.00202541       0.00409430       0.01384415
C        7.39888693       5.72296429       4.08023606       0.00342866       0.00173153      -0.00464313
C        6.18634643       7.88858301       4.12632952      -0.00096715      -0.00328221      -0.00902973
C        4.92390013       9.99777831       3.98238739       0.00270266       0.00343907       0.00277269
Nb       3.05235172       4.73531199       3.03066097      -0.00567935      -0.00523451      -0.00252249
