49
Lattice="12.336457 0.0 0.0 -6.168228499999997 10.683685154694365 0.0 0.0 0.0 15.0" Properties=species:S:1:pos:R:3:forces:R:3 energy=-438.67146783466626 free_energy=-438.67146783466626 stress="-0.005429580054264934 0.002433549360198871 7.29978204957561e-06 0.002433549360198871 -0.007081414483136814 -1.0782660738764583e-05 7.29978204957561e-06 -1.0782660738764583e-05 -2.6220580852905655e-06" pbc="T T T"
C        0.00828418      -0.00927351       3.74894043       0.01214962      -0.00147554      -0.00006795
C       -1.20828203       2.14603076       3.61659238       0.00414308       0.00653987       0.00056841
C       -2.45365112       4.27820516       3.71223116      -0.01014170      -0.00386956      -0.00720908
C       -3.70261951       6.41040200       3.79534283      -0.00984849       0.00101430      -0.00157526
C       -4.93515113       8.53745201       3.84201974       0.00318366       0.00012760       0.00305594
C        2.47590166      -0.02069879       3.72610794      -0.00362917       0.00716876      -0.00504991
C        1.26165559       2.05192554       3.39607915      -0.00176201       0.00497890       0.00458723
C       -0.01638343       4.32042650       3.46845114      -0.00042857       0.00450037      -0.00039652
C       -1.26180162       6.44297646       3.66438693      -0.00128912       0.00738462       0.00476891
C       -2.46794093       8.55436724       3.75959308      -0.00638837      -0.00407862       0.00236434
C        4.94600251       0.00809518       3.72754300      -0.00218111      -0.01365669       0.00469671
C        3.71657527       2.13845416       3.70170462       0.00043928      -0.00933927      -0.00365718
C        1.19573962       6.46838805       3.73497835       0.00327222      -0.00764901      -0.00085797
C        0.00075265       8.56936093       3.74502357       0.01212038       0.00861647       0.00834957
C        7.41639576       0.01277605       3.77008732       0.01091468       0.00068363      -0.00779889
C        6.19350772       2.13252152       3.74690360       0.00535074      -0.00010729       0.01779059
C        4.96892159       4.25266002       3.88546373      -0.00107451      -0.00928669       0.00735851
B        3.61796068       6.35908163       4.12107575       0.00543886       0.00183922      -0.00147445
C        2.47436014       8.58088008       3.89211323      -0.01238458      -0.01338785      -0.00114529
C        9.88787151       0.01237073       3.80119491       0.00078943      -0.00083381       0.00691565
C        8.65879659       2.14233372       3.74463013      -0.00634166      -0.00303453      -0.00907648
C        7.42323756       4.26934504       3.80541456       0.00226931       0.01462475      -0.00512979
C        6.17335077       6.40210253       3.93257191      -0.00093238       0.00848650      -0.00079179
C        4.93653796       8.54269824       3.93903211      -0.00003149       0.00278487       0.00225829
C        0.01260054       1.41112274       3.58634793       0.00457470      -0.00004037       0.00207391
C       -1.22719447       3.55784611       3.61341523       0.00190089       0.00526365      -0.00261210
C       -2.47015544       5.70740189       3.71920065      -0.01044868       0.00223336      -0.00709712
C       -3.70057367       7.83447280       3.80133256      -0.00502316      -0.00670532       0.00762899
C       -4.92924543       9.95980724       3.77580777       0.00868216      -0.00159504       0.00132190
C        2.49170900       1.39825373       3.61391124      -0.00285958       0.00438495      -0.00950113
S        1.27553288       3.57518846       2.50283147       0.00815808      -0.01292704      -0.00804829
C       -0.02066176       5.75840981       3.60592910      -0.00156198      -0.00122590       0.00000494
C       -1.23655733       7.85603851       3.72110144       0.00734923       0.01389006       0.00219257
C       -2.45696098       9.97105455       3.74781222      -0.01214593      -0.00563420      -0.00228181
C        4.95682844       1.42397515       3.71942404       0.00377150      -0.01122336       0.01280899
C        3.75383872       3.52505372       3.85120563      -0.01367535      -0.00955604      -0.00835658
C        1.24295638       7.87523289       3.79626841      -0.00459326      -0.01341539      -0.00541004
C        0.00987326       9.98456827       3.74872917       0.01226661       0.00733724       0.00569011
C        7.42612050       1.42834339       3.75132518       0.00039541      -0.00207346       0.00114300
C        6.20482565       3.54658243       3.80079594       0.01019055       0.00286620       0.01185762
C        4.95904040       5.66285545       3.99103257       0.00784621      -0.00804474      -0.00359362
C        3.68978206       7.85913934       4.00113908      -0.00269972       0.00158278      -0.00577496
C        2.48122520       9.99751145       3.82789419       0.00133689      -0.01138720      -0.01032904
C        9.89611400       1.43569547       3.72323647       0.00045329       0.00515080       0.00386281
C        8.65673926       3.56336180       3.75498358      -0.00904371      -0.00280106      -0.00057302
C        7.41069880       5.69419885       3.84793567      -0.00867195       0.01391205       0.00096152
C        6.16948502       7.82636910       3.92049661       0.00064078       0.00718669      -0.00319789
C        4.94316480       9.97011666       3.83997595       0.00653346       0.00389505       0.00085837
Nb       2.02818547       4.75306809       4.41510591      -0.00701451       0.01689530      -0.00211271
