49
Lattice="12.336457 0.0 0.0 -6.168228499999997 10.683685154694365 0.0 0.0 0.0 15.0" Properties=species:S:1:pos:R:3:forces:R:3 energy=-432.33293054587676 free_energy=-432.33293054587676 stress="0.0009637090090468497 -0.004940619015212174 8.735988200886289e-06 -0.004940619015212174 -0.005336687987731227 -7.0474342156500205e-06 8.735988200886289e-06 -7.0474342156500205e-06 -1.5358534859554573e-06" pbc="T T T"
C        0.00811420      -0.04284921       3.57989092       0.00302279       0.00090739       0.00401142
C       -1.22725966       2.12306212       3.50932213      -0.00135841      -0.00090472       0.00452743
C       -2.44052845       4.26031939       3.74389478      -0.00286462       0.00634479      -0.00477851
C       -3.65825379       6.39885022       3.90544326       0.00579262      -0.00805330       0.00166695
C       -4.90151984       8.52662499       3.82507972      -0.00493072      -0.00389866       0.00331637
C        2.49042599      -0.07955039       3.52609369      -0.00182087       0.00159820      -0.00353583
C        1.23952372       2.00204154       3.20484179       0.00146506      -0.00939003       0.00456743
C        0.05347632       4.24449152       3.66530756      -0.00602994       0.00865115      -0.00130707
C       -1.20072493       6.40141200       3.97087399       0.00112908      -0.00505940       0.00819586
C       -2.42072206       8.52596674       3.83258393       0.00141839      -0.00447620      -0.00637793
C        4.94364786       0.01200900       3.65145457      -0.00531996       0.00291640       0.00031635
C        3.65327191       2.06899459       3.31772268       0.00657409       0.01060214      -0.00231063
B        1.26971739       6.49735447       4.32614824       0.00343481      -0.00004385      -0.00367788
C        0.03215651       8.58027849       3.94664441      -0.00285879      -0.00712494       0.00660288
C        7.41190179       0.02983382       3.74863518      -0.00081673       0.00683833      -0.00299817
C        6.14056570       2.18226238       3.62615861       0.00248030      -0.00234544       0.00049271
C        4.93327175       4.40840344       3.76801988       0.00626308      -0.00126931       0.00698676
O        3.77840966       6.48933263       4.08206170      -0.00231123      -0.00115552       0.00531057
C        2.53014855       8.58689428       3.96524860       0.00850364       0.00412488      -0.00364669
C        9.88602457       0.00966623       3.70199081       0.00317095      -0.00365226      -0.00562417
C        8.63504597       2.15121507       3.66446385       0.01079205       0.00998631       0.00690014
C        7.39921485       4.28812674       3.80690042      -0.00988159      -0.00091963       0.00427922
C        6.20929994       6.43875226       4.00225452      -0.00799615       0.00509342      -0.00204972
C        4.96674431       8.54616187       3.88715212      -0.00519738       0.01043502       0.00055000
C       -0.00389212       1.36913879       3.39978777      -0.00110709      -0.00300122       0.00587332
C       -1.22163800       3.53068128       3.59484005      -0.00597181       0.00237757       0.00007199
C       -2.42546497       5.68658298       3.87785116       0.00792052      -0.00087772      -0.00455734
C       -3.65538078       7.81852159       3.86944023       0.00157015      -0.00726009      -0.00282044
C       -4.91742501       9.92978001       3.64000084      -0.00039260      -0.00304533      -0.00565454
C        2.46867695       1.32298836       3.29757630       0.00674070      -0.00068390      -0.01328430
B        1.32365446       3.47201581       3.03052319       0.00989899      -0.00837669       0.00406649
C        0.03291964       5.65263884       4.04069380      -0.01069011       0.00566163       0.00605755
C       -1.18389059       7.82448384       3.93819535      -0.00139542      -0.00966295       0.00296449
C       -2.43383008       9.94154661       3.67235565      -0.00515683       0.00181160      -0.00124588
C        4.91498755       1.45207984       3.52336943       0.00377056       0.00240864       0.00010108
S        3.32622933       3.80262592       3.09108352      -0.00164361      -0.01956926       0.00360380
C        1.28682541       7.92227920       4.09774940       0.00717672       0.00020853      -0.00273503
C        0.01124624       9.99921064       3.78613456      -0.00488710      -0.00143692      -0.00167909
C        7.38406891       1.45798214       3.67393863       0.00940525       0.01097239       0.00548339
C        6.13272751       3.61300562       3.72383416      -0.00423037      -0.00582208      -0.00154633
C        4.98343212       5.77518321       3.99443401      -0.00327958       0.00073160      -0.00170549
C        3.75718796       7.86257285       3.97998421       0.00460139       0.00255489       0.00457881
C        2.49582640       9.99814972       3.80536058       0.00220060       0.00158507      -0.00534836
C        9.87256337       1.43179634       3.61531667       0.00347498      -0.00353220      -0.00965807
C        8.64584170       3.57045060       3.72805421      -0.00368490       0.01013449       0.00104428
C        7.43031295       5.69989394       3.91626006      -0.00621050      -0.00064733      -0.00257187
C        6.20865952       7.84546657       3.92869093      -0.01155042       0.00579104       0.00408129
C        4.94430348       9.96088077       3.72678997       0.00270119       0.00372720      -0.00897382
Nb       1.76749908       4.58893947       4.74426751      -0.00192117      -0.00325373       0.00243657
