49
Lattice="12.336457 0.0 0.0 -6.168228499999997 10.683685154694365 0.0 0.0 0.0 15.0" Properties=species:S:1:pos:R:3:forces:R:3 energy=-440.93130592983283 free_energy=-440.93130592983283 stress="-0.004146871310615751 0.0014088986511067432 -6.553648846719834e-06 0.0014088986511067432 -0.0031016734850996073 3.224812841173227e-06 -6.553648846719834e-06 3.224812841173227e-06 -2.270046648919115e-06" pbc="T T T"
C        0.00831646       0.00895736       3.62931166       0.00545508       0.00173691       0.00455937
C       -1.22880405       2.14296557       3.67515122      -0.00352474      -0.00213462      -0.00176013
C       -2.47068726       4.27699403       3.72609402      -0.00868995      -0.00523175      -0.01297124
C       -3.70406273       6.41232240       3.69095594       0.00466406      -0.00755665       0.00101755
C       -4.93558105       8.54942771       3.65434976       0.00323468      -0.00926506       0.00599505
C        2.48081855       0.01182363       3.65793994      -0.01473560       0.00268208       0.00499530
C        1.24795200       2.14701533       3.68517929       0.00742806       0.00295092       0.00808905
C       -0.02519319       4.27488973       3.87202034       0.00177023       0.00270859      -0.00518173
C       -1.24725231       6.41851434       3.78147827      -0.00342325       0.00250877      -0.00317595
C       -2.46772570       8.54851753       3.68581117      -0.00784348       0.00417381      -0.00332111
C        4.93877725      -0.00226981       3.68619548      -0.00724592       0.00014776      -0.00049270
C        3.73875437       2.10580443       3.78557861      -0.00496186      -0.00076094      -0.00178148
C        1.20005637       6.42830112       3.93949507       0.00063817      -0.00052144       0.00559141
C        0.00192501       8.54438070       3.74141858       0.00262194       0.00057667      -0.00894603
C        7.40607092      -0.00106518       3.68303533       0.00784366       0.01137165      -0.00961900
C        6.18540609       2.12425529       3.69688798       0.00003627       0.00194307      -0.00109640
C        4.99216511       4.23593508       3.83622353       0.00664558      -0.00086518      -0.00064973
B        3.65310450       6.40257832       3.99066449      -0.01020193      -0.00140222      -0.00326997
C        2.46666024       8.56972038       3.76259920      -0.00582796       0.00304488       0.00646930
C        9.87650699       0.00857069       3.65510273       0.00555454      -0.00575501      -0.00312182
C        8.64298555       2.13836082       3.66755364       0.00325119      -0.00013356       0.00062660
C        7.41058647       4.27305464       3.69240320       0.00363736       0.00035242      -0.00182273
C        6.16514693       6.39746673       3.72455187       0.00715362       0.00021904       0.01237544
C        4.94156799       8.55543694       3.70282761      -0.00250881       0.00000256       0.00310620
C        0.01280549       1.43255377       3.64300574       0.00560830       0.00278184       0.00509019
C       -1.25174884       3.55969519       3.75180430      -0.00563590       0.00098125      -0.01131207
C       -2.47270927       5.70499291       3.73320701      -0.00011759      -0.00579312      -0.00653115
C       -3.70196335       7.83772518       3.67194540       0.00274686      -0.01030794       0.00330058
C       -4.92556297       9.97879340       3.63707640      -0.00241567      -0.00880406       0.00758673
C        2.49900067       1.44538012       3.70222523      -0.00213467       0.00019472       0.00448363
C        1.18465899       3.54329472       3.79267231       0.00317456       0.00212122       0.00590128
C       -0.01715459       5.70588476       3.90059637       0.00099090       0.00449143      -0.00010513
C       -1.23654625       7.83618310       3.73606805      -0.00409355       0.00543062       0.00318717
C       -2.46306612       9.97739136       3.67457837      -0.01613578       0.00646092      -0.00803614
C        4.94899058       1.42467435       3.70988440      -0.00444078       0.00271425      -0.00112427
O        3.79739524       3.51141911       4.00169659      -0.00959153       0.00317626      -0.00346771
C        1.24149489       7.84215188       3.81087001       0.00049235      -0.00165304       0.00113924
C        0.00404381       9.96508275       3.69818157       0.00472411       0.00473932      -0.00637597
C        7.40670192       1.42281678       3.67203095       0.00359201       0.00961584      -0.00650173
C        6.18782460       3.53735719       3.71613862       0.00847184      -0.00154237       0.00023212
C        4.94539088       5.63750432       3.83383189       0.00542340      -0.00253879       0.00899378
C        3.69726068       7.87265700       3.79539063      -0.00778343       0.00330369       0.00817505
C        2.47092595       9.98637180       3.68876962       0.00354142       0.00237390      -0.00330755
C        9.87590436       1.42957900       3.65457056      -0.00069657      -0.00599469       0.00004951
C        8.63964273       3.56313216       3.68644666      -0.00390321      -0.00403763      -0.00802509
C        7.39934239       5.69458328       3.69325451       0.00437303      -0.00084021       0.00250411
C        6.16727582       7.82718886       3.69229614      -0.00028357       0.00038152       0.00179561
C        4.94296467       9.98022915       3.64995611       0.00580657       0.00034717       0.00162337
Nb       2.24702652       4.88994921       4.78539319       0.01731596      -0.00839481       0.00510924
