50
Lattice="12.336457 0.0 0.0 -6.168228499999997 10.683685154694365 0.0 0.0 0.0 15.0" Properties=species:S:1:pos:R:3:forces:R:3 energy=-443.91133924263534 free_energy=-443.91133924263534 stress="-0.007162219108599724 -0.0013951971233525148 -1.1045203875286726e-05 -0.0013951971233525148 -0.0040987682052579 9.528525951294077e-06 -1.1045203875286726e-05 9.528525951294077e-06 1.669101828782447e-05" pbc="T T T"
C       -0.02702718      -0.00810186       3.66448766      -0.00236159      -0.00228033      -0.00080935
C       -1.28830504       2.10873241       3.77447197      -0.00024854      -0.00083818      -0.00369120
C       -2.52878003       4.26150744       3.82606197      -0.00093486       0.00021221       0.00064421
C       -3.71926838       6.41188187       3.70155444      -0.00072053      -0.00098364       0.00053692
C       -4.93803225       8.55783280       3.57879700      -0.00023961       0.00042244       0.00326498
C        2.44542066       0.01343672       3.78449694       0.00026077      -0.00048625       0.00228792
C        1.17773715       2.11260547       3.90139220       0.00157055       0.00550669      -0.00791070
C       -0.12234218       4.21500421       4.12079126      -0.00654670      -0.01784145      -0.00889039
C       -1.29126248       6.40003376       4.10434785      -0.00389210      -0.00116889       0.00235481
C       -2.48741673       8.54896035       3.85910297      -0.00144183      -0.00017182       0.00455865
C        4.90145361       0.01312406       3.82638422       0.00082158      -0.00256211       0.00288439
C        3.67539579       2.16193005       3.84795594      -0.00093492       0.00408034      -0.00216303
B        2.35195729       4.31214257       4.18867630      -0.00509341       0.08177819       0.04189318
P        1.44539531       6.28079380       4.70739132       0.01569060      -0.02339228       0.00796697
C       -0.03599646       8.55779924       3.99756429      -0.00533797       0.00885086       0.00750145
C        7.36237213       0.00063340       3.73225147       0.00009251      -0.00056851       0.00337769
C        6.13886028       2.13459149       3.66942755      -0.00241503       0.00179980      -0.00068193
C        4.93894409       4.26401576       3.40265927       0.01035324      -0.01633941      -0.00845730
S        3.62064776       6.50822121       2.25969355      -0.02406494      -0.01595195       0.01141271
C        2.42533159       8.56973869       3.73306372       0.00317198       0.02357959       0.00691089
C        9.83970749      -0.00841822       3.62136458       0.00108905      -0.00191586       0.00049524
C        8.59683175       2.12552065       3.66432053       0.00123186      -0.00142903       0.00073772
C        7.38144733       4.26887571       3.55400984       0.00240382       0.00090434      -0.00333979
C        6.19727344       6.42175636       3.27323518       0.01009397      -0.00026644      -0.00450583
C        4.94273857       8.54360225       3.49101180       0.00638338       0.00708305       0.00551820
C       -0.04653425       1.40292599       3.77922801      -0.00041000       0.00020001      -0.00419646
C       -1.32382628       3.52296685       3.90852950       0.00724008       0.00452338      -0.00394893
C       -2.51493534       5.69018629       3.88712937      -0.00103249      -0.00204132       0.00040080
C       -3.71397551       7.84007031       3.71017556       0.00104433      -0.00128928       0.00254986
C       -4.95137401       9.97833578       3.67492171      -0.00042917      -0.00087364       0.00166322
C        2.44197418       1.43694482       3.85772136       0.00042222       0.00222212       0.00035526
C        1.10920462       3.51144519       4.07753899      -0.00485070      -0.00254204      -0.01300023
C       -0.13544613       5.62199539       4.32893684      -0.00097738       0.00998166      -0.00226536
C       -1.26545796       7.83527411       4.02247424       0.00406083      -0.00069098       0.00456443
C       -2.49257166       9.97943839       3.82751093       0.00015545       0.00050260       0.00334849
C        4.89678714       1.44094937       3.77666813      -0.00113332      -0.00001516       0.00014346
C        3.71358972       3.62904336       3.85066734       0.01138509      -0.00471471      -0.00773925
C        1.23346328       7.90452820       4.05586120      -0.00692501       0.00261146       0.00569614
C       -0.03645507       9.97885389       3.84361494      -0.00079103       0.00100226       0.00467810
C        7.36384100       1.41878890       3.67700811       0.00082469      -0.00077533       0.00206390
C        6.16842540       3.54618565       3.51798994      -0.00440398       0.00289327      -0.00430559
C        5.01905842       5.65663306       2.94720879       0.00332085       0.00468876      -0.00883771
C        3.67831779       7.83451700       3.50138094       0.00539308       0.00021151       0.00447039
C        2.43263032       9.97905172       3.66872142      -0.00049577      -0.00156427       0.00434152
C        9.82698317       1.40720469       3.67428412       0.00010485      -0.00010786       0.00020561
C        8.59680765       3.54887756       3.67570701      -0.00078940      -0.00061590      -0.00022539
C        7.40060245       5.69731199       3.50785646      -0.00001027       0.00094519      -0.00337864
C        6.16772672       7.84884617       3.39535267      -0.00179866      -0.00010831       0.00123520
C        4.91218960       9.96374317       3.58932158      -0.00020167       0.00011923       0.00170560
Nb       3.83417057       5.72436806       4.67033627      -0.00863388      -0.06258398      -0.05142083
