49
Lattice="12.336457 0.0 0.0 -6.168228499999997 10.683685154694365 0.0 0.0 0.0 15.0" Properties=species:S:1:pos:R:3:forces:R:3 energy=-443.38921150926706 free_energy=-443.38921150926706 stress="-0.005385248321004453 -0.00013215117427798484 -1.5943807230626465e-06 -0.00013215117427798484 -0.0008322237202008764 -2.549311215634967e-07 -1.5943807230626465e-06 -2.549311215634967e-07 -7.102224980530247e-07" pbc="T T T"
C       -0.00032424       0.00571749       3.66183302       0.00558795       0.00630266      -0.00248973
C       -1.23912494       2.13074755       3.66553992      -0.00942511      -0.00384307      -0.00529318
C       -2.45992032       4.27303936       3.65032244      -0.00621558      -0.00314906      -0.01320028
C       -3.68685702       6.41514352       3.63532269       0.00395560      -0.00701991      -0.01255187
C       -4.92884455       8.55808700       3.65087961       0.00535001      -0.00632993       0.01494434
C        2.46331454       0.02392147       3.69139697      -0.00678116      -0.00396880       0.01027178
C        1.20502385       2.14759822       3.79153289       0.00874193       0.00227752       0.00344885
C       -0.02626639       4.25833894       3.86105694       0.00340521       0.00164248      -0.00954033
C       -1.22879488       6.41655451       3.70651138      -0.00429611       0.00175386      -0.00677324
C       -2.46640855       8.55857665       3.64675008      -0.00435131       0.00026844       0.00242090
C        4.93193901       0.01072969       3.67661523      -0.00554387      -0.00184627       0.00155013
C        3.69233693       2.16749961       3.83364206      -0.00884610      -0.00196205       0.00013107
N        1.17192583       6.42691201       3.97222076       0.00234370       0.00448474       0.00154448
C       -0.00825299       8.53515502       3.71199894       0.00587334      -0.00677481      -0.00073614
C        7.39845887      -0.01269818       3.65375744       0.00391783       0.01463722       0.00059480
C        6.17830435       2.12590169       3.66994365       0.00185181      -0.00231574       0.01111468
C        4.99252817       4.25888086       3.86692011       0.00099854      -0.00464886       0.00262115
B        3.72790416       6.41010440       4.09297390      -0.00544994      -0.00227743       0.00408637
C        2.44728073       8.53119553       3.79201203      -0.00764760       0.00201882       0.00271041
C        9.86337522      -0.01210381       3.65383113       0.00199111      -0.00760560       0.00349900
C        8.63673380       2.12674079       3.61634380       0.00692525       0.00651198      -0.00118886
C        7.42692332       4.26742725       3.64818179       0.00247642       0.00292927      -0.00758881
C        6.20433586       6.41553240       3.73973750       0.00394982       0.00637791       0.01123082
C        4.94313227       8.55024513       3.74120721      -0.00583857      -0.00052473      -0.00232534
C       -0.01195272       1.42943116       3.68774288       0.00256337       0.00679656       0.00138110
C       -1.23400680       3.55269619       3.70381258      -0.00521668      -0.00048747      -0.01530728
C       -2.45622463       5.69907913       3.65417087      -0.00085284      -0.00556948      -0.01317561
C       -3.69602253       7.84352502       3.63652453       0.00493223      -0.01197589       0.00014846
C       -4.93195915       9.98619813       3.66021566       0.00183347      -0.00796284       0.00696944
C        2.45350890       1.45367384       3.78355187      -0.00231531      -0.00394674      -0.00524314
N        1.15445703       3.51430004       3.94029882       0.00762552       0.00098126      -0.00745869
C       -0.01426557       5.70484834       3.85603036       0.00389951       0.00883791      -0.01014894
C       -1.23635974       7.83758714       3.68041441      -0.00177657       0.00276796       0.00782701
C       -2.47128062       9.98778020       3.66871000      -0.00979825       0.00052144       0.00269000
C        4.93370655       1.43184404       3.71563397      -0.00722318       0.00139659      -0.00311485
C        3.76229845       3.56340698       3.98955367      -0.00269732      -0.00278992       0.00788812
C        1.21145796       7.80341028       3.82256501       0.00455438      -0.00292628       0.00381351
C       -0.00329380       9.96301755       3.67238338       0.00411734      -0.00097937      -0.00005030
C        7.40607658       1.41095054       3.62859289       0.00896921       0.01293993       0.00357569
C        6.20955567       3.54241785       3.70002360       0.00822300      -0.00524235       0.00115601
C        5.01095167       5.67209803       3.89607528       0.00222700      -0.00371156       0.00224896
C        3.69348133       7.86080628       3.85667441      -0.01241680      -0.00067619       0.00156511
C        2.45636676       9.95768164       3.68425779      -0.00148902       0.00503309       0.00551440
C        9.86753089       1.41426814       3.62875399      -0.00416006      -0.00624458       0.00073482
C        8.64978998       3.55388468       3.62119030      -0.00051910       0.00270022      -0.01381332
C        7.42991346       5.69810131       3.65993243      -0.00122006       0.00446777       0.00048666
C        6.18030613       7.84036438       3.70974311      -0.00158738       0.00734386       0.01186192
C        4.93556273       9.97106351       3.67113709       0.00396245       0.00099455       0.00325377
Nb       2.33907177       4.89686762       4.79619918       0.00539198       0.00079290      -0.00128383
