49
Lattice="12.336457 0.0 0.0 -6.168228499999997 10.683685154694365 0.0 0.0 0.0 15.0" Properties=species:S:1:pos:R:3:forces:R:3 energy=-438.43846461781106 free_energy=-438.43846461781106 stress="0.006959664196729322 -0.0012750834385003725 1.4104547673857746e-06 -0.0012750834385003725 -0.003370856069191925 -6.806566673087312e-06 1.4104547673857746e-06 -6.806566673087312e-06 4.237445116438841e-07" pbc="T T T"
C       -0.00556444      -0.00635183       3.67937122      -0.00013701      -0.00442642      -0.01032228
C       -1.23102010       2.14825664       3.80115081      -0.00495256      -0.00342141      -0.00313470
C       -2.46083028       4.26409215       3.86170162       0.00202068      -0.00591221      -0.00024015
C       -3.71183307       6.38379316       3.80358327       0.00069177       0.00345752      -0.00748303
C       -4.95100302       8.51360234       3.68316512       0.00009456      -0.00688354      -0.00813326
C        2.45659108      -0.07757567       3.57013986      -0.00477861      -0.00265646       0.00030448
C        1.25436246       2.07682145       3.73079872      -0.00206815       0.00299424       0.00002054
C        0.07544211       4.29632456       3.92191591       0.00131805       0.00273161       0.00804654
C       -1.22285755       6.39910776       3.81262845       0.00156594       0.00545590       0.00949846
C       -2.46668694       8.50336232       3.65504120      -0.00871659      -0.00765221      -0.00275412
C        4.93057032      -0.03808659       3.57226677      -0.00389559      -0.00532878      -0.00110743
C        3.65965025       2.04049105       3.52796240       0.00842980       0.00599529      -0.00157767
N        1.20839198       6.43752994       4.02622588       0.00262455      -0.00781890      -0.00529043
C        0.00718269       8.51191508       3.69312092      -0.00074698       0.00543161       0.00672389
C        7.38643087       0.00340925       3.67261891       0.00539310       0.01000049       0.00335960
C        6.12587278       2.14840677       3.70603350       0.00507314       0.00807919       0.01193609
C        4.77900671       4.32853251       3.88219784      -0.01162768       0.00390670       0.00021353
O        3.75106987       6.51540955       3.36353759       0.00652066      -0.00541447      -0.00289846
C        2.46181716       8.53440856       3.68693812      -0.00039826      -0.00203763      -0.00267146
C        9.85536001       0.01250768       3.70224611       0.00380877       0.00237757      -0.00172868
C        8.61351240       2.14690980       3.78411559      -0.00030569      -0.00765195      -0.00735022
C        7.34212989       4.26362897       3.86053964      -0.00010398       0.00403634       0.00059327
C        6.14941304       6.42081365       3.83863288      -0.00246585      -0.00107944       0.00378893
C        4.93068107       8.56439377       3.65095482       0.00144146      -0.00067959       0.00811687
C        0.00271230       1.42277691       3.73915422      -0.00413754      -0.00544606       0.00043557
C       -1.19337819       3.57335442       3.86773040       0.00458155      -0.00334555       0.00319125
C       -2.46075992       5.68267002       3.83108356       0.00137431       0.00304130       0.00681361
C       -3.70761076       7.80007825       3.71205211      -0.00380323      -0.00522386      -0.00234794
C       -4.95234113       9.93210703       3.63493919      -0.00188420      -0.01013274      -0.01418272
C        2.44827783       1.32861602       3.58181148       0.00202947       0.00430373      -0.00901319
B        1.47635617       3.58188071       3.92454369      -0.00516974       0.00088082       0.00115116
C        0.03458729       5.72148026       3.92113324      -0.00219021      -0.00128321       0.00172557
C       -1.22643216       7.80240074       3.71446253      -0.00347250       0.00582972       0.00119915
C       -2.46652075       9.91791879       3.57406083      -0.00882264      -0.00919592       0.00456105
C        4.91397870       1.39111001       3.57316732       0.00820456       0.00216466       0.00122594
B        3.42777478       3.51418869       3.66277101       0.00352619       0.00342462       0.01014484
C        1.22919113       7.78728520       3.79871849      -0.00133271      -0.00639377      -0.00168346
C       -0.00090333       9.94282842       3.63123700       0.00283278       0.00929450       0.00788144
C        7.37193493       1.43715508       3.71780903       0.00079115       0.00361026       0.00749892
C        6.08372916       3.57218513       3.83036424      -0.00119322       0.00740545      -0.00712804
C        4.90208206       5.76359107       3.86800686       0.00126213      -0.01128077       0.00376490
C        3.70811985       7.91658269       3.61557055       0.00314261      -0.00162007      -0.00605130
C        2.45347717       9.97681062       3.68490809       0.00505182       0.00650772      -0.00097604
C        9.86138655       1.44256708       3.76427672      -0.00136841      -0.00097677      -0.00559794
C        8.61212309       3.56561663       3.84239064       0.00046200      -0.00934523       0.00233354
C        7.37672777       5.68425889       3.85557357      -0.00082800       0.00861758      -0.00341944
C        6.15541409       7.82678247       3.71917881      -0.00054411      -0.00042482      -0.00060557
C        4.92498068       9.98910482       3.67690664       0.00002274       0.00181998       0.00524649
Nb       2.96479671       5.21349628       4.72598219       0.00267964       0.01426498      -0.00407808
