50
Lattice="12.336457 0.0 0.0 -6.168228499999997 10.683685154694365 0.0 0.0 0.0 15.0" Properties=species:S:1:pos:R:3:forces:R:3 energy=-455.1836210727049 free_energy=-455.1836210727049 stress="-0.005591244842991026 -0.0015478283886474504 -3.247841566090508e-07 -0.0015478283886474504 -0.0037883216512412015 -4.172814441208103e-06 -3.247841566090508e-07 -4.172814441208103e-06 9.322266543405748e-07" pbc="T T T"
C        0.00218263      -0.00285311       3.66562093       0.00555513       0.00114047       0.00028124
C       -1.24433446       2.12674839       3.64796107      -0.00396569      -0.00073064      -0.00305059
C       -2.47959227       4.26671941       3.64715430      -0.00623318      -0.00543515      -0.00047671
C       -3.70059163       6.41124161       3.66635449       0.00108187       0.00240874      -0.00932539
C       -4.92511031       8.55090892       3.68739689      -0.00285393      -0.00231056      -0.00931185
C        2.47225041       0.00002856       3.64931650       0.00569126       0.00234560       0.00001507
C        1.22622916       2.11651427       3.64310131      -0.00416832      -0.00231583       0.00174453
C       -0.02531892       4.25718643       3.66653006      -0.00711640      -0.00044481      -0.00131290
C       -1.25351942       6.41189667       3.64797783      -0.00475511      -0.00698334      -0.00005180
C       -2.46359133       8.54925723       3.65217221       0.00643601       0.00102529      -0.00000013
C        4.93964405       0.00134035       3.67707945      -0.00190885      -0.00017785       0.00215492
C        3.70469198       2.13534832       3.69788663       0.00205854       0.00211269       0.00625673
C        2.45046305       4.22271177       3.75810094       0.00168883      -0.00403920      -0.00995391
C        1.18234186       6.41891092       3.75899030       0.00830640      -0.00289765       0.00810214
C        0.00185267       8.54855545       3.70537467       0.00294908       0.00179257       0.00355293
C        7.40697446      -0.00561776       3.71985038      -0.00282391      -0.00083664      -0.00260218
C        6.16769089       2.14130405       3.71525535      -0.00578309      -0.00270852       0.00043643
C        4.93569490       4.29942334       3.85009183       0.00852050       0.00761287       0.01190146
N        3.85247398       6.49489216       4.23816402      -0.00552804       0.00001889       0.00043057
C        2.49193360       8.53251335       3.85836090       0.00721358      -0.00373746       0.00639363
C        9.87002280      -0.00811112       3.72048410      -0.00320398       0.00276757      -0.00437889
C        8.63108111       2.13195096       3.67960077      -0.00635618       0.00360514       0.01106805
C        7.39699687       4.27537838       3.71437342       0.00097151      -0.00005233       0.00170178
C        6.18437789       6.42625309       3.79083090       0.00296443      -0.00316506      -0.00507828
C        4.95779538       8.55003213       3.79395948       0.00386913       0.00453115      -0.00177702
C       -0.00437479       1.41674508       3.64409911      -0.00288884      -0.00093164      -0.00315850
C       -1.25505999       3.54711895       3.63884285      -0.00702431      -0.00290427      -0.01112628
C       -2.47450823       5.69582104       3.64522551      -0.00582665      -0.00720359       0.00074353
C       -3.69421322       7.83592270       3.66280636       0.00208736       0.00440043      -0.00088293
C       -4.92895870       9.97436250       3.66151978       0.00592196      -0.00040185      -0.00177017
C        2.46828162       1.42322885       3.65810717       0.00087593       0.00301962       0.00489641
C        1.21187138       3.54591192       3.69937238      -0.00408223      -0.00207650      -0.00062654
C       -0.02294221       5.68442157       3.70301493      -0.00172221      -0.00016925      -0.00810706
C       -1.23303539       7.83416782       3.66402601       0.00369934      -0.00443767       0.00378194
C       -2.46179453       9.97328443       3.65558340       0.00395979       0.00072178       0.00242426
C        4.93631518       1.42698522       3.69769873      -0.00357267      -0.00340503      -0.00135000
C        3.69961583       3.56866027       3.79239139       0.00829733       0.00410579       0.00608056
C        1.24073552       7.82754224       3.79980226       0.00477906       0.00239385       0.00083369
C        0.00425561       9.96909483       3.70198898      -0.00276248       0.00280824       0.00080157
C        7.39911481       1.42086112       3.70069653      -0.00537718       0.00080595       0.00485614
C        6.16554420       3.57003650       3.75433349       0.00230430      -0.00015307       0.00110074
C        4.97086962       5.73124090       3.95150821       0.00017321       0.00738399      -0.00354857
C        3.74951060       7.84645158       3.95649254       0.00782936      -0.00062268      -0.00530417
C        2.47511716       9.96217643       3.76147369      -0.00098421      -0.00404883       0.00320324
C        9.86416784       1.41621465       3.67439317      -0.00608773       0.00423464       0.00462673
C        8.62775223       3.55791866       3.67189462      -0.00428584      -0.00049535       0.00253988
C        7.40490105       5.70031242       3.71434326       0.00485771      -0.00144776       0.00440508
C        6.18425497       7.84233776       3.76034401      -0.00223247      -0.00511033      -0.00675767
C        4.93954949       9.97000675       3.71870991       0.00241565       0.00647129      -0.00245096
Nb       2.26866974       5.58134801       5.17000225      -0.00296375       0.00353629      -0.00193077
