49
Lattice="12.336457 0.0 0.0 -6.168228499999997 10.683685154694365 0.0 0.0 0.0 15.0" Properties=species:S:1:pos:R:3:forces:R:3 energy=-433.4241143867184 free_energy=-433.4241143867184 stress="-0.007009604588502307 0.0011790851471582234 -7.845547955231637e-06 0.0011790851471582234 -0.010009121845897414 3.958383758375478e-06 -7.845547955231637e-06 3.958383758375478e-06 -3.968050011201277e-06" pbc="T T T"
C        0.01081632      -0.02625784       3.59489147      -0.00279120      -0.00573224      -0.00628051
C       -1.21371257       2.13410910       3.46897823       0.00388376       0.00031649      -0.00060159
C       -2.43955738       4.26908239       3.65609053      -0.00689194       0.00184790      -0.00463958
C       -3.68118497       6.40683747       3.82682001       0.00522477       0.00631637      -0.00293430
C       -4.92432140       8.53156507       3.84903334      -0.00062680       0.00091060       0.00397741
C        2.47505136      -0.08150472       3.44474095      -0.00422016      -0.00059821      -0.00381535
C        1.25005675       2.00816219       3.09027702      -0.00339446       0.00064910      -0.00749754
C        0.00508780       4.32441208       3.46192984       0.01117225      -0.00204889       0.01211474
C       -1.25366979       6.44082238       3.71497610       0.00399199       0.00358780       0.00334483
C       -2.45403154       8.53853785       3.69728273      -0.00635092      -0.00276022      -0.00513784
C        4.96004140      -0.02134672       3.54823751       0.00241536       0.00572213      -0.00366143
C        3.70573462       2.01467060       3.35657568      -0.00502527       0.00817261       0.00170528
C        1.18717583       6.48840136       3.90941454      -0.01483416       0.00083383       0.00418006
C        0.02211966       8.56582914       3.75665317       0.00126921      -0.00728944      -0.00753707
C        7.42364146       0.01611232       3.67846672      -0.00174887      -0.00566298       0.00571184
C        6.18887559       2.13971805       3.61574423      -0.00201878      -0.00474934       0.01097164
C        5.03692868       4.31716456       3.99627252       0.00842467       0.00744363      -0.00907763
P        3.58749154       6.35069655       5.09504979      -0.00413395      -0.01234050       0.01038023
C        2.48567805       8.60905804       4.04764822       0.00639576       0.00508587       0.00246545
C        9.89485685       0.01675320       3.74389035      -0.00066619       0.00127413       0.00405873
C        8.65988862       2.14355572       3.63205272      -0.00312505      -0.01405155      -0.00052992
C        7.44015584       4.27584906       3.79913693      -0.00419196      -0.00066812       0.01061264
C        6.23341766       6.42526356       4.18244824       0.00377910       0.01014237      -0.01295200
C        4.95832413       8.57655532       4.12815091       0.00653850       0.00911020       0.00053761
C        0.01128339       1.38744861       3.35139502       0.00181118      -0.00502506       0.00336923
C       -1.22109398       3.55003404       3.51649702       0.00086404       0.00338195      -0.00791106
C       -2.45638960       5.69941525       3.72374857       0.00346129       0.00638957       0.00483483
C       -3.68625242       7.82720905       3.79813047      -0.00316654       0.00234609       0.00145715
C       -4.93122049       9.92998064       3.62222198      -0.00443125      -0.00466432       0.00047276
C        2.47399764       1.30476332       3.22953715      -0.00375917       0.00459635      -0.00691601
P        1.45190765       3.71286629       2.51495905       0.00240922       0.00125319       0.00895646
C       -0.02269216       5.76317604       3.71877920       0.00115173      -0.00080866      -0.00642999
C       -1.21895622       7.85058193       3.72741804      -0.00216415       0.00011778      -0.00319046
C       -2.44535368       9.94116158       3.56226038       0.00044577       0.00153273      -0.00504246
C        4.96808861       1.39687217       3.49983231      -0.00312426       0.00979012       0.00536104
P        3.46739706       3.62613394       3.86688242      -0.00020193      -0.00326057      -0.00171461
C        1.25738495       7.88170899       3.91365556       0.00367177      -0.00241532      -0.00383109
C        0.02417471       9.97661819       3.66145626       0.00161971      -0.00568221       0.00128529
C        7.42119103       1.43534885       3.62746086      -0.00413216      -0.01010505       0.00357249
C        6.21211585       3.55884583       3.77220177       0.00039718      -0.00875218       0.00554368
C        5.06286727       5.67270670       4.39806121       0.00026616      -0.01185617      -0.00400433
C        3.70658449       7.95415139       4.37312228       0.00671617       0.00301748       0.00694901
C        2.48902656      10.00538899       3.81641479      -0.00013875       0.00322497      -0.00145716
C        9.89378572       1.43218398       3.60252124       0.00428357      -0.00404091       0.00177806
C        8.66547112       3.56431112       3.68280829      -0.00941736      -0.00865000      -0.00175721
C        7.43861971       5.69676320       3.93567152       0.00267573       0.00802123      -0.01405666
C        6.19574550       7.84656994       4.10168419       0.00313959       0.00935043      -0.00165230
C        4.95623572       9.97855295       3.82410952      -0.00161370       0.00580327       0.00257379
Nb       1.60461038       4.72170943       4.81912870       0.00616047       0.00092372       0.00641388
