49
Lattice="12.336457 0.0 0.0 -6.168228499999997 10.683685154694365 0.0 0.0 0.0 15.0" Properties=species:S:1:pos:R:3:forces:R:3 energy=-446.0962774997525 free_energy=-446.0962774997525 stress="-0.005395746413443931 -1.2441710090035435e-05 4.6054412423859144e-06 -1.2441710090035435e-05 0.0016532566024736468 -2.01722373640692e-06 4.6054412423859144e-06 -2.01722373640692e-06 -1.6413945129105618e-06" pbc="T T T"
C        0.00297635       0.01150326       3.68991605      -0.00108296      -0.00843758       0.00617856
C       -1.24709665       2.12461857       3.67827669       0.00515196       0.01103445      -0.00645784
C       -2.49054492       4.26671709       3.64443068      -0.00499780       0.00364602      -0.01690723
C       -3.71201378       6.41625052       3.62967909      -0.00328134       0.00823514      -0.00530838
C       -4.93250138       8.56381741       3.65722140       0.00551333      -0.01064759       0.01073426
C        2.47363434       0.03174373       3.71714665      -0.00705977       0.00073065      -0.00894335
C        1.23869958       2.16971706       3.82541001      -0.01045272       0.00247908      -0.00809152
C       -0.05647163       4.26925308       3.82135796       0.00980629      -0.00213212       0.00925256
C       -1.27420439       6.42073412       3.69039953       0.00993693      -0.01487146      -0.00063473
C       -2.47440805       8.56269780       3.65192958       0.00546943      -0.00339842       0.00701461
C        4.93732938       0.00498977       3.69092329       0.00059614      -0.00879006       0.00906163
C        3.73005112       2.16629062       3.83417559       0.00484838       0.00471388      -0.01547611
C        1.16429228       6.39515216       3.93972187       0.00534172       0.00675848       0.01318618
C       -0.00080967       8.53358327       3.71934230      -0.00940402       0.00685771       0.00049803
C        7.40819722      -0.02704086       3.68381861       0.00389232       0.00956567       0.00965740
C        6.17632967       2.12546817       3.69234811      -0.00454866       0.00650850      -0.00188213
C        4.96465479       4.26052641       3.85618430      -0.00414619       0.00661135      -0.01670708
N        3.78268547       6.42818314       3.97425658      -0.00210667      -0.01153315      -0.01108678
C        2.48173195       8.50419914       3.80553385      -0.00193762      -0.00701543       0.00339838
C        9.86789598      -0.02372343       3.68317899      -0.00458167       0.00732954       0.00309876
C        8.63226395       2.12046086       3.63765875       0.00602154      -0.00634321       0.00747412
C        7.39873773       4.26963369       3.65569550      -0.00260062      -0.00508838      -0.01828162
C        6.17373265       6.41779549       3.71171144      -0.00403334      -0.00261338      -0.00440353
C        4.94590361       8.53487852       3.72772560       0.00318366       0.00685399       0.01095429
C       -0.00106006       1.43266891       3.71904368      -0.00587332      -0.00504242       0.01238838
C       -1.27397067       3.54573163       3.68933525       0.00406739       0.01244960       0.00675211
C       -2.49058651       5.69944209       3.64427301      -0.00438108       0.00443773      -0.01445759
C       -3.70413068       7.84616095       3.63754680       0.00670293       0.00266688       0.00279006
C       -4.92790254       9.99365022       3.68350761      -0.00202794      -0.01349116       0.01426445
C        2.48190186       1.46234247       3.80482793      -0.00730680       0.00598611       0.01290450
C        1.16351401       3.57055337       3.94178916       0.00939076      -0.00092663       0.00622271
C       -0.05651087       5.69746185       3.82189785       0.01301783      -0.00887684       0.00374448
C       -1.24683176       7.84176653       3.67762763       0.00015671      -0.01160360       0.00504106
C       -2.46844021       9.99000252       3.68423662      -0.00390003      -0.00322360      -0.00678389
C        4.94579330       1.43182486       3.72721602       0.00402915      -0.00788517       0.00792429
N        3.78190748       3.53889153       3.97276867       0.00877669       0.00402195      -0.00651707
C        1.23898348       7.79619764       3.82464347      -0.01203117       0.00451410      -0.00276835
C        0.00273150       9.95490385       3.68829726       0.00413826       0.00843340       0.01590296
C        7.40407474       1.40277203       3.65859800      -0.00102868       0.00860945      -0.00139280
C        6.17379781       3.54871116       3.71194735      -0.00757378       0.00571523       0.00199632
C        4.96449600       5.70595228       3.85423074      -0.00051813      -0.00245084       0.00075758
C        3.73015125       7.80057118       3.83408432       0.00555478      -0.01017591      -0.00872087
C        2.47326086       9.93474511       3.71682908      -0.00084826      -0.00127349      -0.00619071
C        9.86183278       1.40366682       3.65122561       0.00889418       0.00453305       0.01103125
C        8.62430591       3.55033132       3.63068049      -0.00044984      -0.00977323      -0.00988834
C        7.39873707       5.69716856       3.65498164      -0.00115433      -0.00011617      -0.01445506
C        6.17623832       7.84098572       3.69309076       0.00056899      -0.00108691      -0.01114349
C        4.93752266       9.96158273       3.69258519      -0.00508872       0.00906916      -0.00061354
Nb       2.49651194       4.98301419       4.72141302      -0.01264395       0.00503560       0.00488309
