50
Lattice="12.336457 0.0 0.0 -6.168228499999997 10.683685154694365 0.0 0.0 0.0 15.0" Properties=species:S:1:pos:R:3:forces:R:3 energy=-450.38489370779627 free_energy=-450.38489370779627 stress="-0.0040865977769630945 0.0027038877227642 3.4046589493181674e-06 0.0027038877227642 -0.005031877336147923 6.883643593732578e-06 3.4046589493181674e-06 6.883643593732578e-06 4.936889122979671e-06" pbc="T T T"
C       -0.01802351      -0.00788753       3.80935499      -0.00235804      -0.00275187       0.00620210
C       -1.23948947       2.13727069       3.88712349       0.00352540      -0.00317539      -0.00228368
C       -2.46858579       4.26643019       3.87568360      -0.00073599       0.00471308      -0.00152102
C       -3.71528439       6.39728667       3.79019152      -0.00466012       0.00111271       0.00084646
C       -4.95612601       8.53506867       3.73994648      -0.00376058      -0.00045799       0.00087981
C        2.44235140      -0.01683617       3.78269920      -0.00164709       0.00355711      -0.00563347
C        1.22105875       2.12840020       3.87610819       0.00084750       0.00014903       0.00110944
C        0.00456731       4.29104309       3.99348503      -0.00505573       0.00388088      -0.01030019
C       -1.25333998       6.41388771       3.90415890      -0.00342310       0.00588795      -0.01254852
C       -2.49904875       8.53621789       3.79949214       0.01102352      -0.00474280      -0.00499922
C        4.91052143      -0.01706697       3.73812714      -0.00487487      -0.00222623       0.00915629
C        3.68881794       2.09009026       3.71476960       0.00939340      -0.00619546       0.00716029
C        2.48805339       4.20354928       3.93220594      -0.00424314      -0.00774599       0.00316742
N        1.14164417       6.47887703       4.04129568       0.00095744      -0.01953994      -0.00355602
C       -0.05249107       8.54333688       3.78744039       0.00690342       0.00435281       0.00644962
C        7.37761315      -0.00895666       3.75482194      -0.00107648      -0.01118301       0.00269059
C        6.16226817       2.10885093       3.69749303       0.00534653       0.00062441       0.00100766
C        4.93826079       4.20304591       3.53909961      -0.00401022       0.00472601       0.00516536
S        3.77875631       6.46541025       2.22558873       0.00763389       0.00672511       0.00269724
C        2.39679270       8.54863325       3.66923885       0.00120899       0.00059097       0.00113484
C        9.85014116      -0.00497932       3.78128517       0.00459678       0.01253155      -0.00859623
C        8.62930780       2.12560850       3.79747369      -0.00808569       0.00361907      -0.00217424
C        7.40394397       4.25165426       3.70523530      -0.00235813       0.00037471       0.00584424
C        6.17216261       6.40340434       3.58570680      -0.00203486      -0.00632723       0.00565301
C        4.92763991       8.54074973       3.64117308      -0.00185827      -0.00195196       0.00088367
C       -0.01060817       1.42027505       3.86876778       0.00222481      -0.00585421       0.00194272
C       -1.23063863       3.56675248       3.93137614       0.00052939      -0.00146101      -0.00347998
C       -2.47723792       5.68970594       3.86623847      -0.00381743       0.00532893      -0.00557583
C       -3.72867341       7.82056796       3.78099428       0.00256251       0.00177177      -0.00571369
C       -4.95923571       9.95703442       3.78300975      -0.00216213       0.00254456      -0.00581509
C        2.44781899       1.40426124       3.79194126       0.00356369       0.00488378       0.00815063
C        1.23288959       3.56385160       3.95717493       0.00746882       0.00746573      -0.00554624
C       -0.01100539       5.72826480       3.99478169      -0.00568359       0.00438679      -0.00057016
C       -1.27075892       7.82791130       3.83608037       0.01248089       0.00306183      -0.00588912
C       -2.49407334       9.95845933       3.76700594      -0.00281345      -0.00320849       0.00594535
C        4.92162077       1.39836230       3.70198220       0.00918929      -0.00353019      -0.00143142
C        3.70357598       3.51269147       3.70246607      -0.00201781      -0.00854709       0.00503804
C        1.15976267       7.83812884       3.80199023       0.00081944      -0.00180298       0.00539017
C       -0.02782118       9.96350113       3.75064533      -0.00471377      -0.00137179      -0.00608958
C        7.39184121       1.41010640       3.75219823      -0.00188648      -0.01048133       0.00294658
C        6.17823669       3.52531329       3.63605754      -0.00202692       0.00397401       0.00750094
C        4.96045238       5.63999935       3.33251558      -0.00747863       0.00972804      -0.00572353
C        3.65590061       7.85804485       3.42036393      -0.00211336      -0.00059951      -0.00685724
C        2.43770449       9.97027266       3.74126621       0.00674687       0.00117286      -0.00521412
C        9.86262804       1.41897876       3.83177847      -0.00260289       0.01131937       0.00281491
C        8.63571803       3.54900528       3.79803060      -0.00263320       0.00438651       0.00512792
C        7.39552341       5.68104822       3.70469801      -0.00150898      -0.00462613       0.00247978
C        6.14246441       7.81732989       3.63606123      -0.00440576      -0.00721006      -0.00034045
C        4.91702338       9.96378342       3.76349011      -0.00160023       0.00251317       0.00104948
Nb       3.15365922       6.07796690       4.49054641       0.00062438      -0.00039208       0.00142451
