49
Lattice="12.336457 0.0 0.0 -6.168228499999997 10.683685154694365 0.0 0.0 0.0 15.0" Properties=species:S:1:pos:R:3:forces:R:3 energy=-431.97979643755485 free_energy=-431.97979643755485 stress="-0.0066538520143279226 -0.00015652279889681765 2.1485011052741603e-05 -0.00015652279889681765 -0.0060669261577491985 -6.9832739697796655e-06 2.1485011052741603e-05 -6.9832739697796655e-06 4.729859922474781e-06" pbc="T T T"
C        0.02059810       0.00203591       3.83213858      -0.00272070       0.00049934      -0.00113615
C       -1.21382753       2.13670892       3.68747963      -0.00232502       0.00581590       0.00015452
C       -2.44970274       4.27438355       3.65593385       0.00177537       0.00749150       0.00963822
C       -3.67613921       6.41849439       3.69595533      -0.01460470       0.00204549      -0.00496613
C       -4.92106112       8.54413209       3.74171520       0.00534993      -0.00884926      -0.00021566
C        2.48289814      -0.04200736       4.03214018      -0.00076710      -0.00525570       0.01124940
C        1.26604600       2.11661613       3.88614640       0.00112051       0.01413772      -0.00443429
C       -0.03950475       4.31034630       3.27974034       0.00414351      -0.00984416       0.00916907
C       -1.24529774       6.43814941       3.66130804       0.00093286       0.00086510       0.00435745
C       -2.44536735       8.54377898       3.89615707      -0.00584706       0.00071354      -0.00493202
C        4.96636311      -0.01760863       4.06143679       0.00490186       0.00266752       0.00726036
C        3.71418107       2.05312945       4.16151324      -0.00926670       0.00306717      -0.01054844
C        1.21931307       6.41777447       3.87944559       0.00397601      -0.00748742       0.00775712
C        0.04021461       8.53755165       3.91351743       0.00099351      -0.00144545      -0.01141153
C        7.42693242       0.00539460       3.96340176      -0.00096604      -0.00044249      -0.00054695
C        6.19515081       2.14431045       3.98430201      -0.00020617      -0.00304811      -0.00548597
C        5.02661768       4.33402654       3.61926841       0.00451513       0.00044680      -0.00071985
S        3.64428547       6.42277082       2.53647372       0.01836091       0.00027536      -0.00243564
C        2.49550253       8.56730362       3.71424108      -0.00061163       0.00646341       0.01225644
C        9.89216501       0.01090206       3.80888218      -0.00163796       0.00031506       0.00890862
C        8.65728719       2.14084029       3.83356140      -0.00025279      -0.00673304       0.00323614
C        7.43776705       4.27796974       3.72617904       0.00080713       0.00483921       0.00786357
C        6.22398903       6.43433301       3.43708291      -0.00488933       0.00948645      -0.00140428
C        4.96103316       8.56690535       3.55152302       0.00231736      -0.00367982      -0.01191861
C        0.01123766       1.42474718       3.79836656      -0.00171302       0.00999855      -0.00241842
C       -1.23099552       3.55375736       3.55000234       0.00453923       0.00558564       0.01042436
C       -2.45361382       5.70416534       3.66965061      -0.00847341       0.00988317       0.00914569
C       -3.67944649       7.83768067       3.77595320      -0.00119369      -0.00664829       0.00153918
C       -4.92234500       9.95664261       3.88249459       0.00133780      -0.00968386      -0.00844644
C        2.49142882       1.36297846       4.07701707      -0.00603385      -0.00219311       0.00451835
P        1.49932695       3.48558816       2.67320545       0.01009755      -0.01270333       0.00178032
C       -0.01589336       5.74565875       3.56322054       0.00428157      -0.00960199      -0.00605785
C       -1.21199764       7.84117440       3.84298954      -0.00547382       0.00380072      -0.00125619
C       -2.44008818       9.95301783       4.02265144       0.00443207       0.00047845       0.00032024
C        4.97367520       1.40978771       4.09703563      -0.00350991       0.00549235       0.00627896
P        3.49122485       3.77539941       4.16636320      -0.00314202       0.00178031      -0.00292102
C        1.27682822       7.81932272       3.83544883       0.00270037      -0.00470222      -0.01234410
C        0.03243833       9.96199014       3.99555147       0.00289147      -0.00098718      -0.00657109
C        7.42385699       1.43230680       3.94727137      -0.00149689      -0.00624761       0.00098459
C        6.20970728       3.56636957       3.80621221       0.00422069      -0.00399147      -0.01661951
C        5.05791864       5.69041068       3.22965035       0.00893178      -0.00334781      -0.00475890
C        3.71363560       7.93431175       3.35764326      -0.00398708      -0.00317286       0.01523936
C        2.49248446       9.98330737       3.85477688      -0.00171786       0.00918532       0.00464196
C        9.88899982       1.43244306       3.79125003      -0.00001931      -0.00065440      -0.00201027
C        8.66290691       3.56310918       3.75415709       0.00347452      -0.00114321       0.00815574
C        7.44092335       5.70326745       3.62455283      -0.01545357       0.00819012      -0.00438192
C        6.19452276       7.85041318       3.53309155       0.00354750       0.00337457      -0.00879116
C        4.95750556       9.98421556       3.74910347      -0.00389814      -0.00327059      -0.00715295
Nb       1.33370791       4.56824205       4.79751687       0.00055915      -0.00176539      -0.00099432
