49
Lattice="12.336457 0.0 0.0 -6.168228499999997 10.683685154694365 0.0 0.0 0.0 15.0" Properties=species:S:1:pos:R:3:forces:R:3 energy=-433.18403099655814 free_energy=-433.18403099655814 stress="-0.003116944793169651 -0.0022307005922006747 1.2023862014162309e-05 -0.0022307005922006747 -0.005458702535268622 -4.117886176313192e-06 1.2023862014162309e-05 -4.117886176313192e-06 2.3668138180091245e-05" pbc="T T T"
C       -0.01325431       0.00982624       3.82228523      -0.00212080       0.00337882      -0.00769884
C       -1.27633435       2.13190795       3.62343027      -0.00424023       0.00976154      -0.00298515
C       -2.50990366       4.28238519       3.79816175       0.00615423       0.00588184       0.00108201
C       -3.69448979       6.42921167       4.01185765       0.00209350       0.00157483      -0.00372766
C       -4.92410275       8.57294631       4.01049080      -0.00282539      -0.00564075       0.00731925
C        2.45804947      -0.01085758       3.72226061       0.01221513      -0.00818575       0.00581445
C        1.19322352       2.02638609       3.19992609      -0.00169697      -0.00096312       0.00117588
C       -0.19519421       4.28633163       3.08326801      -0.01014658      -0.00624944       0.00444322
C       -1.27170327       6.42468905       3.57710915       0.00227644       0.00517384       0.00538804
C       -2.45701891       8.55234287       3.82029602      -0.00050103       0.00704864       0.00083405
C        4.92128986       0.02001685       3.78584531       0.00246081       0.00141262      -0.00256114
C        3.69722356       2.06981829       3.32800169      -0.00098306       0.00154604      -0.00390473
S        1.38464449       6.37189395       2.75397239       0.01056170      -0.00328216       0.01416475
C        0.00329085       8.55931257       3.67172285      -0.00296485       0.00170967       0.00616642
C        7.37913531       0.02442675       3.93291310      -0.00826241       0.00004015      -0.00831290
C        6.13001320       2.16337696       3.99699976      -0.00153553      -0.00253091      -0.00897901
C        4.98794011       4.36115027       4.30244921      -0.00778310       0.00424041      -0.00436035
C        3.76226621       6.48244468       4.11160088       0.00180705      -0.01237556      -0.00453043
C        2.46092614       8.58355353       3.86510742       0.01128367       0.00245096      -0.00187068
C        9.85389730       0.02214173       3.95967925      -0.00058767       0.00848599       0.00237544
C        8.60532311       2.15558136       3.97924670       0.00559893       0.00318515      -0.00079654
C        7.38808950       4.29411968       4.16144015      -0.00572027      -0.00114887      -0.01478213
C        6.22300180       6.47277508       4.23051856      -0.00219774      -0.00414164       0.00669812
C        4.93067858       8.57756855       4.07167272       0.00098789      -0.00587054       0.00464958
C       -0.03592419       1.41332848       3.54942299      -0.00743468       0.00880550      -0.00449124
C       -1.32186318       3.54655813       3.50322860      -0.00392406       0.00537079       0.01324758
C       -2.48806709       5.70734497       3.81363495       0.00836280       0.00339294      -0.00744122
C       -3.69300182       7.85166995       3.96025388       0.00125207       0.00123171       0.00380399
C       -4.94211694       9.98390635       3.85864280       0.00428151      -0.00411714      -0.00095338
C        2.43749244       1.38702315       3.44416445       0.00051803      -0.01121150      -0.00299266
S        1.17004848       3.53406811       2.30006173       0.00712880       0.00112527       0.00103342
C       -0.14408440       5.66880542       3.18378174      -0.00603173      -0.00647626       0.01480211
C       -1.23115332       7.84363653       3.67514435      -0.00485798       0.00936579       0.00112364
C       -2.47146577       9.98031106       3.77483468       0.01214000       0.00113711       0.00733613
C        4.91831240       1.44229096       3.75409861       0.00090610      -0.00501284      -0.00964614
O        3.75405298       3.16827220       2.56958485       0.00382497      -0.00785622       0.00413863
C        1.26031342       7.91528122       3.53028320       0.00794971      -0.00132858       0.00427812
C       -0.00861868       9.98841652       3.82945841      -0.00759560      -0.00256052       0.00032005
C        7.36381642       1.45237034       4.00204928       0.00170341       0.00060246      -0.01184828
C        6.14560179       3.58297000       4.19798612      -0.01117408      -0.00148216       0.00474715
C        4.98928398       5.76752812       4.22074659       0.00103269      -0.00514102       0.00061639
C        3.69205225       7.86978283       4.02203473       0.00676947      -0.01061476       0.00695990
C        2.44942757      10.00195549       3.96117318      -0.00195759       0.00669057      -0.01070773
C        9.84664588       1.44286588       3.87433020       0.00447663       0.00836913       0.00200201
C        8.60440172       3.57805120       4.00365072       0.00222977       0.00288824      -0.01800745
C        7.41592815       5.72479406       4.16953930      -0.00219659       0.00087120      -0.00441421
C        6.18216046       7.87667030       4.12806385      -0.00324359      -0.00558653       0.00759489
C        4.92314889       9.99255654       3.96882018      -0.00295666      -0.00054803      -0.00027062
Nb       3.02401012       4.59474159       3.83947462      -0.01507715       0.00658307       0.00316725
