49
Lattice="12.336457 0.0 0.0 -6.168228499999997 10.683685154694365 0.0 0.0 0.0 15.0" Properties=species:S:1:pos:R:3:forces:R:3 energy=-432.60117605885665 free_energy=-432.60117605885665 stress="-0.0035898207276594553 -0.0008219580449205172 7.558996341724679e-07 -0.0008219580449205172 -0.0034849227051398104 -6.4750642644780095e-06 7.558996341724679e-07 -6.4750642644780095e-06 -4.828075086373591e-07" pbc="T T T"
C        0.00916982      -0.01738802       3.78612101      -0.00136374       0.00143542      -0.00231581
C       -1.22587026       2.12931544       3.72224200      -0.00610858      -0.00388579      -0.00049892
C       -2.45489767       4.26416099       3.93292140       0.00277333       0.00229825      -0.00045166
C       -3.68448324       6.41003845       4.03018037       0.00446713       0.00809892      -0.01097672
C       -4.91899509       8.54494801       3.97546248      -0.00185841      -0.00784680       0.00065655
C        2.47997236      -0.02857535       3.65897691      -0.00274093       0.00018826      -0.00559343
C        1.21823573       2.02617017       3.22509871       0.00507843       0.00159177      -0.00177587
C       -0.02520805       4.28960152       3.57283995       0.00081997       0.01031274      -0.00089410
C       -1.25332583       6.42970315       3.88165820       0.00114357       0.00107292       0.00815862
C       -2.45285874       8.55117644       3.89457488       0.00574080      -0.00542350       0.00012553
C        4.94558743       0.00447304       3.70231285      -0.00127740       0.00587079       0.00196936
C        3.71148323       2.06272012       3.23851581       0.00699819       0.00167739       0.00119513
C        1.19142495       6.48263674       3.69173734      -0.00881058       0.00267489       0.00238004
C        0.01769742       8.56142341       3.82024641       0.00063817      -0.00139262       0.00640519
C        7.41804726       0.00125203       3.81217392       0.00541057      -0.00611891      -0.00294650
C        6.17290499       2.15344825       3.68479138       0.00906809       0.00099803       0.00295071
C        5.00565676       4.36739686       3.66254460      -0.01192757       0.00442796      -0.00254681
O        3.77657074       6.43160938       3.96381631       0.00694991      -0.00780115      -0.00607633
C        2.51077309       8.53437779       3.87269336       0.00030578       0.00378928       0.00083261
C        9.88262814      -0.01035464       3.86950483       0.00514859       0.00245679      -0.00279541
C        8.64429087       2.13670836       3.86958951      -0.00152539      -0.00538004       0.00279125
C        7.41501848       4.27771665       3.95888843      -0.01135696       0.00187701       0.01137231
C        6.19923881       6.43054909       4.07219012       0.00283862       0.00285587      -0.00776861
C        4.94885430       8.52999078       3.97920603      -0.01046364      -0.00323283       0.00215565
C        0.00270832       1.39862921       3.58956334      -0.00270205       0.00193090       0.00121367
C       -1.24497755       3.53476018       3.78332131       0.00384307      -0.00249377      -0.00254616
C       -2.45786864       5.69723959       3.96468889       0.00238317       0.00870427      -0.00671919
C       -3.68095951       7.83545205       3.98534938       0.00431081      -0.00052269      -0.00252070
C       -4.91925974       9.96219043       3.81576305      -0.00341379      -0.00915648      -0.00453474
C        2.47843631       1.37242014       3.33626519       0.00291504       0.00936340      -0.00438171
S        1.03467273       3.51844991       2.27297051      -0.00766764      -0.01452239      -0.00622220
C       -0.01390544       5.73555150       3.74192390      -0.00698610       0.00296468       0.00379538
C       -1.22185774       7.84571501       3.87647207       0.00383230      -0.00501463      -0.00080433
C       -2.45177113       9.96837214       3.76054767      -0.00061209      -0.00292769      -0.00647105
C        4.94470291       1.42986409       3.54298388       0.00825945       0.00991152       0.00215895
S        3.72853956       3.70910873       2.64200365       0.00527718      -0.00096970       0.00980504
C        1.25525496       7.86577424       3.78886635       0.00232425      -0.00066848       0.00212099
C        0.01338440       9.98125002       3.79056530      -0.00149262       0.00069260       0.00083738
C        7.40160175       1.43212642       3.80026872       0.00647251      -0.01008655       0.00543218
C        6.18731479       3.57695277       3.78536665      -0.01130887      -0.00244198      -0.00205568
C        4.99711399       5.74204014       3.93555461       0.00780949      -0.00293074       0.00270177
C        3.73974331       7.83576207       3.94411470      -0.00418483      -0.00750041      -0.00064301
C        2.48974879       9.96145371       3.86727037       0.00916545       0.00559880      -0.00608738
C        9.88149186       1.42175714       3.83824616      -0.00495587      -0.00383549      -0.00398630
C        8.64814766       3.55691597       3.94029541      -0.00320877      -0.00016918       0.00019757
C        7.42235505       5.69670277       4.04535050       0.00311790       0.00779115       0.00791775
C        6.19413094       7.84427105       4.04228004      -0.00727467       0.00194230       0.00533661
C        4.94040689       9.95714755       3.89489411      -0.00164156       0.00137706       0.00422343
Nb       1.97632334       4.73554361       4.09150699      -0.00420971       0.00241887       0.00487895
