49
Lattice="12.336457 0.0 0.0 -6.168228499999997 10.683685154694365 0.0 0.0 0.0 15.0" Properties=species:S:1:pos:R:3:forces:R:3 energy=-433.3505065605534 free_energy=-433.3505065605534 stress="-0.0021418472090182113 -0.003208655157259335 -5.516280220404015e-06 -0.003208655157259335 -0.004562189714898354 -3.6981291421390794e-07 -5.516280220404015e-06 -3.6981291421390794e-07 2.010967064019264e-06" pbc="T T T"
C       -0.01739170      -0.01661265       3.85263842       0.00512602      -0.01028440       0.00183367
C       -1.27051605       2.11683502       4.04596869       0.00026620       0.00235222      -0.00040164
C       -2.50857161       4.25742366       3.92131846       0.00047199      -0.00446189      -0.00675479
C       -3.70147958       6.39425435       3.73331327      -0.00263451       0.00176589      -0.00011377
C       -4.93459723       8.53644534       3.70374197       0.00298613      -0.00533009      -0.00652125
C        2.46076413      -0.05221945       3.75396563       0.00356591       0.00152854       0.00769772
C        1.23574871       2.03259133       4.14225248      -0.00909720       0.00647960       0.00418091
C       -0.11267847       4.30567312       4.32258011       0.00744516      -0.00081514       0.00333422
C       -1.25335701       6.39874494       3.89681004       0.00067756       0.00038869       0.00078447
C       -2.46456139       8.51705647       3.71681451      -0.00197682       0.00552694      -0.00237400
C        4.92716354      -0.03259440       3.62140656       0.00232904      -0.00098655      -0.01692577
C        3.63970723       2.04112917       3.44255798       0.00597399      -0.00034963       0.01693947
C        1.23457048       6.37842730       4.08075844       0.00469570      -0.01134048       0.01336995
C        0.00975569       8.50706069       3.74320224      -0.00698849       0.00842266       0.00105085
C        7.38599296      -0.01910615       3.65766600      -0.00299604       0.00814852      -0.00221266
C        6.12943388       2.13981058       3.53919539      -0.00585222      -0.00340556      -0.00608704
C        4.90018674       4.35917409       3.39428279       0.01495673      -0.00748712       0.00124222
O        3.82485782       6.56620001       2.96037971      -0.00160753       0.01552784      -0.00249779
C        2.46878371       8.51317954       3.66576610      -0.00125685      -0.00537233      -0.00157395
C        9.84461857      -0.01230582       3.76574993       0.00052036       0.00351224       0.00292015
C        8.60095589       2.12614154       3.77012829      -0.00679675      -0.00289283       0.00057091
C        7.36436764       4.26519772       3.65965111      -0.00439767      -0.00211405      -0.00361084
C        6.20702370       6.44637324       3.54095308       0.00337605       0.00681596       0.00164332
C        4.93934412       8.55766317       3.64908284       0.00082358      -0.00134585       0.00560743
C       -0.02457077       1.39815248       4.03956887      -0.00174972      -0.00420225      -0.00486171
C       -1.29204516       3.54128123       4.11467618       0.00665656       0.00356663      -0.00919425
C       -2.47760134       5.68210875       3.85381698      -0.00205826      -0.00116708      -0.00491431
C       -3.69772061       7.81593865       3.71305740       0.00163952       0.00068395      -0.00091355
C       -4.94793852       9.95101038       3.78059419       0.00782198      -0.00902078       0.00031880
C        2.44827252       1.36159235       3.79906326      -0.00183853       0.00064291       0.00354237
P        1.37076926       3.59949282       4.90848618       0.00607648      -0.00285489      -0.00406820
C       -0.02212027       5.69705433       4.10754208       0.00813347       0.00026107       0.00402722
C       -1.23109104       7.80740073       3.77294884      -0.00530022       0.00440388      -0.00081290
C       -2.46840875       9.93433800       3.68045690       0.00264529       0.00465373      -0.00282882
C        4.90200379       1.40101633       3.51303231       0.00233065      -0.00644204       0.00148188
S        3.44680416       3.62883308       2.69642894      -0.00636175      -0.00940338      -0.00011106
C        1.25077452       7.77307137       3.81651248      -0.00863650       0.00304440       0.00371556
C       -0.00335887       9.93240755       3.65716744      -0.00055068       0.00918272      -0.00069080
C        7.36542807       1.41770322       3.64791018      -0.01045329       0.00436904       0.00017159
C        6.13281019       3.56213271       3.53820295      -0.00088016      -0.00446855      -0.00049396
C        4.99545890       5.79383366       3.36292480       0.00632019      -0.00160264       0.00408494
C        3.72152303       7.87602287       3.58464732       0.00144325      -0.00636343      -0.00676376
C        2.45404245       9.95180865       3.68456350      -0.00263227       0.00048457       0.00778252
C        9.84002449       1.41430517       3.86547708      -0.00089521       0.00451434      -0.00520954
C        8.59981767       3.54928683       3.78786902      -0.00395446      -0.00582282      -0.00484347
C        7.40572875       5.68973203       3.65038341      -0.00445757       0.00222432       0.00042016
C        6.18038444       7.85389229       3.62378107       0.00084223       0.00465724      -0.00324719
C        4.91663258       9.97295390       3.76432219       0.00074107      -0.00304919       0.01403078
Nb       3.10165203       5.24663694       4.41110194      -0.00449239       0.00742503      -0.00272411
