49
Lattice="12.336457 0.0 0.0 -6.168228499999997 10.683685154694365 0.0 0.0 0.0 15.0" Properties=species:S:1:pos:R:3:forces:R:3 energy=-432.44446969610385 free_energy=-432.44446969610385 stress="-0.004711251637238775 -0.002574894168441175 9.066772838518643e-06 -0.002574894168441175 -0.008360650649041965 9.103428899108182e-06 9.066772838518643e-06 9.103428899108182e-06 2.185001956506886e-06" pbc="T T T"
C       -0.02203022      -0.00202886       3.67666720       0.00918636       0.00041777       0.00654265
C       -1.28435416       2.11947563       3.94752388       0.00274104       0.00348663       0.00566553
C       -2.51666319       4.27204934       3.88119963      -0.00737901      -0.00285812       0.00271893
C       -3.70033646       6.41566989       3.64772686      -0.00052104      -0.00346239       0.00346226
C       -4.93110519       8.55487349       3.54590046      -0.00808404       0.00379203      -0.00194503
C        2.45311738      -0.03135806       3.74323697      -0.00427248       0.00585447       0.00014295
C        1.20275701       2.02125866       4.19839166      -0.00847773      -0.00200297       0.00746355
C       -0.18486062       4.25082840       4.55858193      -0.01219924       0.01113800      -0.00060266
C       -1.28076209       6.41583154       4.09690010       0.00824166      -0.00364115      -0.01384905
C       -2.46474617       8.53800991       3.77250167      -0.00266179       0.00128509      -0.00590105
C        4.91856711       0.00367262       3.70265813      -0.00489688      -0.01120143      -0.00198452
C        3.64561271       2.09128529       3.62343114       0.01111691      -0.01497849       0.00647636
P        1.46619823       6.31747414       4.67279271      -0.00666264       0.00775508      -0.00706918
C       -0.00643380       8.56196581       3.93432729       0.00473859       0.00318541       0.00469827
C        7.37405407       0.01960586       3.62734665       0.00018631       0.01263031       0.00314595
C        6.13078817       2.15045062       3.47241509       0.00069096       0.00544048      -0.00581011
C        4.96164968       4.31803103       3.13547529       0.01432939       0.00449568       0.00384907
C        3.76124746       6.47991923       3.49435772      -0.00664607      -0.01178450       0.00858862
C        2.46237066       8.59834299       3.69228128       0.00525337      -0.00738082       0.01318702
C        9.84932559       0.02165206       3.57481582       0.00638143       0.00480798       0.00930262
C        8.60346926       2.14804930       3.62280831       0.00307819       0.00554435      -0.00042690
C        7.38802748       4.28528171       3.48733025      -0.00038934      -0.00553529      -0.01729281
C        6.21268106       6.45533922       3.33108773      -0.00024673      -0.00373189       0.00573788
C        4.93003673       8.57734889       3.43428833       0.00352205       0.00922184      -0.00045286
C       -0.04436519       1.39678187       3.94709291      -0.00185528      -0.00256375       0.00612433
C       -1.32442473       3.53091761       4.13896752      -0.00468133       0.00780690       0.00855819
C       -2.49641112       5.69933977       3.87740084       0.00507455      -0.00563146      -0.01007086
C       -3.69839198       7.83750336       3.64822021      -0.00607781       0.00154709      -0.00410144
C       -4.95138730       9.96485410       3.65227084       0.00249042       0.00262437       0.00608578
C        2.42831451       1.37605710       3.87980360      -0.00279672       0.00412374       0.00578651
P        1.24998283       3.45278932       5.22729754       0.00182753      -0.01711947      -0.00128796
C       -0.13275471       5.65828049       4.45963538      -0.00993886      -0.00316983      -0.00589141
C       -1.24007433       7.83389478       3.95155146       0.00487449       0.00090781      -0.00981038
C       -2.47334000       9.95953356       3.72853266      -0.01026750      -0.00065955       0.00160613
C        4.90535648       1.43206382       3.58970423       0.00711698      -0.01349456       0.00946759
S        3.46806533       3.52509257       2.58252282      -0.01285183      -0.00147615      -0.00992688
C        1.26039096       7.92490860       4.04312153      -0.00243934      -0.00946110      -0.00791735
C       -0.01589029       9.98131615       3.73994074       0.00034603       0.00524354       0.00228131
C        7.36678379       1.44192412       3.55286136      -0.00029507       0.01615651       0.00634496
C        6.16017528       3.56463363       3.35312359       0.00103046       0.00352507      -0.00988291
C        4.96689836       5.76389326       3.29591221       0.00230333      -0.00017826      -0.01728412
C        3.69182810       7.88160724       3.50652225       0.00734299      -0.00109483       0.00036886
C        2.44694675      10.00595517       3.59366770       0.00223668      -0.00069768      -0.00062142
C        9.83896267       1.43425457       3.69620781       0.00552918       0.00469979       0.00205937
C        8.60552582       3.56959488       3.65333829      -0.00779246      -0.00305224       0.00199425
C        7.41145924       5.71537251       3.46553341       0.00121205      -0.00740659      -0.00241373
C        6.17524058       7.86536078       3.40980403      -0.00485907       0.00132163       0.00611122
C        4.91828703       9.99044167       3.53886680       0.01013025       0.00862851       0.00318912
Nb       3.39160453       4.78914949       4.54877374       0.00531106      -0.00305756      -0.00641663
