49
Lattice="12.336457 0.0 0.0 -6.168228499999997 10.683685154694365 0.0 0.0 0.0 15.0" Properties=species:S:1:pos:R:3:forces:R:3 energy=-432.707699910776 free_energy=-432.707699910776 stress="-0.006847011453451882 -0.003735623329662771 4.758062748151153e-06 -0.003735623329662771 -0.007297734689802495 7.219265993553722e-07 4.758062748151153e-06 7.219265993553722e-07 -5.935455463297195e-07" pbc="T T T"
C       -0.01124691       0.00743904       3.91807842       0.00879667       0.00192149      -0.00469349
C       -1.27860427       2.12097277       4.00590501      -0.00928858       0.00406199      -0.00110706
C       -2.50297035       4.27497500       4.00273740       0.00118958       0.00232027       0.00546961
C       -3.70114795       6.42034315       3.90595984      -0.00443600       0.00517180      -0.00389859
C       -4.92808767       8.56478820       3.88567778       0.00280895      -0.00160041       0.00226954
C        2.44788416       0.00642448       3.75647017      -0.00180642      -0.00164862       0.00742925
C        1.16426415       2.09050054       3.72537214      -0.00454659       0.00791721       0.00483041
C       -0.10398868       4.22359041       3.85510662       0.01291681       0.00086890       0.00407762
C       -1.24788148       6.39595190       3.79626306       0.00264999      -0.00163230      -0.00877759
C       -2.45894231       8.54400926       3.80168581       0.00257113      -0.00188381       0.00102066
C        4.91434217       0.00895546       3.73210871      -0.00638000       0.00240735       0.00732000
C        3.66932462       2.10302010       3.38125114       0.00745348      -0.00686371      -0.00005027
S        1.34724628       6.26345201       2.96142383       0.00497245      -0.00179569       0.00412083
C       -0.00126749       8.54469951       3.68082907       0.00024687      -0.00394505      -0.00404429
C        7.37372549       0.01702302       3.84255828      -0.00812032       0.00289361       0.00337646
C        6.13905400       2.15567670       3.69291757       0.01074179      -0.00559952       0.00170115
C        4.99205965       4.32964944       3.35558806       0.00935437       0.00635439       0.00615106
C        3.77963861       6.51510509       3.80071612      -0.00734930      -0.00428693      -0.01707019
C        2.45970527       8.58679138       3.76864783       0.00341593       0.00088512      -0.00871072
C        9.84615691       0.01185976       3.96490317      -0.00116675      -0.00357509       0.00486367
C        8.59662952       2.14566803       3.96277825      -0.00138487      -0.00381730       0.00170300
C        7.38455376       4.28550537       3.85627495      -0.01374077      -0.01266964       0.00113528
C        6.20767387       6.45250439       3.78172513      -0.00026099       0.00098185       0.00327103
C        4.93664018       8.57826569       3.89556761       0.00121392      -0.00136126      -0.00200789
C       -0.03682194       1.42575760       3.90391698      -0.00405255       0.00642268      -0.00513392
C       -1.29171703       3.53160406       4.01659114       0.01135353       0.00583546       0.00212226
C       -2.47887563       5.69397625       3.92945601      -0.00046486       0.00739826      -0.00158271
C       -3.69689733       7.84371520       3.86871321       0.00186699       0.00277343       0.00029253
C       -4.94212909       9.98834637       3.86469714       0.00532514      -0.00641336       0.00024748
C        2.41110500       1.43898984       3.60801437      -0.00669939       0.00030859      -0.01163934
O        1.08335185       3.49370277       3.63974320      -0.00623543       0.01025096       0.01300388
C       -0.08006999       5.59664689       3.65655017      -0.00000345      -0.00292443       0.00341967
C       -1.22867870       7.82197471       3.73603932       0.00338428      -0.00361891      -0.00279037
C       -2.48162780       9.97686482       3.75581238      -0.00406544      -0.00188572       0.00839044
C        4.90503273       1.43681533       3.62126167       0.01079438       0.00247198      -0.01097708
S        3.84477516       3.49263214       2.21378471      -0.00260501       0.00372894      -0.00405961
C        1.25161826       7.89727020       3.53711341       0.00522333       0.00258971      -0.00279684
C       -0.01533593       9.97964899       3.76462089      -0.00920118      -0.00054406       0.00792654
C        7.36379106       1.44288693       3.85541809       0.00427881      -0.00124252       0.00277191
C        6.17660502       3.56518872       3.66598031      -0.00718041      -0.01035840      -0.00005565
C        4.97170602       5.76170250       3.63231500       0.00424722       0.00171579       0.00150511
C        3.70243973       7.89619663       3.82151161       0.00105557      -0.00698520      -0.00166542
C        2.44308011      10.00068202       3.88775157      -0.00533568       0.00257530       0.00394521
C        9.83627575       1.42931179       4.00543255      -0.00671915      -0.00266632       0.00097965
C        8.60200388       3.56672613       3.97024845      -0.00482162      -0.00458256      -0.00394303
C        7.40697882       5.71575704       3.85606309      -0.00565915      -0.00527134      -0.00065598
C        6.17758840       7.86340371       3.87502349       0.00121282       0.00319601      -0.00183942
C        4.92216273       9.99143573       3.94749806       0.00610205       0.00229917      -0.00041137
Nb       3.00627070       4.68014206       3.99061681      -0.00165216       0.00982188      -0.00543343
