49
Lattice="12.336457 0.0 0.0 -6.168228499999997 10.683685154694365 0.0 0.0 0.0 15.0" Properties=species:S:1:pos:R:3:forces:R:3 energy=-446.049174625334 free_energy=-446.049174625334 stress="-0.005056428344520433 -0.0011130115445403415 -8.111478170230318e-07 -0.0011130115445403415 0.001984335578793639 -1.132242616927046e-06 -8.111478170230318e-07 -1.132242616927046e-06 -1.3119859790504004e-07" pbc="T T T"
C       -0.00065300       0.00869459       3.68803972       0.00209373      -0.00375369       0.00142868
C       -1.24723716       2.12229686       3.67580398      -0.00791574      -0.00474976       0.00124387
C       -2.47719849       4.26438932       3.64575925      -0.00429966       0.00081389      -0.00856796
C       -3.70101011       6.41619813       3.63245321      -0.00368385       0.00544592      -0.01124086
C       -4.92819340       8.56358221       3.65507718       0.00938620      -0.00343904       0.00309328
C        2.46270603       0.03254860       3.71450411      -0.00334209      -0.00455023       0.00388749
C        1.20418209       2.17283564       3.82007506       0.00850211       0.00341116       0.00220670
C       -0.04166570       4.23868915       3.82464857       0.00308052      -0.00244532      -0.00214559
C       -1.25904685       6.40915325       3.69713415      -0.00101860      -0.00026384       0.00052694
C       -2.46998715       8.56251603       3.65426520      -0.00103356      -0.00298088       0.00913649
C        4.93396507       0.00786185       3.69371678      -0.00538674      -0.00383131       0.00785150
C        3.69659427       2.16608512       3.83692088      -0.00321368       0.00026679      -0.00650333
C        1.16856810       6.39652966       3.95771586       0.00893560      -0.00114316       0.00316631
C       -0.00213391       8.53662597       3.72378251       0.00116642      -0.00172970       0.00036141
C        7.40583404      -0.02464235       3.68541346       0.00719924       0.01042922       0.00654147
C        6.17500851       2.13005882       3.69353836       0.00267698       0.00126911       0.00947044
C        4.96858218       4.28989092       3.85340299      -0.00932405       0.00336732      -0.01260618
N        3.78574059       6.41929983       3.95614049      -0.00400742      -0.00088903      -0.00114224
C        2.48143512       8.50302628       3.80279509      -0.00374485      -0.00211463       0.00198332
C        9.86569937      -0.02592742       3.68067029      -0.00241654       0.00957966       0.00464659
C        8.63217352       2.12037424       3.64029044      -0.00345966       0.00100186       0.00032439
C        7.41043051       4.27159579       3.65765015       0.01230256      -0.00525084      -0.01377478
C        6.18700833       6.42798407       3.70385187       0.00056432       0.00004651      -0.00020937
C        4.94539123       8.53158246       3.72137155      -0.00149868      -0.00221530       0.00177805
C       -0.01138384       1.43512238       3.71489285       0.00272105      -0.00296232       0.00129139
C       -1.25280389       3.53857997       3.68935544      -0.00515623      -0.00216408      -0.00131316
C       -2.47689824       5.69476243       3.64684243      -0.00624863       0.00579605      -0.00985444
C       -3.69848861       7.84608298       3.63877944       0.00588842      -0.00268786       0.00240070
C       -4.93174270       9.99246514       3.68170783       0.00480952      -0.01019478       0.00534520
C        2.45253431       1.46357351       3.80392520       0.00181726      -0.00176839       0.00002674
N        1.14782890       3.54749532       3.94771156       0.00612347       0.00184325      -0.00223077
C       -0.03432726       5.67650016       3.83543462       0.00779567       0.00006259      -0.00281665
C       -1.24115847       7.83626399       3.68259311      -0.00113514       0.00042209       0.00720850
C       -2.47192709       9.99094262       3.68422304      -0.00790289      -0.00521035       0.00275473
C        4.93600920       1.42974977       3.73148331      -0.00216283       0.00150014       0.00061113
C        3.76518548       3.56958399       3.96861122      -0.01184939       0.00069570       0.00818815
C        1.23728994       7.80037538       3.82959355       0.00210270      -0.00366731      -0.00345998
C       -0.00011175       9.95862127       3.69206795       0.00421019       0.00221406       0.00977552
C        7.40378787       1.40384426       3.66088879       0.00232579       0.00580236      -0.00007833
C        6.19291856       3.55714333       3.71321054       0.00612383       0.00120276      -0.00080667
C        4.97594260       5.72786438       3.84083134      -0.00600230       0.00401986      -0.00176948
C        3.72966395       7.79376895       3.82507194      -0.00548440      -0.00535481       0.00113874
C        2.47129930       9.93394904       3.71432787       0.00416247       0.00571724       0.00298286
C        9.86211107       1.40281208       3.65056766      -0.01081374       0.00793994       0.00730275
C        8.63453013       3.55026286       3.63322463       0.00662601      -0.00736093      -0.01096847
C        7.41103374       5.70202377       3.65600012      -0.00103748      -0.00144404      -0.01534032
C        6.18132201       7.84424602       3.68590764       0.00416836       0.00315108      -0.00335875
C        4.93473148       9.95786585       3.68907990      -0.00535924       0.00360437       0.00203660
Nb       2.46385343       4.98340064       4.72336643       0.00271491       0.00256866      -0.00052258
