49
Lattice="12.336457 0.0 0.0 -6.168228499999997 10.683685154694365 0.0 0.0 0.0 15.0" Properties=species:S:1:pos:R:3:forces:R:3 energy=-429.1694663815825 free_energy=-429.1694663815825 stress="-0.006580954513058515 0.004474848370524771 -8.393358008639616e-06 0.004474848370524771 -0.00845375142711032 -8.96288486200693e-06 -8.393358008639616e-06 -8.96288486200693e-06 3.7353773607675705e-06" pbc="T T T"
C       -0.01280921      -0.01813637       3.93709019       0.00270858       0.00054446       0.00035460
C       -1.22591457       2.13085440       4.04827881       0.00157151       0.00075024      -0.00758916
C       -2.50136081       4.25353934       4.04387256       0.00241902      -0.00367319       0.00310985
C       -3.74725016       6.38351856       4.05858859       0.00259332       0.01027717       0.00299629
C       -4.98184621       8.51497113       3.98385565      -0.00390847      -0.00522285       0.00418646
C        2.44910316      -0.05631481       3.87874072       0.00138437      -0.00267104       0.00871975
C        1.26978788       2.07295617       3.95332899       0.00127418      -0.01191079      -0.00697915
C       -0.09616966       4.33764664       3.80908159       0.00772781       0.00096137       0.00377588
C       -1.33833415       6.40458524       3.66750587      -0.00159201      -0.00947776       0.00152799
C       -2.50785805       8.50995111       3.89932408       0.00125738      -0.00122184      -0.00623809
C        4.92125707      -0.05526210       3.90670808       0.00055589       0.00003229       0.00248771
C        3.71875038       1.99700217       3.47340839      -0.00116861       0.01100279      -0.00950392
P        1.00281467       6.41598837       2.24439945      -0.00424590      -0.00528141       0.01107593
C       -0.04232276       8.53534566       3.61014223      -0.00302334      -0.00208850       0.00124371
C        7.39248811      -0.03374451       3.91709735      -0.00216747       0.01348604      -0.00801724
C        6.17704586       2.07932913       3.90602499      -0.00619800      -0.00346209       0.00670444
C        4.97646953       4.23169389       3.66040044       0.00448571       0.00330847       0.00822882
O        3.73196397       6.97235339       2.26446135      -0.00074364       0.00780396      -0.00330704
C        2.43090047       8.58957860       3.43322388      -0.00332528      -0.00353394      -0.00409824
C        9.86122521      -0.01528604       3.89460465      -0.00712124      -0.00479541      -0.00622305
C        8.63334979       2.10555550       4.08279865       0.00455095      -0.00111151       0.00438323
C        7.38312027       4.23401644       4.10137674       0.00201716       0.00357668      -0.00547044
C        6.14701283       6.39122926       4.08712093      -0.00312572      -0.00043791       0.00000158
C        4.91393555       8.53829118       3.68911057       0.00543063       0.00911534       0.00539719
C        0.01014490       1.41961967       3.98960591       0.00233898      -0.00260302       0.00487683
C       -1.26191185       3.54999072       3.99725857       0.00710724       0.00121026       0.00034481
C       -2.52242829       5.67782383       3.96007822      -0.00397930      -0.00287442      -0.00833999
C       -3.74706675       7.80450127       3.99780276       0.00121648       0.00672116       0.00898805
C       -4.96234736       9.93868933       3.93731989      -0.00028881      -0.00767251       0.00554247
C        2.47219071       1.35497029       3.73512820       0.00367482       0.00193738       0.00634094
S        1.44918143       3.75533640       4.25503715      -0.00299105       0.00754899      -0.00663391
C       -0.17201955       5.66447230       3.35539240      -0.00034960      -0.00107078       0.00716250
C       -1.29075192       7.82009901       3.70089170      -0.00162275      -0.00842997      -0.00287054
C       -2.48929317       9.92380342       3.90552340       0.00152136      -0.00210480       0.00442485
C        4.93756418       1.35888664       3.79299580      -0.00565836       0.00116279      -0.00216754
P        3.94179067       3.38216641       2.37240128      -0.00396342      -0.00830339      -0.01078779
C        1.18098489       7.92542169       3.22073486      -0.00435423      -0.00473626       0.00269727
C       -0.01383412       9.93462806       3.85962292       0.00259092       0.00549119       0.00127927
C        7.40179893       1.38217822       4.01823889       0.00212641       0.00947479      -0.01347792
C        6.19561212       3.48585836       3.92020543       0.00011774      -0.00234290      -0.00041259
C        5.01090451       5.61052189       3.98638149       0.00233199      -0.00099869       0.00299488
C        3.69220655       7.94555761       3.19376304       0.00757651       0.00198420       0.00760665
C        2.45811483       9.96772105       3.78739001      -0.00975062      -0.00135008      -0.00133883
C        9.87713488       1.40863542       4.04084568       0.00127069      -0.00470916      -0.00996261
C        8.61829911       3.52800776       4.11569014       0.00179985      -0.00216587       0.00489159
C        7.37124447       5.66630623       4.12926660       0.00076753       0.00912193      -0.00144890
C        6.11938940       7.81392043       3.93395284      -0.00258878      -0.00316905      -0.00045504
C        4.91791954       9.95061679       3.84260359       0.00086019       0.00839947      -0.00145683
Nb       3.12720604       5.38915400       3.35604402      -0.00111061      -0.00649185      -0.00456474
