49
Lattice="12.336457 0.0 0.0 -6.168228499999997 10.683685154694365 0.0 0.0 0.0 15.0" Properties=species:S:1:pos:R:3:forces:R:3 energy=-429.59540330912125 free_energy=-429.59540330912125 stress="-0.0052973367629720845 0.0028662418904460154 -4.775925166251628e-06 0.0028662418904460154 -0.008016529742449032 6.217089323306612e-06 -4.775925166251628e-06 6.217089323306612e-06 -1.061768964250133e-06" pbc="T T T"
C        0.00472261      -0.03364343       3.53976732       0.00402151       0.00001612       0.00952153
C       -1.20592477       2.14081050       3.44749115      -0.00164137       0.00236616       0.00770135
C       -2.42020205       4.27102564       3.68993324       0.00056075      -0.00058478       0.00009168
C       -3.67921117       6.40213822       3.87469647      -0.00038379       0.00076396       0.00439552
C       -4.94311603       8.51813947       3.82653966       0.00327198       0.00429550       0.00889128
C        2.46856742      -0.08485788       3.45227172      -0.01056643      -0.00379310      -0.00599082
C        1.25939616       2.01644203       3.09717368      -0.00616573      -0.00570598       0.00101765
C        0.03695273       4.35980720       3.43396494      -0.01303677      -0.00365328       0.00091766
C       -1.24899892       6.44680668       3.82195709       0.01125570      -0.00415190      -0.00260339
C       -2.46114711       8.53450880       3.73213930       0.00390605       0.01069148       0.00511361
C        4.95294093      -0.02076960       3.57211348      -0.00143740      -0.00593945       0.00946197
C        3.70688178       2.01028735       3.40807199       0.00432909      -0.00097877      -0.00795675
O        1.21510419       6.53723069       3.65328059       0.00766386      -0.00495230       0.00414820
C        0.00529055       8.56482975       3.76961987       0.00640282      -0.00034324       0.00163430
C        7.42128322       0.00668414       3.65360470      -0.00418209       0.00224021       0.00027683
C        6.19353009       2.13543679       3.66727571       0.00027800      -0.00251340      -0.00210739
C        5.04615438       4.30642804       4.11856815       0.00452572      -0.01158325       0.00821122
S        3.63189815       6.40930494       5.14564375       0.00340915      -0.01036942      -0.00063286
C        2.46571556       8.56757319       3.94728192       0.00247231      -0.00303349      -0.00009028
C        9.88844352       0.00367524       3.66870958       0.00912646       0.00052466      -0.00328200
C        8.66762463       2.14034086       3.63514486       0.00197484       0.00415435      -0.00037345
C        7.45085236       4.26647173       3.85764813      -0.00475292      -0.00513940       0.00476202
C        6.22260120       6.41680342       4.20371792       0.00053653       0.00087819       0.00174760
C        4.93247478       8.54826516       4.03755028       0.00270154       0.01451360       0.00495347
C        0.01484763       1.38943992       3.32713105      -0.00772118      -0.01096389      -0.00104631
C       -1.20473294       3.56279587       3.50972994       0.00105590       0.00608303       0.00259474
C       -2.45000130       5.69390429       3.79965364      -0.00132212      -0.00555128      -0.00588248
C       -3.69786085       7.81956067       3.82171387       0.00116944       0.00421789       0.00096735
C       -4.94202272       9.92070700       3.59204091      -0.00310203       0.00263994       0.00524960
C        2.47389982       1.30596525       3.25739960      -0.00504332       0.00301973      -0.01393515
P        1.48307617       3.72210585       2.49497044      -0.00063902       0.00705799       0.00186067
C       -0.03758045       5.78052555       3.75131386      -0.00370490       0.00321342       0.00001218
C       -1.23629417       7.85340506       3.78718997       0.00304716       0.00457137       0.00201974
C       -2.45376648       9.94074534       3.58278719      -0.00253375       0.00229233      -0.00367606
C        4.96862196       1.39714407       3.54453762       0.00625664      -0.00423142       0.00567560
P        3.48507168       3.61776749       3.90895941      -0.01488834      -0.00022604       0.00297689
C        1.22121895       7.92114136       3.87140846       0.00498060       0.00255450      -0.01860503
C        0.01940178       9.98169925       3.66584338      -0.00351098      -0.00308165      -0.00266282
C        7.42592388       1.43280710       3.63831140      -0.00069965       0.00294046      -0.00369251
C        6.22339242       3.54994300       3.85397735      -0.00113070      -0.00269947      -0.00656774
C        5.07045841       5.66232092       4.48262494      -0.00259566      -0.00642995      -0.00322060
C        3.68946733       7.92027014       4.29309347      -0.00306061       0.00008458       0.00097097
C        2.48192537       9.98422093       3.73863345       0.00318234       0.00161028      -0.01039791
C        9.89923747       1.43067846       3.56968075       0.00548375       0.00228336      -0.00190000
C        8.67823019       3.55959102       3.71577380      -0.00068260       0.00133573      -0.00066197
C        7.43852828       5.68915141       3.97542760      -0.00070389      -0.00563968       0.00892473
C        6.17498775       7.82984314       4.06496512       0.00469666       0.00894681      -0.01013021
C        4.94393907       9.96072430       3.73435684       0.00608120       0.00102372       0.00107773
Nb       1.59558985       4.78835281       4.71903001      -0.00888475       0.00724578       0.00023963
