49
Lattice="12.336457 0.0 0.0 -6.168228499999997 10.683685154694365 0.0 0.0 0.0 15.0" Properties=species:S:1:pos:R:3:forces:R:3 energy=-429.31855534866924 free_energy=-429.31855534866924 stress="-0.003223750451301928 -0.0031529773012032125 -1.886395590284438e-08 -0.0031529773012032125 -0.0062531295334253365 1.1864539293667144e-05 -1.886395590284438e-08 1.1864539293667144e-05 2.5500562298178873e-06" pbc="T T T"
C       -0.02160630      -0.00743494       3.69172365       0.00081615       0.01364870      -0.00496963
C       -1.28192667       2.11600258       3.95845061      -0.01406194       0.00733031       0.00364404
C       -2.51842965       4.26400687       3.90630493       0.00134430       0.00131600      -0.00404579
C       -3.70313815       6.40862598       3.68516632       0.00329891      -0.00998530       0.01350186
C       -4.93407995       8.54754576       3.56941708       0.00700196       0.00146887      -0.00373804
C        2.45708897      -0.03966979       3.71949901      -0.00481220      -0.00359629       0.00222005
C        1.21237230       2.01491985       4.17815243      -0.00298901      -0.00950261      -0.01623737
C       -0.17683207       4.26061737       4.55830243       0.00859137      -0.00528879      -0.01307709
C       -1.28215511       6.41411907       4.10167001      -0.00238382      -0.00349353       0.01421190
C       -2.46053824       8.53054018       3.74922539      -0.00048714      -0.00302563       0.00022418
C        4.92127844      -0.00596381       3.63521565      -0.00597619      -0.00201013      -0.00496667
C        3.63604934       2.08272742       3.55746632       0.00494496      -0.00188855      -0.00914716
P        1.41739271       6.37853306       4.87482490      -0.00042915      -0.00546437       0.01103817
C        0.00744846       8.54504815       3.87534011       0.00342332      -0.00036937      -0.00521411
C        7.38098657       0.00496764       3.56158087       0.00244350       0.00735125      -0.00136542
C        6.12832567       2.15039632       3.45627766      -0.00032137       0.00705361       0.00551293
C        4.92559021       4.35467461       3.26077575       0.00128208      -0.00869115      -0.01155131
O        3.73565474       6.49208073       3.33445033      -0.01065171      -0.01015736      -0.00258807
C        2.47441679       8.55288989       3.59484791       0.00777611       0.00039513      -0.00004413
C        9.84957734       0.00955127       3.54991269      -0.00117686      -0.00642266       0.00719951
C        8.60294353       2.14102761       3.62413893      -0.00110609       0.00487793      -0.00543552
C        7.37463989       4.28116242       3.53930812      -0.00632089       0.00226292       0.00827177
C        6.20270921       6.45780663       3.45563005       0.00250920       0.00287836       0.01281340
C        4.93452503       8.56875666       3.40396622       0.00106180       0.00695075      -0.00489615
C       -0.04007503       1.39405081       3.95941551      -0.01366838       0.00819868       0.00197653
C       -1.31933698       3.52827044       4.15111972       0.00095799       0.00670233      -0.00231172
C       -2.49586399       5.69223965       3.89488364       0.00303150      -0.00768652       0.00651149
C       -3.69612874       7.82995858       3.66316486       0.00392640      -0.00984556       0.01103567
C       -4.94976932       9.96133564       3.65984641      -0.00204371       0.00571997      -0.00884683
C        2.43158699       1.36801573       3.83989633       0.00520806      -0.00509414      -0.00505902
P        1.32323787       3.50049586       5.09945786      -0.00332126      -0.01272123      -0.00736585
C       -0.13783771       5.66751547       4.49652908       0.00006511      -0.00236286      -0.00459014
C       -1.23540237       7.82710108       3.92509823      -0.00067726      -0.00396841       0.00192726
C       -2.46943544       9.95143423       3.68488540      -0.00873206      -0.00215107      -0.00273501
C        4.89938929       1.42552035       3.52737818       0.00057961       0.00043515       0.00066572
S        3.41444213       3.60006420       2.66147169      -0.00138836       0.00209653      -0.00672760
C        1.26567955       7.88956749       3.99264696       0.00783517       0.00846035       0.00005216
C       -0.01110664       9.96820398       3.66514495       0.00192904       0.00320367      -0.00152336
C        7.36705365       1.43487995       3.52460954      -0.00007049       0.01027843      -0.00393068
C        6.14804837       3.57041689       3.40463664      -0.00316383       0.00240781      -0.00246814
C        4.98906750       5.78877608       3.43788479       0.00936882      -0.01019482      -0.00896758
C        3.71476204       7.90681740       3.42252704       0.00521765      -0.00246804       0.00711404
C        2.45483310       9.98036000       3.52380508       0.00084291       0.00004583       0.00402619
C        9.84049515       1.42864667       3.69646976      -0.00836237      -0.00647214       0.01001870
C        8.60224459       3.56183010       3.68075531      -0.00306902       0.00521891       0.00236600
C        7.40527327       5.70603699       3.54902342       0.00173231      -0.00079199       0.00980333
C        6.18195796       7.86610667       3.45101289       0.00208826       0.00869862      -0.00284434
C        4.91787753       9.98808149       3.52933632       0.00340971       0.00738035       0.00962954
Nb       3.39410748       4.81989185       4.67207260       0.00452688       0.00927211       0.00088233
