50
Lattice="12.336457 0.0 0.0 -6.168228499999997 10.683685154694365 0.0 0.0 0.0 15.0" Properties=species:S:1:pos:R:3:forces:R:3 energy=-441.7918474472067 free_energy=-441.7918474472067 stress="-0.003955985492822432 -0.0009748958354106038 2.0296355542818147e-06 -0.0009748958354106038 -0.006552741713982256 -1.0191260791989464e-06 2.0296355542818147e-06 -1.0191260791989464e-06 -2.2234993452358644e-06" pbc="T T T"
C       -0.02716328      -0.01655697       3.99530810       0.00245861      -0.00247006      -0.00029075
C       -1.26143644       2.12905732       4.05286681       0.00533524      -0.00274724      -0.01153118
C       -2.49137185       4.26938561       3.98135492      -0.00190958      -0.00768309      -0.00089295
C       -3.71511269       6.40827380       3.89282722      -0.00150580      -0.00307224      -0.00315171
C       -4.95021302       8.54111934       3.86470451       0.00288877       0.00421928       0.00315778
C        2.44668162      -0.01012310       4.00431127       0.00380280      -0.00468302      -0.00339537
C        1.20223006       2.10397925       3.99730376       0.00197801       0.00471641       0.00051538
C       -0.01733849       4.23523582       3.80131265      -0.00365781       0.00233843       0.01088650
C       -1.24908047       6.40056684       3.76315979      -0.00081232       0.00515321      -0.00398302
C       -2.47332613       8.53692809       3.88031263      -0.00229615      -0.00150165       0.00461076
C        4.90829340       0.00488158       3.93892514      -0.00142425       0.00834593       0.00775103
C        3.67126990       2.11838852       3.96648437      -0.00368241      -0.00136359       0.00254632
O        2.36562554       4.00154266       3.25176011      -0.00208676      -0.00872382       0.00100517
S        1.26066044       6.36408060       2.77380602       0.00130157      -0.00326975      -0.00878560
C       -0.03513981       8.57521121       3.65592597       0.00611280       0.00418388      -0.00230984
C        7.36972982       0.02606069       3.87474423      -0.00144125      -0.00395149      -0.01572687
C        6.13128853       2.15156887       3.91688559       0.00416279       0.00881486       0.00010368
C        4.89939871       4.25971300       3.50813336      -0.01109258       0.00302815       0.00144891
S        3.90026160       6.62100051       2.01192281       0.00073382      -0.00023985       0.00403255
C        2.43370158       8.63765979       3.43650383       0.00424505       0.00168349       0.00350420
C        9.84578122       0.01521323       3.91298476       0.00377039       0.00563286      -0.00242105
C        8.60497088       2.14439603       4.00752068      -0.00447973      -0.00112744      -0.00268753
C        7.37323430       4.27157171       3.86307776      -0.00695770      -0.00038907      -0.00067339
C        6.19414390       6.42296260       3.56618959       0.00764045       0.00000329       0.00157678
C        4.93124717       8.56342985       3.63960321      -0.00108097      -0.01117851      -0.00398400
C       -0.03736521       1.40318699       4.05090700       0.00549296      -0.00091485      -0.00059433
C       -1.26272035       3.54590725       3.99125845       0.00005280      -0.00582652      -0.00338005
C       -2.48690926       5.69122644       3.91172040      -0.00095174      -0.00420552       0.00164710
C       -3.71410604       7.82929591       3.88526671      -0.00276522      -0.00164367       0.00491678
C       -4.95765700       9.95844537       3.96656347       0.00373244       0.00201452      -0.00032614
C        2.44610455       1.40133198       4.01049485      -0.00049189      -0.00273508       0.01190964
C        1.15948861       3.46568423       3.78819864      -0.00185878       0.00718539       0.00776954
C       -0.07602006       5.64040434       3.58046262      -0.00497097      -0.00024494       0.00301076
C       -1.24527880       7.83152519       3.74563926       0.00307360       0.00708681      -0.00333502
C       -2.48380812       9.96376833       3.94739031       0.00221626      -0.00194862       0.00163558
C        4.90893938       1.42735952       3.95818873       0.00272715       0.01107152       0.00371259
C        3.66205029       3.50739617       3.75018217      -0.01013528      -0.00240607      -0.00028706
C        1.20525345       7.97426727       3.34957749       0.00797428       0.00734172      -0.01023184
C       -0.02783269       9.99291452       3.83543937      -0.00373258       0.00286574       0.00204307
C        7.36847180       1.44201726       3.96018458      -0.00059888      -0.00519626      -0.00156448
C        6.14347336       3.55830332       3.78230269      -0.00863207       0.00788752       0.00351682
C        5.05566158       5.66534720       3.09939788       0.00685975      -0.00088451      -0.00076875
C        3.69144536       7.93007749       3.28134086      -0.00545919      -0.00336293      -0.00066129
C        2.43998902      10.02056943       3.76702601       0.00432249       0.00145882       0.00162130
C        9.83804959       1.42809816       4.02668882       0.00093164       0.00720486      -0.00661342
C        8.60503623       3.56379382       3.98387186      -0.00712243      -0.00246379      -0.00111763
C        7.39113553       5.69794225       3.80837996      -0.00150432      -0.00199887       0.01157753
C        6.15624297       7.83839286       3.67352289       0.00534354       0.00045662      -0.00847709
C        4.90945033       9.97073411       3.87793125       0.00080728      -0.00694872       0.00000162
Nb       3.31084816       5.65116969       4.12079394       0.00268614      -0.00951212       0.00268895
