49
Lattice="12.336457 0.0 0.0 -6.168228499999997 10.683685154694365 0.0 0.0 0.0 15.0" Properties=species:S:1:pos:R:3:forces:R:3 energy=-429.047602775167 free_energy=-429.047602775167 stress="-0.006637183951915926 -2.1193540909588627e-05 -7.721812727999843e-06 -2.1193540909588627e-05 -0.011568351266163767 -9.633004335346341e-06 -7.721812727999843e-06 -9.633004335346341e-06 -6.620653687029836e-07" pbc="T T T"
C       -0.00136787      -0.01245060       3.47469242       0.00055325       0.00068018      -0.00151292
C       -1.24100261       2.12423172       3.53954994      -0.00197794       0.00296848       0.00622410
C       -2.47549933       4.27062729       3.34061357      -0.00089150      -0.00371690       0.00635806
C       -3.70136621       6.40861695       3.27504838       0.00078046      -0.00423566      -0.00869492
C       -4.93852059       8.53836920       3.37492129      -0.00068095       0.00058312      -0.00224179
C        2.46688704      -0.03515077       3.52379749      -0.00049889      -0.00134486       0.00006968
C        1.21285323       1.99078814       4.06702171       0.00346911       0.00298221      -0.00261059
C       -0.14541993       4.28125469       4.00162523       0.00504037       0.00050676      -0.01041832
C       -1.27423010       6.42267426       3.58608144      -0.00766862       0.01082369       0.00136169
C       -2.46355552       8.53928712       3.36931134      -0.00341015      -0.00455396      -0.00203866
C        4.93493700      -0.01081045       3.47697974      -0.00218670      -0.00053141      -0.00373325
C        3.71915825       1.99145708       4.07341074      -0.00092489       0.00433080       0.00363214
P        1.15897249       6.44899424       4.88749980      -0.00185609       0.00775209       0.00256392
C       -0.01179055       8.57037837       3.67443960       0.00082262      -0.00221844       0.00728602
C        7.39831153       0.01050463       3.42694964       0.00553520       0.00233831      -0.00226274
C        6.17493062       2.12516708       3.55337897       0.00315512       0.00205876       0.00400955
C        5.08429671       4.28188112       4.03317957      -0.00274645      -0.00081977      -0.01578502
P        3.77412106       6.45381441       4.90770128      -0.00260278       0.00349869      -0.00063318
C        2.46715783       8.63483908       3.88399107       0.00071676       0.00295139      -0.00146584
C        9.87172881       0.00956080       3.42502729      -0.00215825       0.00432302      -0.00329684
C        8.63492411       2.13660538       3.30615990      -0.00164414      -0.00517740       0.00014333
C        7.40977192       4.27085141       3.35452300      -0.00021720      -0.00482178       0.00422882
C        6.21017681       6.42272232       3.60713356       0.01034893       0.00833036       0.00503458
C        4.94617470       8.57001208       3.68414362      -0.00310971      -0.00248431       0.00304843
C       -0.01257124       1.39566915       3.67683958       0.00275242       0.00087582      -0.00021208
C       -1.27426815       3.54334331       3.58525804      -0.01364808      -0.00542010       0.00754830
C       -2.47563883       5.69591909       3.34149583       0.00440210       0.00419303       0.00299730
C       -3.70103998       7.83041008       3.30656147      -0.00228953      -0.00282028       0.00646859
C       -4.93799711       9.95588133       3.42875720       0.00518842       0.00190625      -0.00793816
C        2.46638046       1.33170534       3.88520766       0.00331374      -0.00139153       0.00710342
P        1.15642480       3.51636393       4.89185134      -0.00162926      -0.00681694      -0.00064078
C       -0.14420572       5.68467910       3.99927068       0.00126974      -0.00840465      -0.00164520
C       -1.24046867       7.84173385       3.54043117      -0.00351700       0.00299295       0.00164766
C       -2.46439065       9.95683565       3.42796464      -0.00757452      -0.00246846      -0.00844481
C        4.94561275       1.39677206       3.68497618       0.00134373       0.00182741       0.00515085
P        3.77269521       3.51375862       4.90719433       0.00371516      -0.00759834      -0.00141375
C        1.21399723       7.97482014       4.06301611      -0.00055643      -0.00568199       0.00435094
C       -0.00136575       9.97882772       3.47349843       0.00349134      -0.00151260       0.00382599
C        7.39759909       1.42821320       3.37432214      -0.00422845       0.00217675      -0.00584072
C        6.21009706       3.54391344       3.60793990       0.01104000      -0.00373800       0.00399827
C        5.08365272       5.68522169       4.03085372      -0.00349231      -0.00738713      -0.00258464
C        3.71989850       7.97506591       4.07183140      -0.00400956      -0.00208249       0.00923418
C        2.46683209      10.00162966       3.52268807       0.00264066       0.00382768      -0.00895516
C        9.87225982       1.42717421       3.36693755       0.00386478       0.00577527       0.00301639
C        8.63495304       3.55849328       3.27483428      -0.00173941      -0.00557234      -0.00997423
C        7.40996493       5.69607291       3.35431653      -0.00378559       0.00194468       0.00483163
C        6.17547998       7.84142558       3.55416053       0.00327809       0.00228845      -0.00569056
C        4.93493125       9.97740294       3.47468794      -0.00341315      -0.00096041       0.00395325
Nb       2.45691110       4.98299138       6.26264424       0.00573556       0.00982359      -0.00005292
