49
Lattice="12.336457 0.0 0.0 -6.168228499999997 10.683685154694365 0.0 0.0 0.0 15.0" Properties=species:S:1:pos:R:3:forces:R:3 energy=-427.4255989985082 free_energy=-427.4255989985082 stress="-0.004649065413889386 -9.169246661728262e-05 -7.315956658996411e-06 -9.169246661728262e-05 -0.008420704386393247 -6.001999895759307e-06 -7.315956658996411e-06 -6.001999895759307e-06 -1.6222458741445668e-06" pbc="T T T"
C       -0.00326275      -0.01755675       3.68789080       0.00562733       0.00538363       0.00081447
C       -1.23139683       2.13074698       3.72924564       0.00334122       0.00726123      -0.00013179
C       -2.46980856       4.27350894       3.63241308      -0.00776003       0.00072336      -0.00059955
C       -3.69843023       6.40525979       3.59338540      -0.00375963      -0.00637191      -0.00677967
C       -4.94386787       8.52469035       3.66268441      -0.00032969       0.00125419      -0.00028912
C        2.46650410      -0.04950482       3.54629402       0.00122077       0.00105866       0.00275485
C        1.27102476       2.05021053       3.83832169       0.00100705       0.00322638      -0.00082104
C       -0.08910117       4.28592068       4.12266560      -0.00842005      -0.00638543      -0.00008684
C       -1.27827210       6.42960515       3.93855852       0.00203364      -0.00053227       0.00436798
C       -2.46601603       8.53581985       3.68704483      -0.00582124       0.00145466       0.00683416
C        4.93256462      -0.00693724       3.48629462       0.00186994      -0.00509882       0.00168722
C        3.67448612       2.04093291       3.14764920      -0.00131218      -0.01670152       0.01068700
P        1.27531682       6.40286676       5.00124868      -0.00166571       0.00519779       0.00411089
C       -0.02248418       8.59674854       3.98718023       0.00683822       0.00295821      -0.00764552
C        7.39260248       0.02655100       3.60933580      -0.00149794      -0.00745040       0.00368577
C        6.16609607       2.13352064       3.21701182      -0.00241277      -0.00369108       0.00523645
C        4.99950452       4.31132335       3.08147717       0.00792855       0.00930039      -0.00501599
P        3.69447605       6.22009397       4.56239841       0.00739225      -0.00555900      -0.00709352
C        2.45909837       8.63848919       4.09095652       0.00395635      -0.00543500      -0.00116990
C        9.87060614       0.01687958       3.68573819       0.00414964       0.00223222      -0.00534431
C        8.64058151       2.14193213       3.46347848      -0.00664102      -0.00173247       0.00103037
C        7.41667944       4.27205569       3.34864348       0.00597319       0.00874985      -0.00390576
C        6.19040597       6.40594684       3.59057865      -0.00056731       0.01053155      -0.00218548
C        4.93213024       8.54960172       3.85724699      -0.00230736      -0.00173242       0.01103066
C        0.00597602       1.40741919       3.76436639       0.00624624       0.00928398      -0.00569692
C       -1.25655172       3.54778964       3.80165597      -0.00608383       0.00495514      -0.00017637
C       -2.47511173       5.69823132       3.69196114      -0.00381269      -0.00187346       0.00349916
C       -3.70233523       7.82347806       3.64230501      -0.00489648      -0.00695357      -0.00180882
C       -4.94297692       9.94218885       3.64499808       0.00252151       0.00195716      -0.00008228
C        2.47406002       1.36082021       3.50526155      -0.00516518      -0.00298442       0.00147775
P        1.41400447       3.55832638       4.67576825      -0.00654515      -0.01018741       0.00074841
C       -0.12227568       5.67626853       4.23322751      -0.00493933      -0.00280823       0.00235414
C       -1.24661521       7.85031680       3.89134536      -0.00135913       0.00817468       0.00183585
C       -2.46190281       9.94926728       3.55774520       0.00143344       0.00010131       0.00278173
C        4.92903642       1.41206422       3.24957568      -0.00530804      -0.00759122       0.00103552
S        3.50264854       3.64202172       2.52558519      -0.00607641      -0.00105751      -0.01136128
C        1.21107038       8.00123222       4.32696275       0.00363103       0.00035248      -0.00379451
C       -0.00886488       9.99501613       3.68053789       0.00119843      -0.00334224      -0.00268066
C        7.39529722       1.43672831       3.39975568      -0.00814912      -0.01005735       0.00594698
C        6.18539439       3.55415074       3.16407026       0.00865757       0.00349170       0.00204170
C        4.98944685       5.64794941       3.53543624       0.00572302       0.00708195       0.00225077
C        3.69370541       7.91883075       4.12109933       0.00252961      -0.00621300      -0.00199608
C        2.46010464      10.01952305       3.77641383       0.00410801      -0.00535406      -0.00235061
C        9.87485120       1.43342580       3.60265549       0.00208312       0.00514326      -0.00070287
C        8.64547678       3.56233334       3.45271387      -0.00131162       0.00133456      -0.00615518
C        7.41414619       5.69260868       3.47980330      -0.00261051       0.00531334      -0.00990713
C        6.16303805       7.82101865       3.73414817       0.00024687       0.00652264       0.00815034
C        4.93019375       9.97324903       3.73597461       0.00478073      -0.00111507       0.00483019
Nb       2.62613967       4.93558499       6.19361057       0.00425469       0.00718359      -0.00141117
