50
Lattice="12.336457 0.0 0.0 -6.168228499999997 10.683685154694365 0.0 0.0 0.0 15.0" Properties=species:S:1:pos:R:3:forces:R:3 energy=-443.40309252143396 free_energy=-443.40309252143396 stress="-0.004165758788877227 0.001241895009439822 3.838937142530627e-06 0.001241895009439822 -0.006075319369979433 6.8449843201304265e-06 3.838937142530627e-06 6.8449843201304265e-06 4.4517709553071164e-06" pbc="T T T"
C       -0.02308924      -0.01412471       3.83255194       0.00325133      -0.00148164       0.00354719
C       -1.25716326       2.12659985       3.92771560      -0.00907282      -0.00436151       0.00171890
C       -2.48640406       4.26687184       3.94631648      -0.00001113      -0.00892206      -0.00389088
C       -3.71893055       6.39942183       3.87345156      -0.00297966       0.00605240      -0.00831469
C       -4.96301324       8.53142526       3.78572093       0.00073692       0.00243630      -0.00494732
C        2.44482300      -0.01697194       3.85444826      -0.00192594      -0.00349836      -0.00007904
C        1.20634575       2.10543828       3.94673587       0.00525020      -0.00079851       0.00640925
C       -0.03045148       4.26291465       4.04576772       0.00273964       0.00736979      -0.00787535
C       -1.24846509       6.40949069       3.97551651      -0.00905082       0.00479725      -0.01291052
C       -2.49306929       8.53563261       3.87637685      -0.00671940      -0.00019350      -0.00321548
C        4.91687816      -0.02051676       3.78879715      -0.01264155      -0.00086148      -0.00310119
C        3.68933469       2.10428535       3.77911811       0.01085022       0.00201219       0.01174427
B        2.45373359       4.24041020       3.95172907      -0.00467224      -0.00079753      -0.00745839
C        1.20934951       6.43748623       3.93874261       0.00933296      -0.00660993      -0.00341515
C       -0.02872211       8.53618304       3.79174037      -0.00041675       0.00372006      -0.00701931
C        7.37823850      -0.00893143       3.71433071       0.00460480      -0.00219000       0.01475159
C        6.15851872       2.11028948       3.72223875       0.01491815      -0.00016235      -0.00168155
C        4.94928138       4.22790705       3.54866664      -0.01000424       0.00349424       0.00449902
S        3.91700628       6.50179347       2.06182124       0.00824049       0.00499478      -0.00079203
C        2.43719158       8.56617098       3.47692065      -0.00412807       0.00760814      -0.00726909
C        9.84901328       0.00137287       3.71637734       0.01128676      -0.00475268      -0.00304435
C        8.61923487       2.12887910       3.81014255       0.00324878      -0.00270001      -0.00168093
C        7.39895527       4.25955083       3.75616221      -0.00129953       0.00377407       0.00954379
C        6.15592903       6.40430865       3.61160423       0.00079839      -0.00026112      -0.00926346
C        4.92570643       8.55549277       3.53686192       0.00104109      -0.00867422      -0.00190729
C       -0.02787388       1.40305304       3.91973518      -0.00310379       0.00026565      -0.00023290
C       -1.26100247       3.55243111       3.99650921       0.00386679      -0.00295027      -0.00401661
C       -2.48069788       5.69343966       3.95138628      -0.00900578      -0.00412341      -0.00607007
C       -3.72542939       7.82179536       3.85867191      -0.00246024       0.00480762      -0.00556226
C       -4.95977833       9.95577247       3.83067561       0.00033182      -0.00105454       0.01359330
C        2.44609995       1.40493804       3.86658182       0.00963186      -0.00284540       0.00873514
C        1.16860994       3.52305235       4.01800384       0.00371487       0.00198927       0.00877083
C        0.01211370       5.70299991       4.02074112      -0.00002133       0.00922774      -0.01212728
C       -1.25445214       7.82454395       3.89433853      -0.00471582       0.00747634      -0.00717411
C       -2.48845049       9.95504292       3.84024880      -0.01131511      -0.00545678      -0.00536365
C        4.92522943       1.39558061       3.75011710       0.01141721       0.00144627       0.00722921
C        3.73440822       3.51621764       3.71376364      -0.00943051       0.00167110       0.01007836
C        1.21084652       7.81860145       3.70901841       0.00124629      -0.00597974      -0.00111256
C       -0.01962677       9.95595759       3.75381609      -0.00699961       0.00540595      -0.00117887
C        7.38729884       1.40911028       3.75092299       0.01267822      -0.00492191       0.00398079
C        6.17873960       3.53448822       3.66110524      -0.00338344       0.00377571       0.01164856
C        4.93862321       5.66439180       3.36825719      -0.00999351      -0.00176492       0.00771391
C        3.68903920       7.91534338       3.19675867      -0.00918616       0.00970120      -0.01194710
C        2.44656868       9.97645272       3.62998856       0.00705074       0.00503695       0.00777880
C        9.84950395       1.41941810       3.82908279      -0.00406210      -0.00678874       0.00498195
C        8.62460913       3.55168058       3.84908609      -0.00154593      -0.00314345       0.00161919
C        7.38507497       5.68649320       3.76961772      -0.00014339       0.00514231       0.00112333
C        6.14086170       7.82268204       3.62514429       0.00167232      -0.00279336       0.00957958
C        4.91163248       9.96797122       3.71394388       0.00922920      -0.00997110       0.00457303
Ni       3.02609927       6.05186814       3.92328902       0.00114983      -0.00414680      -0.01096856
