49
Lattice="12.336457 0.0 0.0 -6.168228499999997 10.683685154694365 0.0 0.0 0.0 15.0" Properties=species:S:1:pos:R:3:forces:R:3 energy=-436.6086357185203 free_energy=-436.6086357185203 stress="-0.009140955388907248 0.0004178674570068441 4.034273995384344e-07 0.0004178674570068441 -0.004779118123194081 6.568036301284241e-07 4.034273995384344e-07 6.568036301284241e-07 1.1455177489308554e-06" pbc="T T T"
C       -0.00440620      -0.01275230       3.74744612       0.00544530       0.00632204       0.01002047
C       -1.24219339       2.12316296       3.74125098      -0.00208621      -0.00480918      -0.00050338
C       -2.49877831       4.27325384       3.72974029       0.00408946      -0.00658333      -0.00351509
C       -3.71139317       6.41674931       3.73814242      -0.00247891       0.00688744      -0.00182917
C       -4.92783418       8.55657976       3.74951680      -0.00891187       0.00428523      -0.00398396
C        2.47929340       0.01362557       3.75388737       0.00063516       0.00128480      -0.00499701
C        1.24074358       2.09660583       3.76422177       0.00449315      -0.00039042      -0.00504228
C       -0.08917164       4.29286522       3.74566980       0.01392329       0.00329298      -0.00202914
C       -1.26467310       6.42675023       3.73275843       0.00248033       0.00169580       0.00722858
C       -2.47067792       8.56008853       3.73881386      -0.00269774       0.00324881       0.00642335
C        4.93349224       0.01682236       3.74804079       0.00592626       0.00333327       0.00963948
C        3.72191670       2.18199695       3.77355327       0.00482546       0.00026938      -0.00449871
B        1.25801621       6.39096154       3.76919419       0.00055749      -0.00127012      -0.00094481
C       -0.00961699       8.55968354       3.74651985       0.00729420      -0.00068333       0.00825691
C        7.40610859      -0.00494146       3.74720933      -0.00965791       0.00803859       0.00938992
C        6.17526135       2.13009597       3.75701681       0.01026484      -0.00391586       0.00262724
C        4.96424768       4.24243011       3.78308967      -0.00676866      -0.00191461      -0.01220800
C        3.74049159       6.38184866       3.78288517      -0.00723758      -0.00495055      -0.00197560
C        2.47169013       8.54411671       3.76442629      -0.00221092       0.00287035       0.00074513
C        9.87124801      -0.01157752       3.75041135      -0.00451526      -0.00493160      -0.00265467
C        8.63578845       2.12794602       3.74219580      -0.00396767       0.00165330      -0.00885328
C        7.40284952       4.27253866       3.74637764      -0.00849517       0.00205788       0.01461961
C        6.18117346       6.41858457       3.76448562      -0.00095237      -0.00488729      -0.00076072
C        4.93969262       8.52891062       3.76222923       0.00794619      -0.00615849       0.00305969
C       -0.00933702       1.40871733       3.74903077       0.00140137       0.00018996       0.00871653
C       -1.27452177       3.54824128       3.73460036       0.01363798      -0.00267052       0.00705281
C       -2.49519832       5.70169217       3.72895961      -0.00064285       0.00008986       0.00538620
C       -3.70185249       7.84437368       3.74224085      -0.00911090       0.00575200      -0.00746416
C       -4.92818723       9.97818170       3.74827361       0.00238571       0.00024818       0.01254327
C        2.48928502       1.43883131       3.76673972       0.00231289      -0.00042996      -0.00767371
B        1.18445483       3.55225161       3.77057200      -0.00422141      -0.00894308       0.00359126
C       -0.06921926       5.69420147       3.74454556       0.00335951       0.00449883       0.00341364
C       -1.24480821       7.85050128       3.73830903       0.00519148       0.00529315      -0.00323110
C       -2.46473249       9.98431382       3.74622330       0.00281565       0.00456053       0.00172837
C        4.94048605       1.44243733       3.76054835       0.00877033       0.00394277      -0.00104159
N        3.78645507       3.55594214       3.78690977      -0.00700487      -0.00262992      -0.00607554
C        1.23532268       7.87146524       3.76182914       0.00442061      -0.00247300      -0.00752711
C       -0.00350473       9.98152509       3.74538520       0.00029362      -0.00042634       0.00222447
C        7.40681294       1.41693284       3.74725238       0.00399780      -0.00000331       0.00125127
C        6.18377749       3.54491813       3.76420137      -0.00533112      -0.00476785      -0.00483243
C        4.94427246       5.69644673       3.78110632      -0.00480321      -0.00126269      -0.00386228
C        3.69829607       7.78585702       3.77245032       0.00016453      -0.00524158      -0.00650651
C        2.47341249       9.96451986       3.75406980      -0.01275937       0.00584897      -0.00388979
C        9.86729256       1.41193058       3.74281635      -0.00792486      -0.00000401      -0.00193192
C        8.62445402       3.55486749       3.73614832      -0.00515581       0.00213565       0.00438303
C        7.40060532       5.69913982       3.74891236      -0.00482364       0.00227114      -0.00113696
C        6.17351785       7.83771013       3.75920532       0.00187951      -0.00635407      -0.00184043
C        4.93321130       9.95171166       3.75252209       0.00504847       0.00015906      -0.00038954
Ni       2.52383008       4.93549375       3.79278481      -0.00180229      -0.00452886      -0.01110235
