49
Lattice="12.336457 0.0 0.0 -6.168228499999997 10.683685154694365 0.0 0.0 0.0 15.0" Properties=species:S:1:pos:R:3:forces:R:3 energy=-432.4735071196617 free_energy=-432.4735071196617 stress="-0.009503554022433903 0.0009623221951847958 1.8093435001615077e-07 0.0009623221951847958 -0.002768584234251282 1.4072886581888025e-07 1.8093435001615077e-07 1.4072886581888025e-07 6.582286677968003e-07" pbc="T T T"
C        0.00245299      -0.00595304       3.74954259       0.00104791       0.00210559       0.00669252
C       -1.23923057       2.12047257       3.74311947      -0.00648437      -0.00549486      -0.00099529
C       -2.50708498       4.26895070       3.73194431      -0.00388855      -0.00269142      -0.00206847
C       -3.72099252       6.41682938       3.73975380      -0.00564344       0.00472960      -0.00080243
C       -4.93211170       8.55662940       3.75038022      -0.00118163       0.00275468      -0.00147814
C        2.48401216       0.02405417       3.75140012      -0.00140317       0.00040571      -0.00232556
C        1.24961650       2.12760593       3.76184700       0.00823919      -0.00039986      -0.00753686
C       -0.09999198       4.28584396       3.74406680       0.01243436      -0.00509181      -0.00326978
C       -1.28801135       6.42673500       3.73196959       0.00082762       0.00324276       0.00705496
C       -2.47406101       8.56007616       3.74044082      -0.00704074      -0.00031525       0.00355152
C        4.93648988       0.00582827       3.74755929       0.00418466      -0.00024362       0.00520072
C        3.74489492       2.12851638       3.76467306       0.00270151       0.00434557       0.00881675
B        1.17251371       6.40935845       3.76790248       0.00287662       0.00188291      -0.00360549
C       -0.00820240       8.55181277       3.74719802       0.00249930       0.00119989       0.00776637
C        7.41330906      -0.02005102       3.74956381       0.00196615       0.00834881       0.00860376
C        6.18452781       2.12323297       3.75669452       0.00690545       0.00369304      -0.00293588
C        4.99263610       4.26628531       3.77927136      -0.00778659      -0.00335168      -0.00270972
N        3.77411270       6.40095453       3.78289077       0.00316177      -0.00542954      -0.00524372
C        2.49003044       8.51749694       3.76407994      -0.00069869       0.00101908       0.00036005
C        9.87627849      -0.02051623       3.75111929       0.00044024      -0.00290666       0.00055142
C        8.63914635       2.12066565       3.74517283      -0.00348406      -0.00555378      -0.00531864
C        7.39728666       4.27170355       3.74911866      -0.00026624       0.00341750       0.00488258
C        6.17435460       6.41070060       3.76549983      -0.00538159      -0.00307160      -0.00148431
C        4.94162185       8.52192204       3.76315814       0.00601502      -0.00515714       0.00037663
C        0.00591284       1.42249271       3.75044514       0.00065651      -0.00126249       0.00623117
C       -1.28231916       3.54259125       3.73544680       0.00328314      -0.00264947       0.00687902
C       -2.51159434       5.69870624       3.73009497      -0.00416462       0.00391675       0.00401155
C       -3.70609106       7.84459717       3.74360799      -0.00579868      -0.00091316      -0.00735075
C       -4.92387694       9.98497766       3.74925490       0.00151325      -0.00132722       0.00823637
C        2.50385934       1.45643902       3.76061268       0.00525444      -0.00090907       0.00014587
B        1.18502466       3.58828984       3.76784650       0.01851665      -0.00272531      -0.00538967
C       -0.10794792       5.68545987       3.74170882       0.00231130      -0.00213622       0.00254949
C       -1.24958191       7.84979156       3.73919438      -0.00024493       0.00691493      -0.00410410
C       -2.46469015       9.98892269       3.74603493      -0.00205024       0.00037485      -0.00047116
C        4.94795591       1.43287940       3.75592356       0.00471621       0.00586532      -0.00007454
O        3.81019263       3.52504257       3.79550989      -0.01696335       0.00332049      -0.00021748
C        1.24058707       7.86419025       3.76064448       0.00191107       0.00083782      -0.00107279
C       -0.00007276       9.97186828       3.74734264       0.00631896       0.00069297      -0.00217716
C        7.40699690       1.40928031       3.75029463       0.00156919       0.00100775      -0.00329049
C        6.17519482       3.54702315       3.76197525       0.00032691       0.00271231      -0.00242698
C        4.95693646       5.68927591       3.78121858      -0.00319081      -0.00673370      -0.00733220
C        3.72327184       7.76916953       3.77264316       0.00218316      -0.00919245      -0.01104597
C        2.48363452       9.94479875       3.75471802      -0.00134587       0.00505504      -0.00045323
C        9.87055716       1.40475897       3.74465338      -0.00765575      -0.00276112       0.00101215
C        8.61897703       3.54944001       3.74007838      -0.00262988      -0.00550606       0.00102171
C        7.39137264       5.69223995       3.75073567      -0.00820444       0.00396364      -0.00075875
C        6.17214067       7.83269515       3.75972972       0.00302192      -0.00138274       0.00421450
C        4.93867287       9.95056667       3.75348525       0.00130044      -0.00119704       0.00331113
Ni       2.48868250       5.06389776       3.78315309      -0.01067529       0.00659625      -0.00553069
