49
Lattice="12.336457 0.0 0.0 -6.168228499999997 10.683685154694365 0.0 0.0 0.0 15.0" Properties=species:S:1:pos:R:3:forces:R:3 energy=-432.7885487447413 free_energy=-432.7885487447413 stress="-0.009603013620183667 -0.005210117014063379 7.826566943736017e-07 -0.005210117014063379 -0.0068606752156064295 9.788384936743162e-07 7.826566943736017e-07 9.788384936743162e-07 5.12131128028992e-07" pbc="T T T"
C       -0.00657528      -0.01209842       3.74474343      -0.00086945      -0.00009576       0.00219093
C       -1.27524748       2.10145514       3.73746872       0.00107270       0.00053512      -0.00539158
C       -2.48837516       4.25832229       3.73086069       0.00406158      -0.00108048       0.00114025
C       -3.68357992       6.40991514       3.74112326       0.00153571      -0.00379137      -0.00533011
C       -4.91496180       8.55474675       3.75069133       0.00847473       0.00140787      -0.00307627
C        2.45205582       0.00442878       3.74392171       0.00147725       0.00240999      -0.00317702
C        1.16540643       2.09174763       3.75088099       0.00373595      -0.00561568       0.00131719
C       -0.07356692       4.18853307       3.73657597      -0.00785093       0.00316797       0.00421645
C       -1.23196428       6.37612174       3.72647326      -0.00015655       0.00228286       0.00097436
C       -2.45457049       8.53929004       3.73722051       0.00189217       0.00994838      -0.00630884
C        4.92555205      -0.00392116       3.73961355      -0.00219459       0.00316146       0.00312222
C        3.65820754       2.11592930       3.75691788       0.00413989       0.00882519       0.00133978
B        1.18242795       6.39883421       3.73552576      -0.00444809       0.01103545       0.00560493
C        0.00220739       8.53974849       3.73625920      -0.00521685       0.00292422      -0.00696749
C        7.38930449      -0.00640143       3.74846819      -0.00174461      -0.00687768      -0.00068094
C        6.14162336       2.14209607       3.75164620      -0.00823638       0.00244210       0.00210167
C        4.98112404       4.34341587       3.78675008       0.00836055      -0.00089776      -0.00251157
N        3.83578805       6.47898850       3.81195816      -0.00551903      -0.00486414       0.00945610
C        2.48771012       8.53628601       3.76303483       0.00065057      -0.00174583      -0.00190926
C        9.85442249      -0.01534140       3.75582234      -0.00082282      -0.00280020      -0.00850516
C        8.60738085       2.12664993       3.74496711      -0.00302011      -0.00553472      -0.00076150
C        7.40641609       4.27944508       3.74907528       0.00658194      -0.00761923       0.00203105
C        6.21869371       6.45096892       3.76651759       0.00121518      -0.00031680       0.00385602
C        4.95768492       8.55254012       3.76574096      -0.00084717      -0.00123366      -0.00067314
C       -0.03732159       1.40275446       3.73787352       0.00026570       0.00164489       0.00628863
C       -1.27789408       3.51158870       3.72966642      -0.00405759      -0.00080479      -0.00759173
C       -2.46785277       5.67926737       3.73072292       0.00233335      -0.00266728      -0.00230039
C       -3.68441881       7.83435039       3.74348357       0.00772493       0.00340250      -0.00570771
C       -4.93510317       9.97596277       3.74607127      -0.00070712       0.00365425      -0.00181927
C        2.41603915       1.42934186       3.75109634       0.01021716       0.00172457      -0.00276829
O        1.10126497       3.46339052       3.78840170      -0.01153405      -0.00201896       0.00501600
C       -0.03866607       5.59615607       3.72798284       0.00101180       0.00425419       0.00812277
C       -1.21870447       7.81020577       3.73091012      -0.00550080       0.00328163       0.00372172
C       -2.47280926       9.96906932       3.73958766      -0.00048301       0.00728528       0.00013160
C        4.91117354       1.42520636       3.74769853      -0.00416677      -0.00060085       0.00819265
B        3.75373194       3.56745493       3.78951119       0.01314546       0.00559886       0.00231582
C        1.25453634       7.85132225       3.74232777      -0.00477326       0.00637155       0.00124241
C       -0.00894517       9.96808131       3.74018303      -0.00269176      -0.00047700       0.00476289
C        7.37592486       1.42013145       3.74812492      -0.01027241      -0.00162276      -0.00177750
C        6.16964651       3.57306131       3.76116383       0.00233293       0.00117290       0.00247246
C        5.00192159       5.77058748       3.79259196       0.00127828      -0.00220391       0.00190722
C        3.73847261       7.83351689       3.77995953      -0.00233426      -0.00051566       0.00562600
C        2.46243193       9.96121399       3.75765169       0.00051333      -0.00594571      -0.00290413
C        9.83996320       1.40647282       3.74623261       0.00038830      -0.00542311      -0.00546672
C        8.61804872       3.55266104       3.73960408       0.00715840      -0.00626993       0.00222068
C        7.42784972       5.70422882       3.75079011       0.00375404      -0.00697644       0.00289682
C        6.19256064       7.85776639       3.76261077       0.00591360       0.00155900      -0.00672560
C        4.92873476       9.96537631       3.75466016       0.00103219      -0.00326075       0.00239216
Ni       2.68964429       5.19767989       3.90355600      -0.01282008      -0.00682979      -0.01230655
