49
Lattice="12.336457 0.0 0.0 -6.168228499999997 10.683685154694365 0.0 0.0 0.0 15.0" Properties=species:S:1:pos:R:3:forces:R:3 energy=-433.4391076158895 free_energy=-433.4391076158895 stress="-0.0043896186846484175 0.0015620224108492426 -1.6061758430039985e-06 0.0015620224108492426 0.001217552421241301 2.8886168945892968e-06 -1.6061758430039985e-06 2.8886168945892968e-06 1.7378807457269004e-07" pbc="T T T"
C        0.00584308       0.00630807       3.74189008      -0.00835882      -0.00467755      -0.00564356
C       -1.22981942       2.13676158       3.55131926      -0.00070093      -0.00041568      -0.00160313
C       -2.47970451       4.27909584       3.73889336       0.00013307       0.00109520       0.01314394
C       -3.70737208       6.41444768       3.91355812       0.01222432       0.00708929      -0.00403205
C       -4.93837031       8.55495436       3.91556616       0.00070779      -0.00070148      -0.00026402
C        2.47060853       0.02575383       3.78388355      -0.00994793      -0.00182167       0.00651516
C        1.24971511       2.08571132       3.33046261       0.01106358      -0.00358652       0.00544536
C       -0.10483705       4.34180054       3.28440910       0.01430849      -0.00827897      -0.00967978
C       -1.26719483       6.43696399       3.73664946       0.00368867      -0.00835575      -0.00750387
C       -2.47696077       8.56275854       3.86735805       0.00314268       0.00228473      -0.00444477
C        4.93594196       0.00660191       3.80432904      -0.00734239      -0.00430269       0.00427619
C        3.72122211       2.19177581       3.72340881       0.00747860       0.01392183       0.00610539
N        1.17127911       6.37762671       3.62426319      -0.00182530       0.00311656       0.00162146
C       -0.00348690       8.52239864       3.77533442      -0.00540033      -0.00491355       0.00263382
C        7.40410032      -0.02030673       3.78395403       0.00535785      -0.00025794       0.00533964
C        6.18376128       2.11842026       3.84738594      -0.00610928      -0.01536871       0.00022995
C        4.96601823       4.21469482       3.94302351       0.00616074      -0.00202336      -0.00498693
B        3.73270193       6.39313397       4.00874596       0.00582118       0.00708233       0.01395307
C        2.44771004       8.51575954       3.81554312      -0.00313382       0.00200494       0.00540395
C        9.86965932      -0.01353235       3.76042067      -0.00164941       0.00403250       0.00427808
C        8.64383475       2.12492398       3.77754570      -0.00387123       0.00535129      -0.01111428
C        7.41498960       4.26150056       3.92064504      -0.00784040      -0.00219682      -0.00127712
C        6.18101346       6.40008619       3.99780054       0.00474043       0.00051706       0.01213898
C        4.93823914       8.54956277       3.91551447      -0.00136619       0.00722916      -0.00044371
C        0.00662623       1.42816622       3.53425259       0.00493027      -0.00445720       0.00083454
C       -1.25274172       3.57002528       3.52737392       0.00491067       0.00171318       0.00418835
C       -2.48228876       5.70346742       3.80626026       0.00445691      -0.00173851       0.00300989
C       -3.70735207       7.84389404       3.91382270       0.00839745       0.00754500      -0.00441699
C       -4.93059523       9.98589129       3.82221005      -0.01006550      -0.00400869      -0.00213349
C        2.47799969       1.45543285       3.62209126       0.01163680       0.00363879       0.00395719
S        1.24535263       3.60524959       2.46182494      -0.01143142       0.01159966       0.00318119
C       -0.05181583       5.74359259       3.52529068       0.00588439      -0.00459144      -0.01163590
C       -1.24760620       7.84847874       3.80886286      -0.00303591      -0.00794799      -0.01542109
C       -2.46946443       9.98883213       3.83449716      -0.01045671       0.00049793       0.00667848
C        4.93665763       1.43971371       3.79921367      -0.00657518      -0.00484998      -0.00196462
N        3.76134321       3.56750530       3.80805667       0.00005263       0.01480166      -0.00036615
C        1.21652126       7.75900501       3.74743124      -0.00451415       0.00135357       0.00196864
C        0.00190722       9.95327664       3.79290585       0.00015737      -0.00294101       0.00708501
C        7.41357565       1.40533992       3.80905664       0.00087173      -0.00155681      -0.00325960
C        6.19605765       3.52560179       3.92222420      -0.00559171      -0.01421700      -0.00878316
C        4.98510468       5.64012082       4.01123948       0.00395522      -0.00276025      -0.00518625
C        3.68861779       7.85804523       3.92938580      -0.00012800       0.00740106      -0.00623685
C        2.46051886       9.94710765       3.78338131       0.00380120       0.00007782      -0.00114166
C        9.88254836       1.41885349       3.69770182      -0.00559175       0.00248401      -0.00382995
C        8.64183732       3.55147663       3.82354522      -0.00668542       0.00490637       0.00202058
C        7.41339398       5.68929452       3.96029497       0.00906971       0.00262459      -0.00295039
C        6.16641330       7.83276881       3.95700806      -0.00048346       0.00252350       0.00801729
C        4.93988801       9.97406553       3.81216593      -0.00572443       0.00217104      -0.00712035
Ni       2.45600201       4.95614211       3.68271806      -0.00512205      -0.01109350       0.00341352
