49
Lattice="12.336457 0.0 0.0 -6.168228499999997 10.683685154694365 0.0 0.0 0.0 15.0" Properties=species:S:1:pos:R:3:forces:R:3 energy=-426.62283697267355 free_energy=-426.62283697267355 stress="-0.003490350142045069 3.838204451341951e-05 -5.281210018397779e-06 3.838204451341951e-05 -0.001978081302122542 4.635006373967209e-06 -5.281210018397779e-06 4.635006373967209e-06 -2.0551206119708903e-06" pbc="T T T"
C        0.00802808       0.00572586       3.77248231       0.00626499       0.00208993      -0.00152202
C       -1.23649765       2.12572625       3.95617479      -0.00185682      -0.00245040      -0.00105116
C       -2.47317829       4.27628418       3.97391217       0.00135211       0.00089201      -0.00041472
C       -3.70393088       6.41259034       3.83244129       0.00038777      -0.00426798      -0.00141079
C       -4.94209263       8.54627798       3.69249780       0.00705564      -0.00004025       0.00376858
C        2.46707527       0.04196772       3.78970689      -0.00357041       0.00184967      -0.00528584
C        1.20664635       2.12520251       3.85585413      -0.00100072      -0.00229065       0.00834167
C       -0.05657640       4.22914231       3.97224434       0.00231050      -0.00552297       0.00331123
C       -1.23763637       6.39818863       3.88150772       0.00545120       0.00058311      -0.00408548
C       -2.47146919       8.55111866       3.82324187       0.00259207       0.00573697      -0.00723206
C        4.92468330       0.00849957       3.85850531       0.00157896       0.00067063       0.00231246
C        3.73536900       2.13081898       3.76689728      -0.00196880      -0.00616098      -0.00691360
B        1.20523344       6.43556679       3.69683078       0.00955865      -0.00441664       0.00606112
C       -0.00692486       8.55904238       3.79079101       0.00188985       0.00123098      -0.00183445
C        7.40174006       0.00667052       3.86914537       0.00127006      -0.00656670      -0.00356881
C        6.17887943       2.12827215       3.89284415      -0.00200769      -0.00046461       0.00715291
C        5.01795779       4.22866079       3.56447231      -0.00056154       0.00441620      -0.00890937
S        3.64081867       6.36665762       2.51026905      -0.00774438       0.00138414      -0.00465721
C        2.47538599       8.58684150       3.58180697      -0.00654717      -0.00266884       0.00162013
C        9.87885810       0.00598017       3.80814223       0.00198104       0.00213232      -0.00206249
C        8.64153166       2.13724227       3.95800796      -0.01160972       0.00465657      -0.00641974
C        7.41439345       4.27752339       3.86807357      -0.00206417       0.00277567       0.00136673
C        6.16697251       6.39161039       3.56568078       0.00204088       0.00404802       0.00137765
C        4.93913502       8.55202467       3.51037237      -0.00067063       0.00157574       0.00030281
C        0.00783306       1.43363981       3.87291524       0.00041370      -0.00063922       0.00569039
C       -1.25105726       3.53808785       4.00898635       0.00072340      -0.00356094      -0.00009171
C       -2.47281659       5.69563264       3.91497965       0.00276901       0.00013157       0.00249353
C       -3.70457615       7.83780553       3.78208003       0.00540548      -0.00223806      -0.00185283
C       -4.92698954       9.99043180       3.74114983       0.00238551      -0.00003451       0.00478525
C        2.46997518       1.49849351       3.79866475      -0.00326000      -0.00197625      -0.00025404
O        1.13810191       3.51760238       3.98595437       0.00218908      -0.00326307       0.00074244
C       -0.02585060       5.63022800       3.87424928       0.00462337      -0.00509682       0.00265856
C       -1.23473094       7.82992357       3.83692136       0.00293220       0.00345777      -0.00947587
C       -2.47774912       9.99040031       3.81834297      -0.00202168       0.00718152       0.00466225
C        4.93063398       1.43705235       3.85664937       0.00088379      -0.00214714       0.00041072
O        3.82859146       3.49884244       3.50187559       0.00055904      -0.00314327      -0.00940276
C        1.24275574       7.88924926       3.65943899      -0.00215648      -0.00633569       0.00553300
C       -0.00756445       9.98470718       3.84692006       0.00182160      -0.00062055      -0.00256381
C        7.40264261       1.42708990       3.92968310      -0.00608142      -0.00517296      -0.00349398
C        6.19618660       3.54226842       3.82028794      -0.00145613       0.00219945       0.00381656
C        4.99498362       5.60931335       3.36095358       0.00066729       0.00628755       0.00155316
C        3.69291853       7.91170845       3.31155731      -0.00613079       0.00752600       0.00297738
C        2.47523222       9.99727079       3.77361842       0.00191341      -0.00250752      -0.00578678
C        9.87809683       1.42560153       3.92804454      -0.00769505       0.00331293      -0.00060819
C        8.63977005       3.56150470       3.95791960      -0.00361489       0.00626125       0.00257978
C        7.40140213       5.69366176       3.77432770      -0.00111448       0.00029272       0.00292699
C        6.16639310       7.82605644       3.55243186       0.00341866       0.00277781       0.01198307
C        4.94117282       9.97753277       3.70755296       0.00636326       0.00169298       0.00186526
Ni       2.39763629       4.90680875       3.54731229      -0.00766952      -0.00357748      -0.00139592
