49
Lattice="12.336457 0.0 0.0 -6.168228499999997 10.683685154694365 0.0 0.0 0.0 15.0" Properties=species:S:1:pos:R:3:forces:R:3 energy=-433.80760017641893 free_energy=-433.80760017641893 stress="-0.005675688133514469 -0.0005685536397229057 4.867173944821712e-06 -0.0005685536397229057 -0.0016322648762647843 -2.7020720263286677e-06 4.867173944821712e-06 -2.7020720263286677e-06 -3.0688012133699086e-07" pbc="T T T"
C        0.00683413       0.01234888       3.78780743      -0.00759886      -0.00292614       0.00189061
C       -1.24024199       2.12477827       3.94502372       0.01042146      -0.00366944       0.00116797
C       -2.47936838       4.27156175       3.96736110      -0.00048949      -0.00128514      -0.00324917
C       -3.69963452       6.41620304       3.84408042      -0.00201737       0.00109163      -0.00195585
C       -4.93644466       8.55634625       3.70550897      -0.00434758       0.00384394       0.00412458
C        2.46963949       0.04517100       3.77613060      -0.01074372      -0.00233075       0.00777939
C        1.21652293       2.17382729       3.82238716       0.00249164      -0.00180360      -0.00892617
C       -0.04542551       4.22223368       3.89389161      -0.00451869      -0.00288612       0.00058425
C       -1.24392517       6.40564430       3.86906575       0.00422502      -0.00177492      -0.00546232
C       -2.46681631       8.56015118       3.81776347      -0.00670943       0.00000085      -0.00083433
C        4.92847137       0.01817291       3.83448071       0.00054175      -0.00341190      -0.00139911
C        3.71511299       2.19267195       3.72916687      -0.00518190       0.00809090       0.00119260
B        1.22736815       6.38911638       3.69859915      -0.00310176       0.00243657       0.00566497
C       -0.00067407       8.55212578       3.79921098      -0.00111783      -0.00409664      -0.00022609
C        7.40052765       0.00153157       3.87972737       0.01037149      -0.00789282      -0.00032230
C        6.17424280       2.12857483       3.87567815      -0.00324715       0.00194230      -0.01406282
C        4.99255180       4.22760984       3.57991340       0.00229366       0.00353358      -0.00466101
S        3.63143583       6.33244860       2.61314905       0.00033908      -0.01385649       0.00081689
C        2.47413083       8.57132535       3.63492678      -0.00044029       0.00334244      -0.00662445
C        9.87473485      -0.00049628       3.83668610       0.00231971       0.01178245      -0.00735662
C        8.63643501       2.13144534       3.95803568      -0.00450160       0.00254983       0.01233412
C        7.41473349       4.27409094       3.86845206       0.00030619      -0.00235091       0.00888627
C        6.18419774       6.40489251       3.58387245       0.01017176      -0.00574647      -0.00154259
C        4.94142355       8.55437421       3.54763954       0.00091489      -0.00042339       0.00660336
C       -0.00127221       1.43500490       3.87046309       0.00757526      -0.00594769      -0.00735850
C       -1.26376965       3.53401275       3.97368827      -0.00125479      -0.00565669      -0.00073654
C       -2.47775782       5.69746549       3.91543006       0.00017462       0.00169248      -0.00395277
C       -3.69918350       7.84428007       3.78763368      -0.00728200       0.00292407       0.00376074
C       -4.92759215       9.99370125       3.74699266      -0.01246690       0.00125345       0.01256480
C        2.46838799       1.48123508       3.77033185      -0.00071516      -0.00170452       0.00163833
N        1.14084227       3.54127669       3.81718719      -0.00468688      -0.00010789       0.00436418
C       -0.04563711       5.64456022       3.83250630       0.00335050      -0.00255771      -0.00423976
C       -1.23411506       7.83760060       3.83345735      -0.00391089      -0.00282825      -0.00645289
C       -2.47097626       9.99398446       3.80276771      -0.00730554       0.00052565       0.00400740
C        4.93279524       1.44497429       3.81946049      -0.00490015       0.00293484      -0.00563813
N        3.78819288       3.56015617       3.57583645      -0.00265489       0.00962947      -0.00389945
C        1.24581247       7.86408135       3.69339957      -0.00255791       0.00166377       0.00743470
C       -0.00535105       9.98186248       3.84576075       0.00725805      -0.00469662      -0.00759704
C        7.40369722       1.42006809       3.92729681      -0.00290609      -0.00406705      -0.00413859
C        6.20023022       3.53979364       3.80894951      -0.00184419       0.00371332       0.00639626
C        5.03094621       5.62563138       3.37043246       0.01404990      -0.00181654       0.00120684
C        3.69612348       7.90627551       3.36953055       0.00062021       0.01453121      -0.01063271
C        2.47263261       9.98530420       3.80888492       0.01045284       0.00103015      -0.00555745
C        9.86750813       1.41799194       3.93599675       0.00297812       0.00817411       0.00360252
C        8.63554218       3.55635904       3.95635705      -0.00235372       0.00104931       0.01100312
C        7.41339609       5.69681361       3.78869774       0.00476583      -0.00564181       0.00045028
C        6.17388852       7.83878750       3.57808500       0.00586347      -0.00290677       0.00102209
C        4.93983759       9.97818624       3.73677392      -0.00486901       0.00102186       0.00561108
Ni       2.41738300       4.79299258       3.52024091       0.01223834       0.00362808       0.00271933
