49
Lattice="12.336457 0.0 0.0 -6.168228499999997 10.683685154694365 0.0 0.0 0.0 15.0" Properties=species:S:1:pos:R:3:forces:R:3 energy=-432.03823541676934 free_energy=-432.03823541676934 stress="-0.0031850767851242497 -0.0007609488704901431 3.570096090940418e-07 -0.0007609488704901431 -0.0006865750751822151 5.858013005160643e-07 3.570096090940418e-07 5.858013005160643e-07 1.0498887170927263e-06" pbc="T T T"
C        0.00407430      -0.00121884       3.74946026       0.00135845       0.00027384       0.00543363
C       -1.24352587       2.12263710       3.74040053      -0.00551460       0.00001170       0.00309450
C       -2.47900733       4.27530685       3.73419674      -0.00165937      -0.00239404       0.00074204
C       -3.69938469       6.41388357       3.74217653       0.00432388       0.00748482       0.00011614
C       -4.92379970       8.55762629       3.75116233       0.00307547       0.00546574       0.00007183
C        2.46933567       0.04294944       3.75167556       0.00128591       0.00432727      -0.00343449
C        1.20116127       2.12239855       3.75661636       0.00171732       0.00244906      -0.00141486
C       -0.06300834       4.23484249       3.74619664       0.00709648      -0.00447592       0.00040402
C       -1.22760683       6.39678376       3.73728403      -0.00218913      -0.00012763       0.00610866
C       -2.46424197       8.55386011       3.74121021      -0.00302215      -0.00080907       0.00499987
C        4.92765319       0.01117668       3.74690107      -0.00034937       0.00079020       0.00479780
C        3.72759276       2.13334706       3.76513053      -0.00047498       0.00367650       0.00586300
B        1.27173872       6.40899093       3.76039297       0.00775151      -0.01232018      -0.00206721
C       -0.00701082       8.55777492       3.74604868       0.00071312      -0.00530332       0.00676300
C        7.40165353       0.00182249       3.74934595       0.00043449       0.01030647       0.00554698
C        6.17015537       2.13676783       3.75511346       0.00271165       0.00246874      -0.00005421
C        4.98426891       4.26564993       3.77969983      -0.00662916      -0.00610251      -0.00396256
C        3.70225976       6.39015569       3.77714018      -0.00494167      -0.00880729      -0.00125649
C        2.47421707       8.55474155       3.76237772      -0.00177794      -0.00042497      -0.00147466
C        9.87211331      -0.00625007       3.75272906       0.00322786       0.00296280       0.00000366
C        8.63374148       2.13609623       3.74605298      -0.00091632       0.00061429      -0.00691864
C        7.40354725       4.28179796       3.74867524      -0.00124645       0.00443402       0.00814693
C        6.17123670       6.41212794       3.76398210      -0.00209644      -0.00070500      -0.00260505
C        4.94354413       8.53419008       3.76341780       0.00300087      -0.00478628      -0.00071089
C        0.00207137       1.42912269       3.74561709      -0.00047138      -0.00046434       0.00912052
C       -1.25590847       3.53783097       3.73448724       0.00350863      -0.00037966       0.00633274
C       -2.46968492       5.69509913       3.73463067      -0.00112816       0.00061410       0.00587736
C       -3.69661787       7.84190153       3.74445444       0.00044858       0.00160285      -0.00194990
C       -4.92351350       9.99176334       3.75064595       0.00514770       0.00052698       0.00116835
C        2.46671307       1.49729915       3.75964723      -0.00033863       0.00362012      -0.00142167
O        1.13296844       3.52125240       3.77563981       0.00930982      -0.00166713      -0.01304190
C       -0.01462983       5.63754908       3.74570824      -0.00121703      -0.00445062       0.00361029
C       -1.23135408       7.83134914       3.74046780      -0.00192705       0.00161675      -0.00149145
C       -2.47381199       9.99332501       3.74605352      -0.00146939      -0.00065261       0.00129932
C        4.92695033       1.44211115       3.75508879      -0.00076131       0.00553370      -0.00157802
O        3.80265633       3.52772192       3.80251599      -0.01102703      -0.00245215      -0.01354532
C        1.24126230       7.87834136       3.75659835       0.00176064      -0.00801935      -0.00218767
C       -0.00623359       9.98263984       3.74654226       0.00124701      -0.00080692      -0.00110965
C        7.39545397       1.42812077       3.74946711       0.00252754       0.00567659       0.00017456
C        6.17195414       3.55839662       3.76051290      -0.00128852      -0.00004270       0.00176475
C        4.91845030       5.68843709       3.77751416      -0.00430161      -0.00775626      -0.00421614
C        3.69774757       7.78997299       3.77037098      -0.00093809      -0.01039791      -0.00951855
C        2.47191379       9.97481410       3.75499541       0.00126429       0.00770299       0.00016482
C        9.87061353       1.41861004       3.74595916      -0.00436245       0.00521526      -0.00533875
C        8.62954146       3.56334091       3.74086449      -0.00187062      -0.00090144       0.00237763
C        7.39933085       5.70135695       3.75144772      -0.00010573       0.00715498      -0.00240191
C        6.17643849       7.83603726       3.75962905       0.00368995       0.00363852       0.00280540
C        4.93807808       9.95913802       3.75509002       0.00041602      -0.00021465      -0.00085378
Ni       2.45629571       4.91555910       3.78338444      -0.00399259      -0.00370634      -0.00423404
