49
Lattice="12.336457 0.0 0.0 -6.168228499999997 10.683685154694365 0.0 0.0 0.0 15.0" Properties=species:S:1:pos:R:3:forces:R:3 energy=-428.3530683872641 free_energy=-428.3530683872641 stress="-0.005031810386845667 -0.0034489258753762513 -4.2142523731864035e-06 -0.0034489258753762513 -0.005332732339241 5.961519335820166e-06 -4.2142523731864035e-06 5.961519335820166e-06 -8.115462320336336e-07" pbc="T T T"
C       -0.00545737      -0.00727836       3.76751328       0.00538686      -0.00069296       0.00486275
C       -1.26376971       2.11340209       3.99708119       0.00532748      -0.00989851      -0.00676108
C       -2.50670988       4.25767410       3.84399458      -0.00878907       0.00412654      -0.00147347
C       -3.70549440       6.40001090       3.62123364      -0.01086724      -0.00475826      -0.00094021
C       -4.92593754       8.54318220       3.57759376       0.00234833      -0.00258615      -0.00230316
C        2.46532482      -0.03884736       3.71698775      -0.00481477       0.00314754       0.00160936
C        1.23340841       2.04194945       4.18633121      -0.00086354      -0.00928368       0.00031548
C       -0.11243949       4.27948580       4.29747273      -0.00594202       0.00270475      -0.01225171
C       -1.26087369       6.39679478       3.80334122       0.00240374       0.00782308       0.00576540
C       -2.45705457       8.52727664       3.61322982      -0.00041300      -0.00499893      -0.00220645
C        4.93636059      -0.02044947       3.61301582       0.00424933      -0.00449941      -0.00491801
C        3.67277524       2.08127821       3.75453234       0.00188395       0.00924460      -0.00080080
B        1.21458957       6.39561760       3.98849835      -0.00460581       0.00356614       0.00410208
C        0.01223010       8.52626839       3.64296130       0.00409394      -0.00699828       0.00453462
C        7.39981067      -0.00876477       3.60253902      -0.00022358       0.00909563       0.00359776
C        6.14303911       2.14561943       3.61788799      -0.00229780       0.01605304      -0.00557936
C        4.91563435       4.35584334       3.59990600      -0.00166677      -0.00006830       0.00140337
O        3.79633980       6.49209001       3.44811234       0.00912594       0.00053311       0.01476046
C        2.49983903       8.52809707       3.58358755      -0.00384938      -0.00501033       0.00265249
C        9.86319956      -0.00703548       3.67725192       0.00336968      -0.00325279       0.00045505
C        8.61329105       2.12904809       3.72014893       0.00150869      -0.00123892      -0.00549104
C        7.37664271       4.27696987       3.62207092      -0.00732636      -0.00064227      -0.00775427
C        6.18452202       6.44015694       3.50767872      -0.00509999      -0.00485788      -0.00150368
C        4.95540912       8.55947462       3.53062083       0.00654212       0.00568284       0.00447826
C       -0.01751582       1.40248883       4.00637872       0.00380690      -0.00962762       0.00443097
C       -1.28974158       3.53351546       4.07003569      -0.00525681      -0.00424900       0.00283187
C       -2.49194363       5.68091477       3.74988224      -0.00349379       0.00859387      -0.00100361
C       -3.69239060       7.82376278       3.59375115      -0.00129558      -0.00704374      -0.01549298
C       -4.93778360       9.95983213       3.68208975      -0.00105656      -0.00146752       0.00415172
C        2.45324859       1.36793609       3.88980783       0.00019535       0.00455986      -0.00313849
P        1.35904195       3.60175758       4.99440136       0.00571870      -0.00542103       0.00139514
C       -0.07452019       5.66974508       4.05842146       0.00114159       0.00808049       0.01338139
C       -1.22394113       7.81334409       3.67245241       0.00306614       0.00098360       0.00446195
C       -2.46286294       9.94684154       3.62697165      -0.00363615      -0.00240875      -0.00238180
C        4.92349250       1.40893623       3.64251373       0.00328952       0.00493827       0.00133283
B        3.64971989       3.56255879       3.75088979       0.00500957       0.00922438      -0.00184644
C        1.26245754       7.83380228       3.68815171      -0.00113317      -0.00845385       0.00982947
C        0.00075403       9.95705323       3.59460648       0.00690113      -0.00609995      -0.00334241
C        7.38256989       1.42233120       3.63172372      -0.00388592       0.01346469      -0.00161618
C        6.13484403       3.58131651       3.60034748      -0.00404668       0.00960956      -0.00021875
C        4.97252054       5.76487515       3.53779098      -0.00177545      -0.00609941      -0.00848423
C        3.74510383       7.87027400       3.52720947       0.00342999       0.00150644       0.00121442
C        2.47539698       9.96173910       3.59889795      -0.00251296       0.00092818      -0.00076293
C        9.85134263       1.41648246       3.79746839       0.00522812      -0.00724986      -0.00817236
C        8.60548864       3.55378855       3.72608873      -0.00701717      -0.00084201      -0.00988078
C        7.39820006       5.69556522       3.57730359      -0.01206919      -0.00485275       0.00645852
C        6.18819794       7.85381439       3.51716789       0.00408002      -0.00232874       0.00245582
C        4.93413843       9.97658371       3.65169366       0.00784665       0.00442045       0.00340196
Ni       2.68689583       5.11142585       4.43508250       0.00798500      -0.00335615       0.00444102
