49
Lattice="12.336457 0.0 0.0 -6.168228499999997 10.683685154694365 0.0 0.0 0.0 15.0" Properties=species:S:1:pos:R:3:forces:R:3 energy=-428.64245647011217 free_energy=-428.64245647011217 stress="-0.005437660502424364 -0.004614036421089511 -8.438739182012025e-07 -0.004614036421089511 -0.002300396708325783 -2.7905790240224994e-08 -8.438739182012025e-07 -2.7905790240224994e-08 1.905378210823395e-06" pbc="T T T"
C        0.00016124      -0.00143984       3.79119708       0.00442356       0.00819039       0.00584684
C       -1.26616167       2.10640475       3.79743789      -0.00103696       0.00696376       0.00015342
C       -2.48466071       4.26220593       3.76534799       0.00362060      -0.00151962       0.00367968
C       -3.68856735       6.41145196       3.76005336      -0.00063902      -0.00720284      -0.00308078
C       -4.91502059       8.55736568       3.78370430      -0.00292548      -0.00230111      -0.00129789
C        2.45813882       0.01496236       3.74171481       0.01196255      -0.00454118       0.00113170
C        1.18634717       2.11636432       3.79054723      -0.00154933       0.00006811       0.00842665
C       -0.06420802       4.20366276       3.77507045      -0.00388482      -0.00246844       0.00785678
C       -1.23087977       6.38193677       3.69881600      -0.00108596       0.00219702       0.00702349
C       -2.45083914       8.54437971       3.71397908      -0.00363416       0.00655558       0.00436878
C        4.93436297      -0.00165168       3.68561399       0.00067961       0.00560915      -0.00164961
C        3.67164212       2.13198150       3.65865526      -0.00700184      -0.00446432      -0.00531366
B        1.19237339       6.38441586       3.57987712       0.00027786       0.00316475      -0.00361632
C        0.01461398       8.53467180       3.66169559       0.00050871       0.00196588      -0.00269733
C        7.40257130      -0.00901154       3.71156154      -0.01434481      -0.00568077       0.00907306
C        6.14760796       2.15312919       3.69665107       0.00552518      -0.00596630       0.00588989
C        4.96265214       4.36046437       3.73285606      -0.00021597       0.00492637      -0.00063196
O        3.80342270       6.46381872       3.92464990       0.00251610       0.00032082       0.00217696
C        2.50562378       8.51537101       3.73399115       0.00202677       0.00543686      -0.00086437
C        9.86217226      -0.01940134       3.77966444      -0.00496491      -0.00312213       0.00128302
C        8.61490310       2.12869666       3.76086766       0.00770127       0.00431794      -0.00676601
C        7.40102162       4.28359778       3.75727408      -0.00106466       0.00108440      -0.00021633
C        6.20029413       6.44808058       3.80352993       0.00467869      -0.00029066       0.00424767
C        4.95530696       8.54641153       3.80831266      -0.00180387      -0.01100463       0.00185278
C       -0.02142816       1.41989715       3.79502040      -0.00289424       0.01290233       0.00577142
C       -1.26680923       3.51837847       3.78341526      -0.00343604       0.00078730      -0.00338241
C       -2.46727949       5.68323508       3.74207744       0.00117192      -0.00660874       0.00137812
C       -3.68115538       7.83786302       3.75379821      -0.00352259      -0.00109838       0.00345074
C       -4.92826234       9.98587488       3.77664872       0.00705009       0.00344105      -0.00028499
C        2.42868714       1.45066708       3.73313045      -0.00235140      -0.00771118      -0.00671766
O        1.12962836       3.50295065       3.90252187      -0.00332477      -0.00016460      -0.00342519
C       -0.02867556       5.60540543       3.69917459       0.00041462      -0.00172171       0.00920257
C       -1.21342940       7.81314585       3.68180340      -0.00318965       0.00677829      -0.00669006
C       -2.46796659       9.97529134       3.71039756       0.00927570       0.00323520      -0.00303806
C        4.91993348       1.43144510       3.67302529      -0.00049412      -0.00170388      -0.00523005
B        3.74174503       3.58259085       3.60757204       0.00101592      -0.00078591      -0.00092275
C        1.26317721       7.83448386       3.64637950       0.00589524       0.00550618      -0.00578697
C        0.00056540       9.96768132       3.68298821      -0.01059121      -0.00323647       0.00055863
C        7.38485320       1.42188555       3.72324985       0.00811991      -0.00486867       0.00003305
C        6.16485016       3.58427059       3.72337499      -0.00135685       0.00038153       0.00026648
C        4.99782269       5.76231449       3.80650229       0.00380618       0.00546231       0.00322620
C        3.74753056       7.84981057       3.80383540      -0.00303966      -0.00318443      -0.00148333
C        2.47616690       9.95126835       3.74372312      -0.01296118       0.00150741       0.00514395
C        9.84886693       1.40921705       3.78374509       0.00332321      -0.00021046      -0.00465430
C        8.62224377       3.55531048       3.76454767       0.00201003       0.00515244      -0.00474542
C        7.41820347       5.70469586       3.77681954       0.00020575      -0.00277778      -0.00092411
C        6.20005932       7.86013502       3.80962386       0.00012670      -0.00775574      -0.00290977
C        4.93349751       9.96778310       3.79549713       0.00251431      -0.00894415       0.00064880
Ni       2.46168996       4.98507913       4.12277904       0.00246303       0.00337899      -0.01636134
