49
Lattice="12.336457 0.0 0.0 -6.168228499999997 10.683685154694365 0.0 0.0 0.0 15.0" Properties=species:S:1:pos:R:3:forces:R:3 energy=-436.8772554729473 free_energy=-436.8772554729473 stress="-0.008335847337559097 -0.0004901178987956983 5.02268110956575e-07 -0.0004901178987956983 -0.004918252934570614 -5.272523003628987e-07 5.02268110956575e-07 -5.272523003628987e-07 1.1019284366559688e-06" pbc="T T T"
C       -0.00130745      -0.00760130       3.74725834      -0.00693051       0.00554280       0.00388827
C       -1.24242283       2.12484757       3.74396305      -0.00251167      -0.00246836      -0.00350654
C       -2.48513536       4.26552683       3.73270600       0.00341627      -0.00049734       0.00137041
C       -3.70653815       6.40794491       3.73630164       0.00054979      -0.00025434       0.00097883
C       -4.93115589       8.54583326       3.74852836      -0.00727990      -0.00219823      -0.00715498
C        2.46553936      -0.02463292       3.74805778      -0.00191389       0.00303036      -0.00614821
C        1.24103213       2.10658733       3.75891729      -0.00005624       0.00816787      -0.00233675
C       -0.04356848       4.29115840       3.75090404       0.01576490       0.00771659      -0.00538495
C       -1.27857164       6.42420958       3.73083552       0.00554024       0.00083636       0.00949275
C       -2.47572476       8.54521554       3.73624081       0.00080728      -0.00890859       0.00336212
C        4.93709079      -0.01649498       3.74460125       0.00542640       0.00297100       0.00818453
C        3.69291008       2.09403663       3.76608934       0.00063563       0.00738156       0.00105819
C        1.15089306       6.40619294       3.76832978      -0.00409576       0.00768133      -0.00102798
C       -0.00852354       8.53059010       3.74621159       0.00158963      -0.00399033       0.00795568
C        7.40417251      -0.02347622       3.74892035      -0.00033555      -0.00512527       0.00884917
C        6.16767240       2.12685719       3.75489214       0.00440038       0.00276821       0.00249384
C        4.95961325       4.31224990       3.78142522      -0.01262382       0.00536655      -0.00836014
N        3.80630768       6.44069687       3.79385052       0.00892287       0.00375030      -0.00781574
C        2.48092069       8.50683448       3.77097837      -0.00078193       0.00221276      -0.00584800
C        9.86564395      -0.01955288       3.75044546       0.00283078      -0.01374931       0.00492746
C        8.63080700       2.12197395       3.74399287       0.00163880      -0.01398744      -0.00648066
C        7.40435514       4.26777046       3.74746707      -0.00720863       0.00514875       0.00721365
C        6.19800166       6.42998194       3.76468185      -0.00288011       0.00044300       0.00031371
C        4.94757095       8.53991108       3.76443348      -0.00038406      -0.00325155       0.00446733
C       -0.00233241       1.41911186       3.74849568      -0.00193516       0.00379369       0.00684329
C       -1.24845106       3.55185286       3.73981966       0.01247786       0.00265204       0.00593391
C       -2.48969979       5.69199366       3.72860177       0.00514751       0.00376910       0.00735067
C       -3.70283208       7.83264935       3.74062200      -0.00363021      -0.00632019      -0.01212692
C       -4.93737443       9.96357978       3.74680042      -0.00610507       0.00081348       0.00314166
C        2.46411979       1.38999377       3.75787799      -0.00154661       0.00651160       0.00097937
B        1.29115726       3.61034108       3.76870208       0.00540470       0.00169132       0.00134752
C       -0.05442776       5.71232324       3.74758416       0.00408302       0.00709778       0.00103200
C       -1.24594007       7.83770349       3.73531240       0.00497304      -0.00298569      -0.00273195
C       -2.46718548       9.96041159       3.74202482       0.00315779      -0.00288523       0.00114929
C        4.93690779       1.40958788       3.75529189       0.00341066       0.00949592       0.00176186
B        3.65534119       3.58571299       3.78549290      -0.00832463       0.00428535      -0.00266879
C        1.23234564       7.78521469       3.76449356       0.00135336       0.00187713      -0.01027634
C        0.00054138       9.95053415       3.74571036       0.00175376      -0.00536033      -0.00088580
C        7.39895809       1.40691273       3.74825267       0.00130286      -0.01015687      -0.00122075
C        6.16746999       3.55937627       3.76180404      -0.00866973       0.00371850      -0.00011333
C        4.97919650       5.74112672       3.78344190       0.00059433       0.00217254      -0.00332275
C        3.72875987       7.80503324       3.78084919       0.00075086       0.00020488      -0.01415282
C        2.47056074       9.93328898       3.75670411      -0.00017282      -0.00190561      -0.00155637
C        9.86401650       1.40870466       3.74397568       0.00154207      -0.01385882       0.00177892
C        8.62888274       3.55077694       3.73887409      -0.00274108      -0.00376331       0.00281999
C        7.41056382       5.69234620       3.74820585      -0.00628813       0.00677762       0.00057958
C        6.17727895       7.84138977       3.75909031      -0.00608331      -0.00277876       0.00435595
C        4.93493593       9.96129380       3.75198462      -0.00093455      -0.00517764       0.00781494
Ni       2.50501769       5.18062875       3.79467532      -0.00404143      -0.00825519      -0.00832513
