49
Lattice="12.336457 0.0 0.0 -6.168228499999997 10.683685154694365 0.0 0.0 0.0 15.0" Properties=species:S:1:pos:R:3:forces:R:3 energy=-429.89759232809655 free_energy=-429.89759232809655 stress="-0.00329380335039745 5.928123717395275e-07 2.8341291944118544e-07 5.928123717395275e-07 -0.004240909167900756 2.0927530068818606e-07 2.8341291944118544e-07 2.0927530068818606e-07 9.548051917050298e-07" pbc="T T T"
C       -0.00503144      -0.01618803       3.74898362      -0.00275014       0.00239661       0.00211728
C       -1.23061363       2.13840426       3.74368186      -0.00915664      -0.00064297       0.00413463
C       -2.46426192       4.26938405       3.73621048       0.00244799       0.00512599       0.00011523
C       -3.70130082       6.39785610       3.74143971      -0.00173460       0.01082016      -0.00168424
C       -4.93913746       8.53122273       3.75157470       0.00068189      -0.00425933      -0.00902277
C        2.46688820      -0.04352058       3.74926605      -0.00018083      -0.00324534       0.00422297
C        1.24532604       2.08486960       3.75765952      -0.00343081       0.01311755      -0.00462297
C        0.00455412       4.32651437       3.74731054       0.00840168      -0.00369880      -0.00134943
C       -1.25124578       6.42179597       3.72994189       0.00394605      -0.00251343       0.01058638
C       -2.46355902       8.53125592       3.74166916      -0.00072926      -0.00507363      -0.00141592
C        4.93876585      -0.01628448       3.74876367       0.00490279       0.00265969       0.00386348
C        3.68850349       2.08493197       3.76653726       0.00318946       0.00854112       0.00225703
O        1.12793095       6.45848109       3.76905205       0.00002993      -0.00557422      -0.00659023
C        0.00220335       8.53496166       3.74434559       0.00079965      -0.00022933       0.00183929
C        7.40854545      -0.01889986       3.74993128       0.00345800      -0.00399828       0.00456545
C        6.16433765       2.13828002       3.75649652       0.00936908       0.00191605      -0.00010657
C        4.92920245       4.32638896       3.77703052      -0.00790991       0.00122986       0.00318572
O        3.80613303       6.45908461       3.81166477      -0.00402702      -0.01058714      -0.01438804
C        2.46676949       8.48173917       3.76174806       0.00213095      -0.00230906       0.00127362
C        9.86186009      -0.01896479       3.75094841      -0.00673681      -0.00292644      -0.00282995
C        8.63508285       2.13060435       3.74570202      -0.00002524      -0.00959142      -0.00160681
C        7.39777774       4.26959453       3.74909547      -0.00066389       0.00032959       0.00402793
C        6.18489483       6.42169918       3.76070861      -0.00110910      -0.00133791       0.00251038
C        4.93160703       8.53490965       3.75862012      -0.00161355       0.00073910       0.00174290
C       -0.00198661       1.41200952       3.74854433      -0.00539440       0.00412263       0.00590950
C       -1.21954896       3.57061412       3.73982306       0.00419023       0.00018603       0.00669969
C       -2.47349802       5.68593952       3.73303625      -0.00293954       0.01129360       0.00325620
C       -3.70131829       7.82079183       3.74582353      -0.00084184       0.00113073      -0.00957967
C       -4.93991467       9.95092946       3.74961865      -0.00166794      -0.00674852      -0.00104632
C        2.46696076       1.36979549       3.75782073      -0.00217595       0.00719444       0.00141269
B        1.31788330       3.56988508       3.76392718       0.00162690       0.00883254      -0.00426051
C       -0.05450871       5.72912492       3.74220210       0.00175455      -0.00666844       0.00527593
C       -1.23854318       7.83488981       3.73683587      -0.00019312      -0.00287151      -0.00015043
C       -2.46284430       9.95084038       3.74593631       0.00352432      -0.00352250       0.00356918
C        4.93571492       1.41180963       3.75786693       0.00747024       0.00868930       0.00013177
B        3.61600631       3.56976891       3.78441200      -0.00377337       0.00617200      -0.01021403
C        1.20366852       7.84603708       3.75557883       0.00101886      -0.00171977       0.00145919
C        0.00484800       9.96234036       3.74772051       0.00372343       0.00329327      -0.00390671
C        7.40015587       1.41929994       3.75002927       0.00435371      -0.00903960       0.00089048
C        6.15321391       3.57058059       3.76061742      -0.00351023       0.00010716       0.00106896
C        4.98819742       5.72910914       3.78013519      -0.00038523      -0.00351459       0.00151835
C        3.72997316       7.84622149       3.77010899       0.00214184      -0.00781396      -0.00385351
C        2.46693513       9.93375360       3.75359659      -0.00052318      -0.00131349       0.00002123
C        9.87008688       1.41924513       3.74565265      -0.00508680      -0.00715282      -0.00155118
C        8.63491420       3.55587638       3.74209541       0.00296952      -0.00422544       0.00242166
C        7.40721853       5.68615255       3.74917596       0.00190206       0.00546195       0.00111637
C        6.17233516       7.83473481       3.75702239      -0.00091154       0.00166438       0.00405471
C        4.92907171       9.96222368       3.75170478      -0.00617919       0.00667839      -0.00055339
Ni       2.46713972       5.10845521       3.78705277      -0.00038301      -0.00112421      -0.00651558
