50
Lattice="12.336457 0.0 0.0 -6.168228499999997 10.683685154694365 0.0 0.0 0.0 15.0" Properties=species:S:1:pos:R:3:forces:R:3 energy=-439.82249010853764 free_energy=-439.82249010853764 stress="-0.0039850924492525796 0.0028568016919249322 -7.853572368984249e-06 0.0028568016919249322 -0.0026781452500788533 5.021796184350322e-06 -7.853572368984249e-06 5.021796184350322e-06 2.2787010994158866e-06" pbc="T T T"
C       -0.00499421       0.02814721       3.61374122       0.00507750       0.00239258      -0.00302513
C       -1.22940914       2.16165649       3.64466401      -0.00382606      -0.00054012      -0.00553970
C       -2.46550041       4.30039142       3.72174786      -0.00567797       0.00298939       0.00135573
C       -3.71045002       6.43465355       3.69727003       0.00017412      -0.00006338       0.01661505
C       -4.95505231       8.56509436       3.61503139      -0.00259516      -0.00532350      -0.00019290
C        2.45814650       0.02763220       3.70132693      -0.00001524       0.00517638      -0.00678735
C        1.24405992       2.19310668       3.56603198      -0.00464307      -0.00418199       0.00160610
C       -0.02043678       4.30770975       3.76489228       0.00431034      -0.00381990       0.00950961
C       -1.26606615       6.43700459       4.03102756      -0.00490809       0.00021149       0.00798038
C       -2.48545487       8.57217617       3.89469750      -0.00121336      -0.00260795       0.00310087
C        4.93067415       0.01881233       3.87935895       0.00004564       0.00057097      -0.00620223
C        3.71799391       2.13903068       3.63296867       0.00202430       0.00148555       0.00157477
B        2.54950855       4.39911789       3.13661683       0.00603209       0.00282241       0.00146976
P        1.26215762       6.33654309       5.10171340      -0.00309351      -0.00158005       0.00536969
C       -0.01909029       8.58283097       4.17185547       0.00409647      -0.00240251      -0.00379420
C        7.40367714       0.02511233       3.93673299      -0.00162995       0.00167576      -0.00739271
C        6.19281728       2.13412501       3.73366656       0.00572984       0.00230672       0.00543464
C        5.01597388       4.23800950       3.41412038      -0.00555567       0.00099264      -0.01030510
P        3.36545158       6.21559576       2.90567937      -0.00637113       0.00082051      -0.00246646
C        2.45691498       8.59026579       3.96596973      -0.00334991       0.00382417      -0.00823122
C        9.87236725       0.02438321       3.74605124      -0.00336732      -0.00480835      -0.00206995
C        8.64906256       2.15434118       3.74338808       0.00560158      -0.00052299      -0.00128946
C        7.43264006       4.28844001       3.60784598      -0.00441657       0.00036637       0.01024075
C        6.16963849       6.41834048       3.40591596       0.00516017      -0.00431820      -0.00037336
C        4.90033668       8.55420607       3.53837560       0.00095943       0.00798020       0.00061849
C        0.00814736       1.46053775       3.60698669      -0.00475058      -0.00091927      -0.00237183
C       -1.23871179       3.58576807       3.68326093      -0.00354460       0.00191094       0.00122176
C       -2.48214116       5.72547138       3.80552072      -0.00364244       0.00152395       0.00556691
C       -3.71807958       7.86103229       3.73345946      -0.00060863      -0.00263180      -0.00486623
C       -4.94355890       9.99534984       3.63947780       0.00296264      -0.00148525      -0.00045933
C        2.46714990       1.46074222       3.62519065      -0.00112937       0.00555344       0.00303985
C        1.23985403       3.64063900       3.57112557       0.00494942      -0.00876211       0.00611066
C       -0.07257297       5.67516139       4.15185519       0.00047321       0.00221315       0.00179108
C       -1.25995483       7.86456249       4.08490345       0.00295137      -0.00204580       0.00134262
C       -2.48219672       9.99817096       3.83646117      -0.00159771      -0.00040135      -0.00974686
C        4.94937215       1.43028602       3.75410306       0.00526574       0.00225595       0.00128684
C        3.77528716       3.54786270       3.52244564      -0.00278749      -0.00065601       0.00327383
C        1.23346066       7.93103704       4.32286481       0.00156325      -0.00808838      -0.00686546
C       -0.00828077      10.00153142       4.00489668       0.00125962       0.00007931      -0.00218683
C        7.41776180       1.43756264       3.81586709       0.00767282       0.00150205      -0.00471319
C        6.22507582       3.54599471       3.58098946      -0.00503046       0.00212983      -0.00204078
C        4.99500903       5.63881048       3.23473405      -0.00326169       0.00356106       0.00840801
C        3.63049653       7.89001547       3.55669194       0.00224044       0.00838074       0.00309646
C        2.47056105      10.00982050       3.90504236      -0.00645615      -0.00068079      -0.00889122
C        9.87852684       1.44654577       3.71360207       0.00067533      -0.00636943       0.00064879
C        8.65278484       3.57908124       3.68925923      -0.00370948       0.00012832      -0.00087918
C        7.40918144       5.71463574       3.55721498       0.00617725      -0.00242209      -0.00379829
C        6.14700202       7.84823311       3.48686057      -0.00218432      -0.00465930      -0.00394665
C        4.92838325       9.98977570       3.63492775       0.00283418       0.00610557       0.00853588
Ni       2.63075564       4.74935131       5.02222795       0.01112919       0.00033110      -0.00076289
