49
Lattice="12.336457 0.0 0.0 -6.168228499999997 10.683685154694365 0.0 0.0 0.0 15.0" Properties=species:S:1:pos:R:3:forces:R:3 energy=-436.56478113909975 free_energy=-436.56478113909975 stress="-0.008183377486816176 -0.0007907209023584385 -1.4637170833791885e-07 -0.0007907209023584385 -0.004581976832085479 2.3892188558745243e-07 -1.4637170833791885e-07 2.3892188558745243e-07 1.4902615205719909e-06" pbc="T T T"
C       -0.00309147       0.00456172       3.76138323      -0.00086819      -0.00483729       0.01150455
C       -1.24161136       2.12139467       3.75668039      -0.00933238       0.00111733      -0.00419245
C       -2.47109343       4.26743517       3.73480248      -0.00981884       0.00014179       0.01149199
C       -3.69328123       6.41463727       3.73990509      -0.00930647       0.00860422      -0.00085996
C       -4.92617635       8.55918028       3.75707623       0.00607777      -0.00562814       0.00052644
C        2.45649063       0.01094923       3.75581421       0.00235998      -0.00640036      -0.00474601
C        1.21256079       2.17869408       3.77745684      -0.00162756      -0.00428888      -0.00047807
C       -0.03236184       4.22558216       3.75987933      -0.00650599      -0.01423036      -0.00481062
C       -1.24032352       6.40418617       3.72719610       0.00087271       0.00124847      -0.00067689
C       -2.46651121       8.55266157       3.73299338      -0.00278953       0.00816645       0.00441023
C        4.93280635       0.00044111       3.73835229       0.00566373      -0.01108509       0.00390515
C        3.68741386       2.10137027       3.75203202       0.00631217      -0.00591413      -0.00939946
B        1.22623187       6.41454931       3.72170170       0.01759598      -0.00250121       0.00802001
C       -0.01056193       8.55840218       3.72741594       0.00025228       0.01627079      -0.00456311
C        7.40334549      -0.00174280       3.74732750       0.00334411      -0.00733341      -0.01417509
C        6.17165351       2.13374473       3.74330045       0.00933296      -0.00418108       0.00084840
C        5.01421359       4.30880353       3.76818000       0.00569681       0.00155965      -0.00562028
C        3.70781280       6.36451034       3.79665252       0.00130220       0.00251363      -0.01252937
C        2.47350590       8.54940363       3.76000311      -0.00342686       0.00673909      -0.00269140
C        9.87025599      -0.01012959       3.75896415      -0.00899447       0.00500797      -0.00028373
C        8.63681436       2.12985639       3.74027140      -0.00771168      -0.00518566       0.01162652
C        7.42583931       4.27825570       3.74599904       0.00998614       0.01007921      -0.00431916
C        6.19624667       6.43550135       3.77378899       0.00471332       0.00561135      -0.00246531
C        4.93604207       8.53063455       3.77651110      -0.00008705      -0.00543256      -0.00036485
C       -0.00659025       1.43281046       3.76579386      -0.00728017       0.00356072       0.00309646
C       -1.25322095       3.53223060       3.75008432      -0.01378754      -0.00452790      -0.00868645
C       -2.47341352       5.69295557       3.73043783      -0.01182778       0.00357628       0.00497353
C       -3.69839278       7.84235171       3.74198253       0.00033345       0.00682597       0.00444847
C       -4.93683302       9.97971748       3.75704986       0.00110102      -0.00463965       0.01252988
C        2.44462129       1.43625072       3.76563287       0.00209967      -0.00388755      -0.00805987
N        1.16492514       3.55578143       3.79262347       0.00651906       0.00191611      -0.01077363
C       -0.03968182       5.65352002       3.73763350       0.00176897      -0.01192691      -0.00165697
C       -1.23522800       7.83617395       3.72393383      -0.00200402       0.01178856       0.01066204
C       -2.47296684       9.97928380       3.74247092       0.00211903      -0.00113683      -0.00888274
C        4.93841901       1.42055146       3.74293428       0.00845412      -0.01492508       0.00587795
B        3.76307919       3.55671615       3.75124144      -0.00872269       0.00426072       0.01149555
C        1.23575542       7.88334494       3.73035231      -0.00367454       0.00683756      -0.00081981
C       -0.00390566       9.97829813       3.73589385       0.00775058       0.00711541       0.00702302
C        7.40287006       1.42116021       3.74370316       0.00074949      -0.01162520      -0.00747958
C        6.19859921       3.56129124       3.75111739       0.01010773       0.00711547       0.00371858
C        4.95850940       5.72878076       3.78475464       0.00539481       0.00566861      -0.00529211
C        3.69160170       7.77593025       3.78107991      -0.00449642       0.00774061       0.00336479
C        2.47167786       9.96853456       3.75824518      -0.00371609       0.00283204      -0.00929656
C        9.86503790       1.41183093       3.74923137      -0.00875861      -0.00016532       0.00945617
C        8.64023545       3.55652342       3.73597049      -0.00215044      -0.00553596       0.01035097
C        7.41707126       5.70573340       3.75323275       0.00287663       0.00846832       0.00063400
C        6.17837999       7.84757855       3.77344441       0.00809450      -0.00235991      -0.01363774
C        4.93352204       9.95623705       3.76446825      -0.00450311      -0.00574697       0.01148588
Ni       2.42710039       4.93207930       3.83771963       0.00051125      -0.00127088      -0.00468935
