49
Lattice="12.336457 0.0 0.0 -6.168228499999997 10.683685154694365 0.0 0.0 0.0 15.0" Properties=species:S:1:pos:R:3:forces:R:3 energy=-433.2347751161742 free_energy=-433.2347751161742 stress="-0.004573559791942438 -0.0004164442306355492 2.8116807131178093e-07 -0.0004164442306355492 -0.003928307753510736 -1.7160555409962437e-07 2.8116807131178093e-07 -1.7160555409962437e-07 9.730343549631537e-07" pbc="T T T"
C       -0.00289553      -0.01101520       3.74912308      -0.00227869       0.00694230       0.00380019
C       -1.23536662       2.13217537       3.74479039      -0.01096394      -0.00448431       0.00302884
C       -2.47566515       4.26853630       3.73476554      -0.00044689       0.00077889       0.00351156
C       -3.70579024       6.40283796       3.73898855       0.00253803       0.00445965       0.00020245
C       -4.93914269       8.53623399       3.75138458      -0.00328042      -0.00505642      -0.01241623
C        2.46717844      -0.03555056       3.74876629       0.00251304      -0.00167429      -0.00044235
C        1.24355320       2.09347369       3.75995412      -0.00124846       0.00721567      -0.00353475
C       -0.01697547       4.31230319       3.75281709       0.00701383       0.00341965      -0.00707963
C       -1.25929396       6.42334301       3.73263883       0.00130268      -0.00007663       0.01144906
C       -2.46912591       8.53645126       3.73799480       0.00382009      -0.00339117       0.00472746
C        4.93977661      -0.01876113       3.74598618       0.00771361       0.00238765       0.00571970
C        3.69185130       2.09027665       3.76448314      -0.00089659       0.01245420       0.00130507
N        1.14977319       6.42501950       3.76691763      -0.00456376       0.00483981      -0.00707936
C        0.00438607       8.52615399       3.74594202       0.00075586      -0.00504838       0.00441327
C        7.40857770      -0.02040659       3.74985381      -0.00013524      -0.00273191       0.00398888
C        6.16577085       2.13598313       3.75488937       0.00706255      -0.00282215      -0.00068771
C        4.93926136       4.32787899       3.77507901      -0.00535062       0.00590152       0.00122018
O        3.79934179       6.45800635       3.80827504      -0.00337913      -0.00791374      -0.01255427
C        2.47995509       8.48822734       3.76470514       0.00416467       0.00001676      -0.00004546
C        9.86365721      -0.02013384       3.75092798      -0.00182950      -0.00905885      -0.00212614
C        8.63301560       2.12792071       3.74477030       0.00286937      -0.00837078      -0.00219068
C        7.39738183       4.27044665       3.74807007      -0.00556308       0.00350238       0.00265291
C        6.18399911       6.42473814       3.76180230      -0.00453377       0.00149645      -0.00010229
C        4.93676346       8.54012438       3.75953897      -0.00146201      -0.00224589       0.00417919
C       -0.00110869       1.41655831       3.75018231      -0.00518289       0.00616278       0.00445136
C       -1.23099943       3.56424951       3.74158064       0.00223151      -0.00148359       0.00643634
C       -2.47925669       5.69061329       3.73128598       0.00325926       0.00455643       0.00847020
C       -3.70256004       7.82581943       3.74345756       0.00185141      -0.00152378      -0.01028464
C       -4.93863260       9.95680256       3.74928314      -0.00077713      -0.00360189       0.00066181
C        2.46642208       1.37862811       3.75796805      -0.00122498       0.00417333      -0.00016897
B        1.29846746       3.58935282       3.76893856       0.00689105       0.00561539      -0.00319415
C       -0.03487081       5.73643752       3.74885722       0.00036496       0.00399275      -0.00091503
C       -1.23695587       7.83300844       3.73636015       0.00189700      -0.00346513       0.00144982
C       -2.46312570       9.95341763       3.74302278       0.00800684      -0.00098890       0.00409651
C        4.93668044       1.40962559       3.75539889       0.00286457       0.00804198       0.00062094
B        3.63048010       3.57858194       3.78068802      -0.01021000       0.01239141      -0.00328266
C        1.22039041       7.78546136       3.76082519       0.00256508       0.00099119      -0.00560177
C        0.00618161       9.95275060       3.74677745       0.00264504      -0.00573147      -0.00120718
C        7.40014296       1.41429476       3.74925633       0.00634672      -0.00770510      -0.00085355
C        6.15826297       3.56855661       3.75935819      -0.00468480      -0.00144277      -0.00004115
C        4.99054869       5.73181782       3.77931312      -0.00218367       0.00095403       0.00251769
C        3.72944207       7.85404284       3.77192384       0.00122717      -0.00701962      -0.00563692
C        2.47058091       9.93085644       3.75467720      -0.00098768      -0.00159265      -0.00044598
C        9.86834585       1.41617442       3.74518031      -0.00450420      -0.01129255       0.00069588
C        8.63213302       3.55477584       3.74047286      -0.00182743      -0.00239548       0.00280175
C        7.40674356       5.68891254       3.74864284      -0.00370026       0.00720389      -0.00131490
C        6.17348334       7.83892330       3.75800524      -0.00556470      -0.00170939       0.00317392
C        4.93125884       9.96569054       3.75167519      -0.00165313       0.00053804       0.00222793
Ni       2.44535156       5.12893363       3.78912425       0.00852862      -0.00520928      -0.00659714
