49
Lattice="12.336457 0.0 0.0 -6.168228499999997 10.683685154694365 0.0 0.0 0.0 15.0" Properties=species:S:1:pos:R:3:forces:R:3 energy=-433.8607723274883 free_energy=-433.8607723274883 stress="-0.004203930433615216 0.0006526915719017243 3.769282757400092e-07 0.0006526915719017243 0.0060350022154698315 3.73549275582849e-07 3.769282757400092e-07 3.73549275582849e-07 9.243812967268781e-07" pbc="T T T"
C        0.00526702       0.01897570       3.75009564       0.00242755       0.00007715       0.00637062
C       -1.24076114       2.12944579       3.74415296      -0.00593607       0.00350285      -0.00186177
C       -2.47689009       4.27169864       3.73545812      -0.00179259       0.00059496      -0.00149430
C       -3.69592071       6.41861282       3.73976901       0.00008610       0.00714823       0.00097677
C       -4.92083353       8.57570567       3.74852113       0.00015908       0.00028076       0.00279682
C        2.47282374       0.06666874       3.75331285       0.00154648       0.00025451      -0.00704035
C        1.21859750       2.22167506       3.76007573      -0.00153787       0.00198290      -0.00660642
C       -0.04046986       4.27688885       3.74887945       0.00664650      -0.00155930      -0.00624715
C       -1.25087128       6.41577605       3.73647944      -0.00238074      -0.00514246       0.00333339
C       -2.46643512       8.56540448       3.74063858      -0.00469750       0.00163412       0.00578956
C        4.93306789       0.00692431       3.74860788      -0.00160848       0.00028952       0.00826551
C        3.73252997       2.13991423       3.76585594       0.00057383      -0.00273481       0.00442350
O        1.13121853       6.40547457       3.75598437       0.00471656      -0.00534748       0.00304183
C       -0.00500272       8.52559074       3.74655751      -0.00455833       0.00085635       0.00526284
C        7.40695958      -0.03723314       3.75032060       0.00379741       0.00971354       0.00381476
C        6.18180856       2.12221144       3.75619245       0.00543549      -0.00153254       0.00139443
C        4.99848244       4.26198490       3.78223927      -0.00503895       0.00122587      -0.00627413
C        3.77969762       6.37190701       3.78680056      -0.01193784      -0.00545708      -0.00540196
C        2.44097647       8.46752146       3.76455499      -0.00131039      -0.00383440      -0.00443555
C        9.86207545      -0.03533994       3.74999588       0.00021315       0.00408862       0.00698752
C        8.63524275       2.11675048       3.74334881       0.00743567       0.00187340      -0.00263155
C        7.41294682       4.27140620       3.74797848       0.00557063      -0.00333712       0.01095143
C        6.20477644       6.41884942       3.76419664      -0.00239599      -0.00676422      -0.00062557
C        4.94119583       8.52891555       3.76307271       0.00186731      -0.00254221       0.00248543
C        0.00691929       1.45278108       3.75085837      -0.00435101      -0.00002125       0.00230673
C       -1.25653586       3.55330437       3.74036064       0.00106994       0.00493643       0.00264723
C       -2.47878669       5.69321085       3.73382810      -0.00537454       0.00060000       0.00649710
C       -3.69968284       7.85226811       3.74247295      -0.00147980       0.00271105      -0.00400414
C       -4.92314288      10.00875068       3.74923425       0.00490691      -0.00357507       0.00962622
C        2.48246739       1.51458275       3.76279059      -0.00104226      -0.00079961      -0.01164555
N        1.16086633       3.59187878       3.76068030       0.00702066      -0.00115178       0.00453042
C       -0.07224800       5.69030434       3.74601955       0.00295108      -0.00349594      -0.00227675
C       -1.24857749       7.84471314       3.74002099      -0.00638125      -0.00126885      -0.00474417
C       -2.47409089      10.00782556       3.74702936      -0.00142076       0.00032258       0.00178247
C        4.93539265       1.43927458       3.75681585       0.00207664      -0.00085324       0.00176182
O        3.79486101       3.55469277       3.78935925      -0.00768592      -0.00081763      -0.00588960
C        1.19952382       7.82281881       3.75628171      -0.00216184      -0.00184030       0.00198881
C        0.00139176       9.95767950       3.74852419       0.00019268       0.00594325      -0.00256822
C        7.40108112       1.40360313       3.74911435       0.00983417       0.00585675      -0.00089773
C        6.18210820       3.54617306       3.76294938       0.00021548      -0.00064844      -0.00245034
C        4.96451780       5.68139957       3.78159324      -0.00923288       0.00008643      -0.00412347
C        3.70663129       7.74259530       3.77477799      -0.00036809      -0.01043686      -0.01515288
C        2.46018594       9.90913549       3.75521879       0.00184193       0.00270566      -0.00550436
C        9.86559126       1.39821352       3.74332261      -0.00016639       0.00516310       0.00612813
C        8.63114846       3.54917736       3.73924690       0.00520513      -0.00318262       0.00536366
C        7.41528761       5.69756239       3.74980615       0.00164485      -0.00086724      -0.00221031
C        6.18548161       7.84415514       3.75836738       0.00023942      -0.00261696       0.00227183
C        4.93794207       9.95705440       3.75325195      -0.00143898       0.00396657       0.00315839
Ni       2.43857822       4.93966543       3.77970572       0.00662382       0.00401279      -0.00987094
