49
Lattice="12.336457 0.0 0.0 -6.168228499999997 10.683685154694365 0.0 0.0 0.0 15.0" Properties=species:S:1:pos:R:3:forces:R:3 energy=-437.56412505799887 free_energy=-437.56412505799887 stress="-0.007837329742687475 -0.0016535268533547955 4.471939820800182e-07 -0.0016535268533547955 0.003525407703073667 7.754849304225881e-08 4.471939820800182e-07 7.754849304225881e-08 9.551771608646293e-07" pbc="T T T"
C       -0.00501248      -0.00276745       3.74834779      -0.00265536      -0.00012053       0.00933219
C       -1.26177372       2.11055310       3.73836195      -0.00294190      -0.00203057       0.00211129
C       -2.48376654       4.26851332       3.73216460       0.00221675      -0.00180263      -0.00294543
C       -3.69518683       6.42066217       3.73879400       0.00131834      -0.00100717       0.00304597
C       -4.92475653       8.56991687       3.75007912       0.00359570      -0.00013241      -0.00203634
C        2.45575998       0.06020615       3.75239762      -0.00433097       0.00297179      -0.00644943
C        1.17938057       2.12474152       3.75794146       0.00148042       0.00343757      -0.00392643
C       -0.07954274       4.24342920       3.74215876       0.00412939       0.00525288      -0.00230728
C       -1.25915109       6.41148468       3.73428349      -0.00107369      -0.00173699       0.00156945
C       -2.47598949       8.57451481       3.73891887      -0.00477389      -0.00470987       0.01183433
C        4.92789235       0.01947069       3.74928399      -0.00130942      -0.00023481       0.00721003
C        3.69220830       2.23173846       3.76810722       0.00096731      -0.00276602       0.00058863
C        1.16802733       6.37164516       3.76082001       0.00345979      -0.00654954       0.00431817
C       -0.01177863       8.52940489       3.74731049      -0.00364751      -0.00268714       0.01082814
C        7.40255396      -0.03765198       3.75013821       0.00355053       0.00794558       0.00863139
C        6.17605839       2.12216419       3.75612108       0.00660155       0.00657313       0.00302942
C        4.97848337       4.27893052       3.78029897      -0.01472560      -0.00847853      -0.00833300
N        3.81686956       6.40710786       3.78807217       0.00577248       0.00499406      -0.00371265
C        2.47932101       8.47504911       3.76718908      -0.00724444      -0.00032674      -0.00096606
C        9.85804109      -0.04218027       3.75259662       0.00363537       0.00053566      -0.00062935
C        8.62829585       2.11092101       3.74296903       0.00016208      -0.00138219      -0.00532258
C        7.41990943       4.26859174       3.74912443       0.00949175       0.00483343       0.00852030
C        6.20815721       6.43056835       3.76693293      -0.00028328      -0.00264009      -0.00345985
C        4.94593899       8.52587015       3.76662503       0.00491303       0.00107116      -0.00069712
C       -0.02222283       1.42138799       3.74547428       0.00029319      -0.00109013       0.00390085
C       -1.26480828       3.53552547       3.73260441       0.00393817       0.00121029       0.00067217
C       -2.47435239       5.69553011       3.73214844      -0.00056218      -0.00217902       0.00090478
C       -3.69687796       7.85381801       3.74120868       0.00045447      -0.00698495       0.00040283
C       -4.93072505      10.00304134       3.74933875      -0.00076827      -0.00050800       0.00535200
C        2.43249571       1.49732779       3.76155808      -0.00037720       0.00331828      -0.00399386
O        1.09791492       3.51962241       3.77104225       0.00383267       0.00344095      -0.00002903
C       -0.02384500       5.66789173       3.74217521       0.00194053       0.00326846       0.01009170
C       -1.24600311       7.83857204       3.73958431      -0.00367152      -0.00054250      -0.01027991
C       -2.47908903      10.00587131       3.74671606      -0.00591291      -0.00230536      -0.00085378
C        4.92843256       1.44859405       3.75832647       0.00550952       0.00389659       0.00101810
C        3.78068923       3.61614643       3.78091895      -0.01850512      -0.00482085      -0.00108950
C        1.22856570       7.75180623       3.75998045      -0.00492011      -0.00865882      -0.00808944
C       -0.00772435       9.95564926       3.74841808       0.00245652       0.00106105       0.00009871
C        7.40531658       1.39008541       3.74830121       0.00332466       0.00367348       0.00380169
C        6.20738753       3.54435618       3.76370776       0.00375439       0.00673813      -0.00606732
C        4.99427158       5.72753139       3.78251146      -0.00295531      -0.00594321      -0.00034089
C        3.72849136       7.77716216       3.77710981       0.00048791       0.00496509      -0.00747337
C        2.46623175       9.90673255       3.75751788       0.00174353       0.00359875      -0.00652265
C        9.85877416       1.39244353       3.74276907      -0.00263352       0.00133452       0.00095309
C        8.63607584       3.54593749       3.73851330       0.00574316      -0.00247231       0.00474442
C        7.42590513       5.69984941       3.75069446       0.00001570       0.00268475      -0.00050224
C        6.18673903       7.84806527       3.76172534       0.00414788      -0.00051510       0.00218987
C        4.92952849       9.94765428       3.75535984      -0.00062455       0.00052968      -0.00050149
Ni       2.57628240       5.11506305       3.78797810      -0.00502002      -0.00470983      -0.01862049
