49
Lattice="12.336457 0.0 0.0 -6.168228499999997 10.683685154694365 0.0 0.0 0.0 15.0" Properties=species:S:1:pos:R:3:forces:R:3 energy=-428.6124293431291 free_energy=-428.6124293431291 stress="-0.002313589687900936 -0.0011502663815127895 -8.572663041745841e-06 -0.0011502663815127895 -0.0036009358724105774 7.494486787230514e-06 -8.572663041745841e-06 7.494486787230514e-06 -4.4157109698497835e-06" pbc="T T T"
C        0.01010816      -0.02159927       3.92176445       0.00596709      -0.00105403       0.00025382
C       -1.22547422       2.12093987       3.89941383       0.00020131       0.00488372       0.00240544
C       -2.47221535       4.25584104       3.72440964      -0.00971925       0.00106899      -0.00074716
C       -3.69948068       6.39230386       3.67337180       0.00257431      -0.00735887       0.00743798
C       -4.92573431       8.52326737       3.78509413       0.00128059      -0.00720368       0.00345542
C        2.48462795      -0.06308536       3.82672125      -0.00036775      -0.00221107       0.00463241
C        1.27729322       2.04610299       4.04676930       0.00569712      -0.00044770       0.00057083
C       -0.03637755       4.31425204       3.89233033       0.00259188       0.00082684      -0.00130830
C       -1.25867108       6.41595458       3.71375396       0.00045086       0.00010768      -0.00686572
C       -2.45620727       8.52543470       3.72133690       0.00031619      -0.00311726       0.00205043
C        4.95487101      -0.03177157       3.64715229      -0.00891846      -0.00195175      -0.00165932
C        3.67953160       2.04884810       3.47718704      -0.00861642       0.01622497       0.00068323
C        1.16013161       6.41556397       4.21858959      -0.00166632       0.00751707       0.00030675
C        0.02250939       8.51585329       3.76867310       0.00211835       0.00072994      -0.00124934
C        7.42018569      -0.02631788       3.68999024      -0.00271125       0.00435579       0.00940932
C        6.16590027       2.13389106       3.50414454      -0.00548561      -0.00155447      -0.01098089
C        4.94097823       4.35979770       3.28907879       0.00741642      -0.00243473      -0.00050389
O        3.80943055       6.49406975       3.30931510       0.00975294       0.00719605      -0.00789451
C        2.51324940       8.49247923       3.77426504      -0.00258067      -0.00249555       0.00505595
C        9.87783357      -0.02206853       3.80948144       0.00091967      -0.01021861      -0.00162408
C        8.63831099       2.11956087       3.69577698       0.00424095       0.00433966       0.00462181
C        7.39170751       4.26224316       3.57536956       0.00017519       0.00510532       0.00264474
C        6.18742714       6.41907929       3.59764480      -0.00072523       0.00395705       0.00114224
C        4.95420483       8.53499622       3.75730298      -0.00643754      -0.00156751       0.00141243
C        0.01380999       1.40597020       3.99294810       0.00373545       0.00335443      -0.00177407
C       -1.22356192       3.55144134       3.82916659      -0.00898095       0.00688052      -0.00480718
C       -2.47374709       5.68133581       3.68830032       0.00163045      -0.00425208      -0.00809191
C       -3.68956980       7.81426578       3.72490827       0.00325745      -0.00808109      -0.00204373
C       -4.92652435       9.93957450       3.87134505       0.00335088      -0.00551407       0.00266858
C        2.48658655       1.34102002       3.81474246       0.00139232      -0.00198569       0.00368775
P        1.58605470       3.75422556       4.28106975       0.00216192      -0.01345731       0.00488595
C       -0.03351544       5.72991462       3.90071914       0.00466840       0.00574775      -0.00494465
C       -1.22376639       7.82506350       3.72123359       0.00154971      -0.00020861      -0.00153086
C       -2.44480744       9.93616829       3.73010678      -0.00562532      -0.00341630      -0.00503455
C        4.94241395       1.39712273       3.52083872      -0.01185226       0.00117461      -0.00054562
P        3.38349883       3.63596926       2.77247639       0.00116610      -0.00045916       0.01053156
C        1.26056131       7.77163862       3.90915864       0.00025686       0.00452963      -0.00190170
C        0.02108341       9.93911268       3.68817165      -0.00352164       0.00181340       0.01556427
C        7.40271303       1.40958925       3.62516161       0.00080881       0.00750254      -0.00008231
C        6.14080828       3.57718221       3.45344528       0.00743807      -0.00103562      -0.00224505
C        4.97965671       5.76260099       3.39602763       0.00484127      -0.00004170      -0.00117620
C        3.75644916       7.83088896       3.64005181      -0.00418380      -0.00002991      -0.00466181
C        2.49006705       9.92518906       3.75442452      -0.00426039      -0.00546783       0.00317616
C        9.87823586       1.41227620       3.81041387       0.00460765      -0.00504890      -0.01095468
C        8.63271843       3.54552059       3.66446803      -0.00554150       0.00320413       0.00381622
C        7.40816143       5.68005132       3.61851034      -0.00104615       0.00349390      -0.00083894
C        6.18683487       7.82818708       3.72556120      -0.00506699       0.00279292      -0.00380879
C        4.94211001       9.95873258       3.85148546       0.00458075      -0.00410383      -0.00966775
Ni       1.96698151       5.29987148       5.65104727       0.00815853      -0.00208957       0.00652970
