49
Lattice="12.336457 0.0 0.0 -6.168228499999997 10.683685154694365 0.0 0.0 0.0 15.0" Properties=species:S:1:pos:R:3:forces:R:3 energy=-437.48179540277505 free_energy=-437.48179540277505 stress="-0.008179800651343308 0.001357348733554414 -7.523429289998484e-08 0.001357348733554414 0.0045947266142456755 -1.9856730623580874e-07 -7.523429289998484e-08 -1.9856730623580874e-07 6.616097074572544e-07" pbc="T T T"
C        0.00266950       0.01960450       3.75290815      -0.00232996       0.00529640       0.00267782
C       -1.24885430       2.11801197       3.74387358      -0.00936432      -0.00303932      -0.00699345
C       -2.49326930       4.26697607       3.73302458      -0.00290817      -0.00329248       0.00122173
C       -3.71364319       6.42208983       3.73800450       0.00064239       0.00237627       0.00206259
C       -4.93507852       8.57438341       3.75069297      -0.00340881      -0.00015372       0.00176428
C        2.47369067       0.06500444       3.75387654       0.00169976       0.00094330      -0.00988899
C        1.23865117       2.23490727       3.75904747       0.00915051       0.00408268      -0.00046019
C       -0.05919988       4.26337989       3.74777222       0.01309425       0.00162887      -0.00291178
C       -1.28990117       6.43334302       3.73499228      -0.00142862      -0.00049112       0.00164441
C       -2.48710858       8.57554072       3.73818360      -0.00424881      -0.00360106       0.01131354
C        4.93523505       0.00143800       3.74735268      -0.00125638       0.00075554       0.00946199
C        3.75016541       2.13373636       3.76660848       0.00258586       0.00554190      -0.00348071
C        1.12809252       6.38794668       3.76361411      -0.00492925       0.00644507      -0.00310166
C       -0.01644660       8.52820379       3.74889838      -0.00057965      -0.00755539       0.00396366
C        7.41120316      -0.04587462       3.75155381      -0.00017289       0.00767191       0.00137720
C        6.19070155       2.11359748       3.75473263       0.00360264      -0.00322108       0.00198748
C        5.01860708       4.26478846       3.77688287      -0.00389674      -0.00096476      -0.00567885
N        3.77888057       6.37559479       3.78136514       0.00592756       0.00149609      -0.00239912
C        2.48028143       8.47007900       3.76730730       0.00236300       0.00310884      -0.00607376
C        9.86664044      -0.04101847       3.75151522       0.00383542      -0.00082832       0.00772457
C        8.63776514       2.10831467       3.74236488       0.00228212      -0.00176565      -0.00017981
C        7.41431957       4.27039248       3.74787790      -0.00336860       0.00348466       0.00391322
C        6.18554202       6.41166972       3.76520835      -0.00564120      -0.00221261      -0.00605065
C        4.94061649       8.52054874       3.76526997       0.00129299      -0.00516469       0.00094604
C        0.00255032       1.44911926       3.75103318      -0.00139468       0.00477263       0.00675434
C       -1.28009819       3.53826361       3.73837093       0.00358105       0.00047311       0.00138235
C       -2.50007337       5.70242540       3.73116553      -0.00052377      -0.00276234       0.00726418
C       -3.71057524       7.85641264       3.74079699      -0.00163098      -0.00182106       0.00058360
C       -4.92695426      10.00936907       3.75196694       0.00178599      -0.00044995       0.00641414
C        2.49853191       1.50454184       3.76175622       0.00735110      -0.00058381      -0.00143876
C        1.15562016       3.61979449       3.76152865       0.00847948      -0.00358330      -0.00133157
C       -0.07258609       5.70926067       3.74667145       0.00470731       0.00351092      -0.00025283
C       -1.26123118       7.85160668       3.73902963      -0.00325501      -0.00028831      -0.00359959
C       -2.47677956      10.00723235       3.74611397      -0.00027295      -0.00382265      -0.00066289
C        4.94979907       1.42916452       3.75561984      -0.00051168       0.00142217       0.00388098
O        3.83459231       3.53728415       3.78958452      -0.00696800       0.00253676       0.00663288
C        1.22239619       7.77047272       3.76219818       0.00337431       0.00032958      -0.00714381
C       -0.00068796       9.94776148       3.74848611      -0.00050867      -0.00602886       0.00193508
C        7.40666880       1.38976219       3.74872625       0.00638119       0.00179616      -0.00077252
C        6.19496474       3.54228390       3.76069131      -0.00038301      -0.00101415      -0.00609851
C        4.97636262       5.68305131       3.77754220      -0.00231262      -0.00024769       0.00029248
C        3.72413625       7.75133442       3.77347673       0.00059246      -0.00250604      -0.00529896
C        2.47406461       9.90090835       3.75761056       0.00091639       0.00580828      -0.00613550
C        9.86021661       1.38777787       3.74323196      -0.00662681      -0.00160639       0.00725914
C        8.63034029       3.54425695       3.73820080      -0.00351722      -0.00252231       0.00326411
C        7.40422862       5.69389398       3.75013793      -0.00613380       0.00355028      -0.00442497
C        6.17515431       7.83908190       3.76162756      -0.00279959      -0.00443307      -0.00263935
C        4.93783050       9.95209457       3.75608019      -0.00107247      -0.00353293       0.00224215
Ni       2.44936167       5.08873661       3.78014430      -0.00220110       0.00046166      -0.01094572
