49
Lattice="12.336457 0.0 0.0 -6.168228499999997 10.683685154694365 0.0 0.0 0.0 15.0" Properties=species:S:1:pos:R:3:forces:R:3 energy=-434.17441156541383 free_energy=-434.17441156541383 stress="-0.006129731424759046 -0.0002691084537549701 8.180580134265258e-07 -0.0002691084537549701 0.005090031767984966 2.873958602813484e-07 8.180580134265258e-07 2.873958602813484e-07 9.976151535304178e-07" pbc="T T T"
C        0.00072253       0.00540304       3.74836182       0.00056100      -0.00015789       0.00838609
C       -1.24777383       2.12672091       3.74112706      -0.00609638      -0.00428631      -0.00072415
C       -2.47697339       4.27476917       3.73401879       0.00459902      -0.00425694      -0.00469039
C       -3.69333991       6.42082335       3.73972376       0.00865909       0.00825186       0.00052704
C       -4.91870925       8.57516459       3.74861628       0.00148801       0.00393403       0.00177610
C        2.46357753       0.06747946       3.75328365       0.00517486      -0.00210399      -0.00425645
C        1.19770647       2.14087314       3.75789610      -0.00010361       0.00350616      -0.00310590
C       -0.07702465       4.28581427       3.74143003       0.00074717       0.00309162       0.00195157
C       -1.25375138       6.41322846       3.73398504      -0.00102585      -0.00020143       0.00021000
C       -2.46555448       8.56974114       3.74055719      -0.00261458      -0.00146345       0.00476896
C        4.92907865       0.02031353       3.75054493      -0.00484739       0.00505415       0.00706312
C        3.71857861       2.21077597       3.77128631      -0.00240384      -0.00156432      -0.00264848
O        1.12924126       6.40719627       3.75788236       0.00505177      -0.00659478       0.00353080
C       -0.00768355       8.52994874       3.74554112      -0.00109895      -0.00356607       0.00564929
C        7.40380319      -0.03623821       3.74880961      -0.00285304       0.00903419       0.00769820
C        6.17865713       2.12575789       3.75846599       0.00767229      -0.00018083       0.00290005
C        4.98434792       4.25069449       3.78548017      -0.01244297      -0.00041407      -0.01202073
C        3.80781140       6.38193254       3.78905243      -0.01186160       0.00075290      -0.00286154
C        2.43813441       8.46830716       3.76501424      -0.00211170      -0.00341334      -0.00466824
C        9.85907479      -0.03891704       3.75103952      -0.00498468       0.00676909       0.00210947
C        8.63485037       2.11508614       3.74334492       0.00471868       0.00297757      -0.00311403
C        7.42068465       4.26938617       3.74916890       0.00655598      -0.00249848       0.01239873
C        6.21666214       6.42694091       3.76610958      -0.00104601      -0.00878653      -0.00007715
C        4.94324171       8.52666515       3.76407574       0.00366904      -0.00439534       0.00074111
C       -0.00332820       1.43773662       3.74689067      -0.00109422      -0.00164803       0.00665444
C       -1.25451821       3.55533217       3.73549940       0.00411308      -0.00329508       0.00162918
C       -2.47506301       5.69365909       3.73325188       0.00356170      -0.00154479       0.00033599
C       -3.69681585       7.85472930       3.74227949      -0.00015964       0.00324460      -0.00277836
C       -4.92558182      10.00889230       3.74899267       0.00628570      -0.00148996       0.00488190
C        2.45213074       1.51505373       3.76328265      -0.00287957      -0.00149877      -0.00802493
O        1.12340323       3.55106462       3.76315143       0.00257343       0.00276612      -0.00227685
C       -0.07632728       5.68137502       3.73978061       0.00069426       0.00224710       0.00434961
C       -1.24873163       7.84274291       3.73900897      -0.00341237      -0.00018838      -0.00459489
C       -2.47716105      10.01072459       3.74776255       0.00096654      -0.00332986       0.00206443
C        4.92810560       1.45245647       3.76162903       0.00027973       0.00658814      -0.00353408
N        3.79715708       3.58480610       3.78406469      -0.00962354      -0.00680104       0.00019595
C        1.19572987       7.82045397       3.75640336       0.00152776      -0.00749967       0.00006176
C       -0.00288723       9.96285871       3.74762640      -0.00586129       0.00316059       0.00178158
C        7.40570257       1.39998052       3.74835844       0.01017951       0.00380346       0.00513604
C        6.19896148       3.54325433       3.76627529      -0.00273089       0.00107304      -0.00342136
C        4.98434391       5.69769964       3.78566463      -0.01646113       0.00024249      -0.00855768
C        3.70873034       7.75325079       3.77596531      -0.00028357      -0.00832941      -0.00999743
C        2.45652436       9.90737003       3.75482016      -0.00244683       0.00500949      -0.00292219
C        9.86965873       1.39935812       3.74391318      -0.00486720       0.00787312      -0.00234744
C        8.63846746       3.54788587       3.73928275       0.00745435      -0.00302532       0.00501890
C        7.42564856       5.70018645       3.75019071       0.00645804       0.00048494       0.00309983
C        6.18969194       7.84893355       3.75878499       0.00355920      -0.00383303       0.00634435
C        4.93444812       9.95132915       3.75376934      -0.00630578       0.00368264      -0.00042340
Ni       2.54374129       4.91954783       3.78325540       0.01306643       0.00281980      -0.01421879
