49
Lattice="12.336457 0.0 0.0 -6.168228499999997 10.683685154694365 0.0 0.0 0.0 15.0" Properties=species:S:1:pos:R:3:forces:R:3 energy=-427.4398089920873 free_energy=-427.4398089920873 stress="-0.007847869477034143 1.66708092403008e-05 4.601119267401965e-06 1.66708092403008e-05 -0.007150304889608166 -1.0864551656839075e-05 4.601119267401965e-06 -1.0864551656839075e-05 -8.316955959941224e-07" pbc="T T T"
C       -0.00120602      -0.01098981       3.77220765       0.00230144       0.00227216      -0.00378374
C       -1.23476983       2.12978714       3.67105286      -0.00016055       0.00263140      -0.00610616
C       -2.46818483       4.26976426       3.78813783      -0.00620392       0.00213473       0.00345056
C       -3.69412527       6.40783081       3.86393262       0.00181272      -0.00677669       0.00023481
C       -4.94236734       8.53393953       3.79583845      -0.00195728       0.00627576       0.00329261
C        2.46326482      -0.03101540       3.92672167      -0.00076646       0.00174362      -0.00014477
C        1.25103869       2.07444169       3.61048111       0.00206191      -0.00447118      -0.00146539
C       -0.07617581       4.30507292       3.33637722      -0.00070855       0.00271052       0.00534742
C       -1.26731698       6.42855275       3.68258460       0.00168424       0.00606590      -0.00307346
C       -2.47455175       8.54324519       3.88261563       0.00039036      -0.00153099       0.00050824
C        4.93944696      -0.01636802       4.00716459      -0.00555118       0.00051746       0.00168595
C        3.68633172       2.06450688       4.20195634       0.00143383       0.00131507       0.00124259
C        1.15127451       6.44926874       3.39081795      -0.00539112      -0.00177617       0.00590519
C       -0.00841425       8.54530205       3.73914506       0.00452445      -0.00041059      -0.00208814
C        7.40457464      -0.00688945       3.89735943       0.00044109      -0.00195664       0.00690279
C        6.18088034       2.12359176       4.12638284       0.00133950      -0.00206504      -0.00233987
C        4.99874311       4.30453750       3.98338878       0.01151009       0.00289032       0.00635199
S        3.75706537       6.34610129       2.60039330       0.00877272      -0.01292370       0.00870991
C        2.46877594       8.55752337       3.53137606       0.00156714      -0.00090960      -0.00266993
C        9.86894246      -0.00368749       3.76630216       0.00886674      -0.00159943       0.00308009
C        8.64406025       2.12775796       3.92205761       0.00152704       0.00075104      -0.00275300
C        7.42849942       4.26631649       3.97173064      -0.00193617      -0.00365904      -0.00540894
C        6.20615066       6.41236426       3.69973587      -0.00558385      -0.00128295      -0.00643631
C        4.94282826       8.54824924       3.57821410      -0.00059150       0.00224739       0.00395058
C       -0.00035211       1.41356132       3.67933565       0.00040301       0.00015055      -0.00267797
C       -1.24565382       3.55605997       3.60353925      -0.00519311       0.00553124       0.00166381
C       -2.47286302       5.69510355       3.79770767       0.00492793      -0.00005685       0.00003986
C       -3.70270067       7.82904818       3.85496500      -0.00196980      -0.00181175      -0.00023930
C       -4.93945358       9.95566988       3.82907987      -0.00133813       0.00716508       0.00514289
C        2.46556532       1.38749879       3.92871019       0.00371675      -0.00047557      -0.00123734
P        1.31840708       3.52625736       2.58957036       0.00369782      -0.00633037      -0.00413160
C       -0.04671859       5.73283986       3.44010648      -0.00619636       0.00358254      -0.00379037
C       -1.24271467       7.83996418       3.78353323       0.00505722       0.00365993      -0.00279977
C       -2.46672754       9.95687824       3.95631547      -0.00428620      -0.00067750      -0.00277576
C        4.94018726       1.40727924       4.13920798      -0.00037668       0.00184274       0.00049383
P        3.55975252       3.71860273       4.82623671      -0.00280188       0.00378520       0.00588191
C        1.22429811       7.82067885       3.52815912       0.00189877      -0.00258851      -0.00370932
C        0.00119363       9.96135983       3.89191441      -0.00360003      -0.00000905      -0.00409907
C        7.40866777       1.41457327       4.00671883       0.00147905       0.00007334      -0.00323490
C        6.20241709       3.54853034       4.06836180       0.00279120      -0.00178919       0.00086120
C        5.03410598       5.65396018       3.56394011      -0.01260001       0.00284416       0.00003965
C        3.70354717       7.91201369       3.32911753       0.00190504       0.00403067      -0.00566038
C        2.46692861       9.97065032       3.75022736       0.00504512       0.00043545       0.00505867
C        9.87464310       1.42238211       3.80330984       0.00354875      -0.00032059      -0.00131932
C        8.65170018       3.55310137       3.92028114      -0.00483737      -0.00099997      -0.00119498
C        7.42670875       5.69016994       3.87485700      -0.00325644      -0.00504644       0.00034749
C        6.17228124       7.82954244       3.65332952      -0.00077260       0.00038301       0.00059393
C        4.93429883       9.96987872       3.71970233       0.00700671      -0.00055566       0.00137647
Ni       2.38510962       5.04374109       3.67051833      -0.01363146      -0.00501582       0.00097735
