49
Lattice="12.336457 0.0 0.0 -6.168228499999997 10.683685154694365 0.0 0.0 0.0 15.0" Properties=species:S:1:pos:R:3:forces:R:3 energy=-437.69422946651196 free_energy=-437.69422946651196 stress="-0.0083537066809971 0.0010968530853242844 -6.910450478495534e-08 0.0010968530853242844 0.00171370663057832 1.3727102774670486e-07 -6.910450478495534e-08 1.3727102774670486e-07 7.166661627597696e-07" pbc="T T T"
C        0.00447259       0.01802427       3.75099468       0.00273524       0.00277668       0.00233952
C       -1.24636844       2.12143271       3.74219934      -0.00694681      -0.00030995      -0.00461812
C       -2.49222692       4.27086796       3.73268343      -0.00429657      -0.00000353       0.00146180
C       -3.70966832       6.42147673       3.73872074      -0.00166076       0.00337039       0.00105121
C       -4.92682452       8.57446613       3.74967101      -0.00208607      -0.00000010       0.00076426
C        2.47687039       0.05642465       3.75345722       0.00186903      -0.00049579      -0.01010696
C        1.23812051       2.21698452       3.75982344       0.00258880       0.00027316      -0.00428272
C       -0.05825192       4.26536400       3.74867303       0.01278478      -0.00632715      -0.00560493
C       -1.27468036       6.43081436       3.73591136      -0.00123034      -0.00215101       0.00403591
C       -2.48106469       8.57199431       3.73867268      -0.00538966      -0.00162628       0.00984570
C        4.93731366      -0.00047061       3.74688814       0.00217283      -0.00239424       0.00865477
C        3.74881966       2.12447367       3.76685984       0.00085551       0.00195333       0.00112212
C        1.15806622       6.39032274       3.76436173      -0.00285553       0.00289988      -0.00097789
C       -0.01408830       8.53152802       3.74858776       0.00088382      -0.00209154       0.00622861
C        7.40938413      -0.03438071       3.75056481      -0.00211355       0.00748105       0.00325683
C        6.19031992       2.11486589       3.75430969       0.00484849      -0.00096999       0.00175601
C        5.00748951       4.24899701       3.77838581      -0.00317590      -0.00377996      -0.00411357
C        3.75173313       6.38096294       3.78260774      -0.00046750      -0.00683848      -0.00226219
C        2.46843663       8.49765702       3.76735968       0.00217655       0.00190613      -0.00387969
C        9.86795723      -0.02877902       3.75027523      -0.00200613       0.00077825       0.00672788
C        8.63751070       2.11559450       3.74256611       0.00038295       0.00220010      -0.00434228
C        7.41221745       4.27226797       3.74758342      -0.00257614       0.00368047       0.00578717
C        6.18621213       6.41449834       3.76400877      -0.00041790      -0.00175826      -0.00315460
C        4.94951801       8.53539336       3.76382052       0.00345177       0.00012687       0.00316552
C        0.00107417       1.44429758       3.74980200      -0.00283279       0.00179730       0.00686184
C       -1.27797401       3.54188729       3.73726545       0.00157490       0.00093385       0.00474948
C       -2.49357229       5.70362096       3.73164213      -0.00360779       0.00039641       0.00844538
C       -3.70578629       7.85480903       3.74145580      -0.00433940      -0.00101216      -0.00236405
C       -4.92414321      10.00455431       3.75041630       0.00367116      -0.00212962       0.00885420
C        2.49845465       1.49283070       3.76264678       0.00188084      -0.00042605      -0.00462724
C        1.14692261       3.59648335       3.76250543       0.01548208      -0.00303828       0.00200073
C       -0.05357962       5.71104083       3.74850127       0.00334436      -0.00444264      -0.00235636
C       -1.25362270       7.84973466       3.73963743      -0.00224705       0.00045339      -0.00444363
C       -2.47281268      10.00215701       3.74573816       0.00037234      -0.00188039       0.00117321
C        4.95212855       1.42463535       3.75498172       0.00251926       0.00000693       0.00352237
O        3.82779466       3.52212275       3.79443470      -0.00985756       0.00384965       0.00269682
C        1.22648330       7.78431379       3.76235107       0.00252039       0.00115744      -0.00728284
C        0.00074408       9.95074754       3.74813065       0.00185684      -0.00149986      -0.00065116
C        7.40706807       1.39767802       3.74834359       0.00461756       0.00348978      -0.00191278
C        6.19172118       3.54009859       3.76068534       0.00035726      -0.00153572      -0.00519078
C        4.95076752       5.67571522       3.77814136       0.00118862      -0.00540663       0.00094048
C        3.70921163       7.77012789       3.77423499       0.00263941      -0.00659878      -0.00802034
C        2.47034036       9.92339256       3.75662909      -0.00403233       0.00522295      -0.00546164
C        9.86144534       1.39593397       3.74232180      -0.00539854       0.00061701       0.00609923
C        8.62916481       3.54992602       3.73823659      -0.00411142       0.00135917       0.00220063
C        7.40374348       5.69779685       3.75000644      -0.00158567       0.00331514      -0.00546830
C        6.17933607       7.84119254       3.75985067       0.00038940      -0.00065345      -0.00218636
C        4.94128728       9.95957367       3.75412198       0.00066005       0.00336430       0.00288186
Ni       2.41992797       5.03309786       3.78365265      -0.00458886       0.00396024      -0.01331513
