49
Lattice="12.336457 0.0 0.0 -6.168228499999997 10.683685154694365 0.0 0.0 0.0 15.0" Properties=species:S:1:pos:R:3:forces:R:3 energy=-437.6916676256104 free_energy=-437.6916676256104 stress="-0.00554346995585926 -0.00098475802050646 -1.7567976949670547e-07 -0.00098475802050646 0.0038704085734005346 1.9271572230768804e-08 -1.7567976949670547e-07 1.9271572230768804e-08 9.474728172736843e-07" pbc="T T T"
C       -0.00133413       0.01340125       3.75039622       0.00389448       0.00124569       0.00442715
C       -1.25280353       2.11777444       3.74192750      -0.00882734      -0.00178059      -0.00141315
C       -2.48564303       4.26406445       3.73301197      -0.00512659      -0.00415430       0.00130969
C       -3.70328269       6.41378678       3.73823689      -0.00281198       0.00280932       0.00203553
C       -4.93224322       8.56448568       3.75050259       0.00024124      -0.00144861      -0.00846456
C        2.47064520       0.04369122       3.75538222       0.00277035      -0.00604288      -0.00904427
C        1.22412153       2.18721901       3.76007480      -0.00152107      -0.00129694       0.00109308
C       -0.03815640       4.26357535       3.74995082       0.00586083       0.01080517      -0.00515307
C       -1.25739025       6.42015659       3.73734576      -0.00295499      -0.00417294       0.00189879
C       -2.46787057       8.56454082       3.73897949      -0.00053911      -0.00073765       0.01617902
C        4.94158802       0.00670008       3.74971504       0.00320543       0.00374481       0.01077656
C        3.70779118       2.20539655       3.76965206       0.00063014       0.00339969      -0.00774625
N        1.15509885       6.37396735       3.76581961       0.01235585       0.00169337      -0.00202273
C        0.01184877       8.51314432       3.74908921       0.00003967      -0.00431158       0.00492629
C        7.41256490      -0.04089624       3.75019294      -0.00002098       0.00846948       0.00356357
C        6.18043633       2.12396910       3.75581793       0.00640491      -0.00136990       0.00036994
C        4.94856443       4.28583548       3.77499553      -0.00241956       0.00308675      -0.00280851
O        3.81090819       6.43283073       3.79835904      -0.00524071      -0.00455751      -0.00680482
C        2.48432056       8.45698244       3.76446534      -0.00163424      -0.00002298      -0.00147169
C        9.85988780      -0.03934651       3.74959526      -0.00203589      -0.00229682      -0.00020986
C        8.63125244       2.11188929       3.74170487      -0.00002009       0.00125794      -0.00080811
C        7.40549858       4.26729040       3.74694136      -0.00209844      -0.00177483       0.00462292
C        6.18538273       6.42202626       3.76136376       0.00106706       0.00058905      -0.00224652
C        4.94105637       8.53548609       3.75972935       0.00096651       0.00007064       0.00489165
C       -0.01611101       1.43401727       3.74994953      -0.00438880      -0.00053466       0.00208612
C       -1.26959340       3.53977562       3.73782976       0.00138418       0.00265248       0.00539089
C       -2.48148412       5.69364462       3.73251849      -0.00675439      -0.00394247       0.00650849
C       -3.69814073       7.84712309       3.74228224      -0.00009203       0.00054955      -0.00498306
C       -4.92820385       9.99794138       3.75166717       0.00373251      -0.00539646       0.00465954
C        2.46867342       1.47064526       3.76469058       0.00090894      -0.00446167      -0.00792432
C        1.16362392       3.58223485       3.76336153      -0.00130714      -0.00143913      -0.00026023
C       -0.04183249       5.71442084       3.74956283       0.00786710       0.01128259       0.00006209
C       -1.23915835       7.83893357       3.74043193      -0.00237078      -0.00380179      -0.00269176
C       -2.46728599       9.99378734       3.74703728       0.00432246      -0.00116367       0.00577567
C        4.94811861       1.43281248       3.75953596       0.00468550       0.00486894      -0.00061616
C        3.74080945       3.59772536       3.77746681      -0.00496571       0.00356016       0.00467383
C        1.22349036       7.75392244       3.76136014       0.00306001      -0.00268699      -0.00397089
C        0.00747397       9.94674174       3.74912169       0.00159929       0.00141935       0.00099843
C        7.41033087       1.39176366       3.74819847       0.00568013       0.00351400       0.00077905
C        6.18825248       3.55016275       3.76017923      -0.00200369      -0.00194683      -0.00471216
C        5.00298027       5.71115936       3.77845941      -0.00174364       0.00152326      -0.00263011
C        3.73997679       7.83902506       3.77177082      -0.00164042      -0.00124499      -0.00767962
C        2.47174431       9.90289110       3.75450797      -0.00354530       0.00171440      -0.00273062
C        9.85526230       1.39361631       3.74224816      -0.00733077      -0.00147317       0.00249640
C        8.63035197       3.54533116       3.73779327      -0.00368033      -0.00261119       0.00376880
C        7.41230392       5.69287877       3.74765027      -0.00184417      -0.00071836      -0.00118457
C        6.18436319       7.84669189       3.75674886       0.00071973      -0.00036815       0.00718909
C        4.93372755       9.96431227       3.75189573       0.00149171       0.00278501       0.00183778
Ni       2.40547780       4.98902002       3.78520187       0.00403016      -0.00528458      -0.01474334
