49
Lattice="12.336457 0.0 0.0 -6.168228499999997 10.683685154694365 0.0 0.0 0.0 15.0" Properties=species:S:1:pos:R:3:forces:R:3 energy=-427.5208355756833 free_energy=-427.5208355756833 stress="-0.006721680850291857 -0.0005144160102102036 -1.4892051576345291e-06 -0.0005144160102102036 -0.0055106711337248124 1.1590438429424014e-05 -1.4892051576345291e-06 1.1590438429424014e-05 -9.797277723235321e-07" pbc="T T T"
C       -0.00578772      -0.00971157       3.95262450      -0.00538180      -0.00365357      -0.00026608
C       -1.24761719       2.12580147       4.12768212      -0.00317083       0.00780800       0.00043941
C       -2.50273276       4.26821562       3.99503495       0.00364287      -0.00037054       0.00258634
C       -3.70866636       6.41074151       3.84008798       0.00516254       0.00595905       0.00813429
C       -4.93061231       8.54714899       3.83593239      -0.00165031      -0.00173915      -0.01366312
C        2.46745668      -0.02464946       3.84817094       0.00266983      -0.00344182      -0.00201910
C        1.24952220       2.06435097       4.17959696       0.00343812      -0.00677520       0.00072130
C       -0.10109359       4.32002486       4.25054569       0.00524878      -0.00136524       0.00334433
C       -1.27255705       6.41355016       3.79404532      -0.01087028      -0.00263813      -0.00995367
C       -2.46397048       8.53861190       3.75606586      -0.00967643      -0.00213233       0.00099950
C        4.93602318      -0.01141309       3.69951760      -0.00311979      -0.00280715      -0.00853713
C        3.67829139       2.08500535       3.55168464      -0.00359147       0.00818389      -0.01161998
P        1.17622555       6.23487749       2.70684308       0.00685189       0.01291857       0.00843023
C        0.00010099       8.53956120       3.57149306      -0.00027453       0.00252792       0.00939045
C        7.40314708      -0.00741469       3.70888510       0.01423460       0.00650272       0.00172373
C        6.16466050       2.13623345       3.61471813      -0.00834416      -0.00283910      -0.00458294
C        4.99203082       4.32795860       3.35748411       0.00072914       0.00166782      -0.00165285
N        3.80182314       6.44237480       3.48087787      -0.01199263       0.00031934       0.01076050
C        2.47678019       8.53420507       3.55004505       0.00420137      -0.00617438       0.00671747
C        9.86353313      -0.00971965       3.85568146       0.00044669       0.00235146      -0.00234760
C        8.62360094       2.12965454       3.87384420       0.00214114       0.00025814       0.00566976
C        7.39463398       4.27528345       3.75818769       0.01063195      -0.00031268      -0.00619013
C        6.19785035       6.43878144       3.67075879      -0.00086826      -0.00576987      -0.00014215
C        4.94217874       8.54381646       3.72602340      -0.00016519      -0.00454893      -0.00360318
C       -0.00505899       1.41614127       4.10687460      -0.00367650       0.00082940       0.00176071
C       -1.27556724       3.54940293       4.16161668       0.00238308       0.00522450       0.00327562
C       -2.49438171       5.69244592       3.89941909      -0.00297459      -0.00166864       0.00842165
C       -3.70032856       7.83311012       3.81747849      -0.00474138       0.00141576      -0.00558784
C       -4.93754676       9.96486742       3.89313166      -0.00118365      -0.00293691      -0.00135533
C        2.46504659       1.39630077       3.84902292       0.00708657      -0.00223046      -0.00021517
S        1.36712113       3.64568351       4.88475921       0.00509201      -0.00613923       0.00474730
C       -0.07092261       5.66731661       3.83050265      -0.01397058      -0.00201167      -0.00725015
C       -1.23980342       7.82997415       3.66551144      -0.00868117       0.00150508       0.00296090
C       -2.46408404       9.95896981       3.75993596      -0.00334189      -0.00612607      -0.00312063
C        4.92925356       1.41854775       3.61156797      -0.00983144      -0.00267450      -0.00959049
P        3.58357708       3.57083860       2.58845350       0.00329905       0.00351533       0.00017632
C        1.23917517       7.87054414       3.39191862       0.00262283      -0.00550867       0.00931757
C        0.00110388       9.96641196       3.66509803       0.00843939       0.00779879      -0.00438515
C        7.39332740       1.42221022       3.73847328       0.00084353       0.00546186       0.00510218
C        6.16796372       3.56764350       3.57851298       0.00284413      -0.00170110      -0.01067317
C        4.99195107       5.75381319       3.47466528      -0.00951229       0.00079966      -0.00284607
C        3.73114220       7.81328287       3.57580189      -0.00006247      -0.00065787      -0.00289152
C        2.47096727       9.96005978       3.71606298       0.00906273      -0.00419286       0.00301087
C        9.86324619       1.41758905       3.96684968      -0.00114416       0.00263490       0.01009137
C        8.61154572       3.55479198       3.89102546       0.00813388      -0.00235331       0.00216468
C        7.40530414       5.69928381       3.77178811       0.01012076       0.00287388       0.00227572
C        6.17670389       7.84749421       3.75717822       0.00013381      -0.00556543       0.00000685
C        4.93027115       9.96393686       3.85382507      -0.00457444      -0.00457713      -0.00518795
Ni       2.60256510       5.08459981       3.79941489       0.00333957       0.01235588       0.00545232
