49
Lattice="12.336457 0.0 0.0 -6.168228499999997 10.683685154694365 0.0 0.0 0.0 15.0" Properties=species:S:1:pos:R:3:forces:R:3 energy=-427.31404513698857 free_energy=-427.31404513698857 stress="-0.007031679189706227 -0.0005641189447980947 1.0509343991934356e-05 -0.0005641189447980947 -0.006077901027291745 7.258410442952037e-06 1.0509343991934356e-05 7.258410442952037e-06 -3.086457650407911e-06" pbc="T T T"
C       -0.00570186      -0.01440521       3.97962950      -0.00533576       0.00411729      -0.00096807
C       -1.25220981       2.12051827       4.09847227      -0.00299792       0.00279610      -0.00224889
C       -2.49780806       4.26462538       3.96597409       0.00562748      -0.00354059       0.00448015
C       -3.70656906       6.40722943       3.87640950       0.00735849       0.01020178      -0.00140736
C       -4.93098354       8.54318303       3.88503941      -0.00159797       0.00097173      -0.00274863
C        2.47048991      -0.02866465       3.89515685       0.00181529      -0.00828246      -0.00522868
C        1.24754635       2.07862599       4.14080323       0.00546218      -0.00670130       0.01052564
C       -0.07642502       4.29866083       4.01912089       0.00152490       0.00158897       0.01855717
C       -1.27529938       6.41013210       3.71955784      -0.00245759       0.00015819      -0.00413166
C       -2.46439327       8.53502298       3.79578967      -0.00535447      -0.00943486      -0.01110542
C        4.93639980      -0.01633144       3.74721777      -0.00519840       0.00044195       0.00374777
C        3.68137394       2.06116610       3.54202110       0.00540821       0.00443958      -0.01090378
P        1.16524695       6.30246597       2.55040090       0.00876225      -0.00585624       0.00779425
C       -0.00090225       8.53882607       3.57651185      -0.00596882       0.00526950       0.00157088
C        7.40095237      -0.01112449       3.74712996       0.00627515       0.00150455      -0.00309253
C        6.15868540       2.13419700       3.65998468       0.00081329       0.00022725      -0.00681063
C        5.01043873       4.33025738       3.37056331      -0.00710075       0.00149255       0.00174528
N        3.79995387       6.44458689       3.46492188      -0.00965216      -0.00343397       0.00814602
C        2.47662854       8.53291876       3.54702293       0.00012400       0.00089597       0.00095117
C        9.86083403      -0.01488828       3.87889330      -0.00158969       0.00900505       0.00359777
C        8.62211456       2.12598321       3.90335995      -0.00534105      -0.00088749      -0.00248454
C        7.39544528       4.27232778       3.80972386       0.00009412       0.00079203      -0.00474637
C        6.19516772       6.43323597       3.72774731       0.00269800      -0.00737291       0.00170686
C        4.94133900       8.54107672       3.75156983       0.00507624      -0.00002738      -0.00011957
C       -0.00458440       1.41163891       4.09950677      -0.00305113       0.00308900      -0.00037883
C       -1.27329092       3.54498465       4.06463713       0.00659034      -0.00173912       0.00562185
C       -2.49214571       5.68953734       3.87982126       0.00083895       0.00091428      -0.00638536
C       -3.69981642       7.82923565       3.86282680      -0.00353747       0.00447142      -0.00505588
C       -4.93743878       9.95956445       3.93603855      -0.00447506      -0.00140435       0.00134774
C        2.46499128       1.39343395       3.88008760       0.01135951      -0.00319502      -0.00309869
P        1.38697093       3.71575361       4.79975424      -0.01145279      -0.01623033      -0.00203944
C       -0.08241252       5.66269209       3.62969388      -0.00203192       0.00704125       0.00912408
C       -1.24265947       7.82912898       3.66293884      -0.00431659      -0.00276983      -0.00775744
C       -2.46493490       9.95615273       3.81124232      -0.00312096      -0.01275681      -0.00354647
C        4.93132303       1.41366121       3.65231355       0.00245714       0.00264824      -0.00422517
S        3.63023927       3.54923387       2.64000002       0.00745093       0.00358467      -0.00830680
C        1.23874468       7.87764775       3.36068922      -0.00365217      -0.00285439       0.00578930
C        0.00183339       9.96123116       3.70300319      -0.00195783       0.00752723       0.00108249
C        7.38665953       1.42108294       3.78433032       0.00023737      -0.00313534      -0.00049144
C        6.16551331       3.56398175       3.62995410      -0.00544955      -0.00050162      -0.00567572
C        4.98893821       5.74475172       3.50450359      -0.00563528      -0.00116980      -0.00366656
C        3.73029327       7.81391178       3.57484681      -0.00008460      -0.00128987      -0.00135653
C        2.46979646       9.95595695       3.74070856       0.00644581       0.00473280      -0.00236511
C        9.85724199       1.41006663       3.98048886      -0.00737484       0.00612095       0.00239028
C        8.61700721       3.55132259       3.91526973       0.00063719      -0.00123298       0.00885248
C        7.40397837       5.69566510       3.82679390       0.01097717       0.00393065       0.00513801
C        6.17430924       7.84455950       3.80299478       0.00459470      -0.00515690       0.00209134
C        4.93059174       9.96084852       3.87903679      -0.00294937       0.00409396       0.00166692
Ni       2.54392034       5.13287948       3.68021684       0.00905543       0.00691665       0.00441813
