50
Lattice="12.336457 0.0 0.0 -6.168228499999997 10.683685154694365 0.0 0.0 0.0 15.0" Properties=species:S:1:pos:R:3:forces:R:3 energy=-441.04006758007597 free_energy=-441.04006758007597 stress="-0.0004363957525018433 0.0012466422786015221 -1.990905458455916e-06 0.0012466422786015221 -0.004103708253668375 3.8765565309774895e-06 -1.990905458455916e-06 3.8765565309774895e-06 -2.9079433635546562e-06" pbc="T T T"
C       -0.01530306      -0.01329855       3.96509230      -0.01748187       0.00178197      -0.00101160
C       -1.23909759       2.13123525       4.02439084      -0.00319916      -0.00510024       0.00086068
C       -2.47478518       4.26349655       3.99902277       0.00895453       0.00695158       0.00884470
C       -3.72066667       6.39559501       3.94816052      -0.00375837      -0.00223422      -0.00886650
C       -4.96598077       8.52412994       3.90418596      -0.00315421      -0.00852743       0.00885770
C        2.45115641      -0.02359184       3.98267811      -0.01189090      -0.00230270       0.00154843
C        1.23298592       2.12125788       4.00248555      -0.00947495       0.00502849      -0.01069056
C        0.00461631       4.25973202       3.84957605       0.00231963      -0.00783346      -0.00423399
C       -1.25503843       6.39524312       3.74268821      -0.00133086       0.00482015      -0.00713316
C       -2.48176483       8.52720405       3.86103193       0.00891440       0.00109393       0.01006330
C        4.91933343      -0.01616157       3.88909915       0.00791649       0.00575745       0.00083712
C        3.68146414       2.10771265       3.93849339      -0.01070158      -0.00331468      -0.00568169
N        2.46960323       4.18703729       3.87320902       0.00838836      -0.01001962       0.01212896
P        1.11240791       6.34601138       2.42846090      -0.00261923      -0.00592193      -0.00186511
C       -0.02550095       8.55793468       3.56477491       0.00985221       0.00552937      -0.00043365
C        7.38412408       0.00663105       3.79110022       0.00393399      -0.00504843      -0.00234475
C        6.15151828       2.12258328       3.92810197       0.00392391      -0.00591899       0.00634663
C        4.92042000       4.24012329       3.69302958       0.00663137       0.00142581       0.00012597
S        4.07190230       6.56023395       2.03776614      -0.01068410      -0.00397276      -0.00011958
C        2.45120974       8.62476940       3.27973726       0.00028008       0.01403549      -0.00578053
C        9.85624624       0.00848452       3.83494549      -0.00694445      -0.00019863      -0.00772387
C        8.62408017       2.13092296       3.98330146       0.00238109      -0.00206730       0.00076728
C        7.38818438       4.25883192       3.94772221       0.00450470       0.00234351       0.00193100
C        6.14260579       6.39236938       3.75248761       0.00429913       0.00256899       0.00116706
C        4.91681079       8.54962223       3.63436734      -0.00546575      -0.00186123       0.00481942
C       -0.00704519       1.41364172       4.01507452      -0.00880659       0.00232302       0.00316266
C       -1.23206446       3.55355994       3.99818449       0.00434005      -0.00448712       0.00961322
C       -2.48379261       5.68582099       3.93380414       0.00069725       0.00729363      -0.00635999
C       -3.72278778       7.81710854       3.91854941       0.00312718      -0.00554171      -0.01050228
C       -4.95573065       9.95154466       3.96133670      -0.01642999      -0.00316880      -0.00005282
C        2.45257316       1.40160849       3.99598111      -0.01588964      -0.00024362      -0.01104346
C        1.25566068       3.54108452       3.91276108       0.00777250      -0.00047180      -0.00361685
C       -0.05279387       5.64890347       3.56884726      -0.00207070      -0.00175896       0.01110189
C       -1.25182466       7.82368733       3.70020172       0.00962320       0.00647535       0.00425341
C       -2.48305688       9.95153443       3.91578735       0.00339339       0.00572417      -0.00020116
C        4.92065184       1.40663039       3.92712763      -0.00211122       0.00347539       0.00522212
C        3.67146128       3.51451683       3.82613892       0.00469080      -0.00494581       0.00804677
C        1.20189344       7.93140529       3.22174448       0.00177381       0.00379912      -0.01178529
C       -0.01734457       9.97365849       3.76020940       0.00800689       0.00215651      -0.00004401
C        7.38729319       1.41952821       3.92526531       0.00365699      -0.00846065      -0.00209491
C        6.15423523       3.54369874       3.88043634       0.00486195      -0.00253046      -0.00174474
C        4.95831957       5.64922433       3.43035876       0.01100853       0.00748317       0.00166835
C        3.70678844       7.91332480       3.19129960       0.00120905       0.00940682       0.00007869
C        2.45600778      10.00212941       3.65105057      -0.00114120       0.00162388      -0.00317163
C        9.86036616       1.42319001       3.97635785      -0.00167080      -0.00464651      -0.00995745
C        8.62547447       3.55208998       4.00714791       0.00868001       0.00389240       0.00143240
C        7.37770160       5.68227961       3.92350351      -0.00187700      -0.00015253       0.00127380
C        6.13601508       7.81891058       3.75535813      -0.00131568      -0.00199392       0.00950805
C        4.91714612       9.96681996       3.83543340      -0.01356098      -0.00155350      -0.00245677
Ni       2.84260016       5.93069540       3.62279078       0.00643773      -0.00071316       0.00525672
