49
Lattice="12.336457 0.0 0.0 -6.168228499999997 10.683685154694365 0.0 0.0 0.0 15.0" Properties=species:S:1:pos:R:3:forces:R:3 energy=-437.6872791145547 free_energy=-437.6872791145547 stress="-0.0037348269122467526 0.0017653837935113711 -2.1911147242295394e-07 0.0017653837935113711 0.007256090873291524 -3.3248689603510485e-07 -2.1911147242295394e-07 -3.3248689603510485e-07 9.505202934409669e-07" pbc="T T T"
C        0.00779881       0.02051578       3.75278059      -0.00150653       0.00395779       0.00457848
C       -1.23488511       2.12738588       3.74501982      -0.01107565      -0.00157640      -0.00494805
C       -2.47851874       4.27048571       3.73339651      -0.00638099      -0.00065457       0.00130546
C       -3.70998595       6.41885929       3.73757471       0.00223266       0.00180013       0.00317919
C       -4.93541293       8.56873019       3.75064007      -0.00266456      -0.00091928      -0.00071882
C        2.47116062       0.06801125       3.75342169       0.00090268       0.00326397      -0.00999566
C        1.22862415       2.23491600       3.76036927       0.00350051      -0.00020965       0.00128447
C       -0.03579370       4.26903317       3.75294040       0.00695965      -0.00300993      -0.00558333
C       -1.26957316       6.42432087       3.73720055       0.00130079      -0.00044536       0.00246726
C       -2.47927637       8.56890681       3.73761012      -0.00642670      -0.00274633       0.01432197
C        4.93588037      -0.00214928       3.74649963       0.00093960      -0.00055572       0.01033732
C        3.74799789       2.13004963       3.76470067      -0.00023187       0.00585555      -0.00275173
N        1.12923638       6.39879989       3.76731846      -0.00441556       0.00269382      -0.00354855
C       -0.00680418       8.52215978       3.74977697       0.00026958      -0.01317812       0.00442773
C        7.41314497      -0.04363538       3.75136133      -0.00100054       0.00926429       0.00148287
C        6.18857231       2.11674208       3.75368947       0.00577027      -0.00374736       0.00289080
C        5.00954754       4.26393252       3.77423569      -0.00092173       0.00108451      -0.00723254
N        3.75818165       6.36445145       3.77905992       0.00892521       0.00341355      -0.00345597
C        2.46543302       8.46049112       3.76699160       0.00005892       0.00243214      -0.00538112
C        9.86924384      -0.04050524       3.75151000       0.00610411       0.00017626       0.00678340
C        8.64260278       2.11297651       3.74192931       0.00634541      -0.00208344      -0.00023125
C        7.41443248       4.26978044       3.74695007      -0.00194472       0.00331923       0.00600448
C        6.17869584       6.40622282       3.76392098      -0.00476366       0.00099814      -0.00689272
C        4.93246860       8.51603967       3.76462465       0.00156353      -0.00497304       0.00051879
C        0.01762323       1.45990578       3.75205723      -0.00405057       0.00326685       0.00501584
C       -1.25380859       3.54982142       3.74093591      -0.00204544       0.00148273       0.00206412
C       -2.48896656       5.69773012       3.73123284       0.00126592      -0.00110841       0.01099562
C       -3.70887484       7.85150357       3.74047318      -0.00182824      -0.00458213       0.00093402
C       -4.92604930      10.00794115       3.75138163       0.00287254      -0.00223878       0.00940467
C        2.48811532       1.51708355       3.76178800       0.00159694       0.00149454      -0.00754319
N        1.16805964       3.61999268       3.76493323       0.00727205      -0.00633412       0.00010332
C       -0.05421923       5.71607192       3.75212668       0.00237103       0.00052951      -0.00273795
C       -1.25166284       7.84625121       3.73987240      -0.00495858      -0.00040319      -0.00280574
C       -2.47688475      10.00584572       3.74536860      -0.00056243      -0.00128411      -0.00017999
C        4.94561087       1.42701979       3.75428641      -0.00146827       0.00199138       0.00364744
O        3.82733108       3.53216081       3.78198509      -0.00725674       0.00513462       0.00241384
C        1.20988162       7.76907043       3.76400773       0.00335970      -0.00242733      -0.01045178
C        0.00451479       9.94817051       3.74846638       0.00102910      -0.01060679       0.00121648
C        7.40774718       1.39529780       3.74823649       0.00936700       0.00269254      -0.00124629
C        6.19099917       3.54460777       3.75978037       0.00147241      -0.00190545      -0.00733240
C        4.96053462       5.67920099       3.77443568       0.00078390       0.00254318       0.00208886
C        3.71198976       7.74212547       3.77233065       0.00030028      -0.00171028      -0.00489367
C        2.47236238       9.89873702       3.75741997       0.00151349       0.00707434      -0.00689423
C        9.87243819       1.39512420       3.74319886      -0.00269880       0.00050497       0.00931836
C        8.63669328       3.54665740       3.73729762      -0.00267401      -0.00312007       0.00685980
C        7.40224724       5.69308067       3.74962302      -0.00686294       0.00469260      -0.00641487
C        6.17167565       7.83384474       3.76128014      -0.00240075      -0.00155262      -0.00506572
C        4.93804944       9.95147901       3.75588911      -0.00084128      -0.00332993       0.00243991
Ni       2.36921488       5.10330446       3.78278986       0.00090329       0.00503575      -0.00977894
