49
Lattice="12.336457 0.0 0.0 -6.168228499999997 10.683685154694365 0.0 0.0 0.0 15.0" Properties=species:S:1:pos:R:3:forces:R:3 energy=-424.31086013490284 free_energy=-424.31086013490284 stress="-0.004702707361912574 0.0009646511697791269 4.1883961783146066e-06 0.0009646511697791269 -0.0033830812451188727 1.6326518641952708e-05 4.1883961783146066e-06 1.6326518641952708e-05 -4.20532339932864e-06" pbc="T T T"
C       -0.03223971       0.00011909       3.70361351      -0.00812745      -0.00330209      -0.00827430
C       -1.24748307       2.16391063       3.60537484       0.00190051       0.00378235      -0.00202733
C       -2.46211128       4.29560716       3.81558012      -0.00502511       0.00168609      -0.00186609
C       -3.70390968       6.42943267       3.92923512       0.00730453      -0.00449341      -0.00187100
C       -4.96869261       8.55419807       3.81568524       0.00818020       0.00627225      -0.00189495
C        2.43924494      -0.00244854       3.84013655      -0.00668849       0.00704278      -0.00410399
C        1.22151229       2.08270747       3.46591303      -0.00150145      -0.00371190      -0.00471479
C       -0.05375113       4.38122434       3.37782899      -0.00572936       0.00195986       0.00006953
C       -1.25966054       6.45090961       3.78440006       0.00085680       0.00596740      -0.00973891
C       -2.48827362       8.56639405       3.88697054      -0.00048659      -0.00032315      -0.00011215
C        4.91331161       0.02959427       3.91902028      -0.00657725       0.00070609       0.00374597
C        3.65248070       2.16095319       3.98740328       0.00533339      -0.00465282       0.00336322
O        1.11246684       6.49976796       3.52136361      -0.00957894       0.00173498      -0.00263009
C       -0.02922894       8.57271330       3.76547433      -0.00116622       0.00483642       0.00244734
C        7.38555096       0.01076479       3.84089800       0.00910779      -0.00965571       0.00449862
C        6.16454303       2.14531637       4.08718824       0.00343994      -0.00306351       0.00535832
C        4.98419220       4.31781757       4.18604535       0.00607557      -0.00869165       0.01288155
S        3.76807032       6.26435084       2.71530553       0.00169796      -0.00405292       0.00698248
C        2.41707215       8.53432131       3.57185476       0.00124502      -0.00503701      -0.00373975
C        9.84165695       0.00615363       3.71097835       0.00093784       0.00583896      -0.00283317
C        8.63239353       2.14791298       3.87759456       0.00040183      -0.00659430       0.00367592
C        7.42557519       4.28520450       4.04067244       0.00038934      -0.00332618      -0.00235166
C        6.18799677       6.43367777       3.84887871      -0.00491996      -0.00041396      -0.00110601
C        4.89734189       8.53796619       3.61966151      -0.00144487       0.00777403      -0.00221185
C       -0.03215795       1.42555730       3.57955348      -0.00185679      -0.00370604      -0.00204728
C       -1.23348452       3.60341022       3.60151459      -0.00496576       0.00535120       0.00467568
C       -2.47541883       5.71512046       3.86518933       0.00666490       0.00113639      -0.00181015
C       -3.72433440       7.85104831       3.88727377       0.00566478      -0.00305424       0.00309859
C       -4.96786111       9.97541199       3.78493020      -0.00432674       0.00645540      -0.01710656
C        2.43274231       1.40767232       3.76818246       0.00126855       0.00608061       0.00334357
P        1.30335054       3.58744650       2.56002757       0.01315879       0.00559443       0.00279087
C       -0.06477003       5.77920954       3.54996123      -0.00647916       0.00122885      -0.00609181
C       -1.26363780       7.86482022       3.83323162       0.00028775       0.00477756      -0.01136572
C       -2.48927442       9.98833636       3.89310055      -0.00940609       0.00116968      -0.00190970
C        4.92065926       1.44966907       4.02040454       0.00127705       0.00210057      -0.00699495
P        3.58965471       3.58819193       5.08908391      -0.00157785      -0.00969702       0.01011039
C        1.15908706       7.87312484       3.60605477      -0.00470716       0.00004393       0.00321781
C       -0.01945448       9.99979012       3.84686739       0.00036288       0.00290362       0.00885971
C        7.39753812       1.43570964       3.94897418       0.00168664      -0.00919914       0.00033304
C        6.20979815       3.56213615       4.15964083       0.00032562      -0.00280971       0.00599136
C        5.00406797       5.69162430       3.77987650      -0.00834204      -0.00739598       0.00793893
C        3.66832092       7.86680935       3.40983352       0.00068192       0.00460588      -0.00514037
C        2.43671715       9.96695274       3.72055168       0.00973681      -0.00470430      -0.00420208
C        9.85918224       1.44256880       3.73537162       0.00396701       0.00330480       0.00204573
C        8.64957935       3.57319163       3.92825600      -0.00186306      -0.00617959       0.00161475
C        7.41748607       5.71105766       3.97412544       0.00200194      -0.00310830      -0.00537856
C        6.14261692       7.84372077       3.72607570       0.00424375       0.00801329       0.00056006
C        4.90175426       9.97370024       3.68766258      -0.00712066       0.00346103       0.00294070
Ni       3.25717307       4.13369943       3.08189914       0.00369187       0.00334444       0.01097910
