49
Lattice="12.336457 0.0 0.0 -6.168228499999997 10.683685154694365 0.0 0.0 0.0 15.0" Properties=species:S:1:pos:R:3:forces:R:3 energy=-424.37658883063426 free_energy=-424.37658883063426 stress="-0.0030425541758404965 -0.0011655205567309423 -1.3433997185350418e-05 -0.0011655205567309423 -0.0031769169329448343 -9.594355224899493e-06 -1.3433997185350418e-05 -9.594355224899493e-06 6.73231446654108e-06" pbc="T T T"
C        0.01837534       0.02282241       3.93205836      -0.00460818      -0.00781666      -0.00422102
C       -1.23436498       2.14161751       4.09461131      -0.00487685      -0.00193749      -0.00848646
C       -2.48208909       4.28359723       4.03647555       0.00086853       0.00110541      -0.00404926
C       -3.68880113       6.42528936       3.92182024       0.00617668       0.01550773      -0.00085792
C       -4.91208746       8.56400458       3.88966369      -0.00359257      -0.00195535      -0.01577179
C        2.49523532      -0.00205433       3.84740333       0.00182328      -0.00457961      -0.00151141
C        1.27834111       2.14943861       4.06291728       0.00842148       0.00870167       0.00698708
C       -0.02946324       4.29750691       4.21700375       0.00910007       0.00487695       0.01062913
C       -1.24384988       6.43222854       3.87989805      -0.00421237       0.00035350       0.00138991
C       -2.43707527       8.55537229       3.81473663      -0.00083469      -0.00549195      -0.01146625
C        4.96046059       0.00487068       3.67254839      -0.00247989       0.00253816       0.00133961
C        3.69575799       2.07758394       3.42596813       0.00192714       0.00806380       0.00368175
P        1.15893301       6.23960757       2.73483200      -0.00214176      -0.00509031      -0.00127216
C        0.03220026       8.54622401       3.60057036       0.00604017       0.00294471      -0.00334020
C        7.42305666       0.01161313       3.67004540       0.01539970      -0.00812055       0.00735823
C        6.17017965       2.16939220       3.56814130       0.00500713      -0.00390411      -0.00057826
C        5.00345706       4.38722002       3.34249892      -0.01416933       0.00412200      -0.00565320
O        3.81758666       6.49245513       3.46063590       0.00157554       0.00477575      -0.00806225
C        2.51827549       8.54225828       3.54425224       0.00516843       0.00046506      -0.00366869
C        9.88141270       0.01076797       3.82170339      -0.00015409      -0.00589004      -0.00036005
C        8.63560063       2.15047163       3.85318295       0.00022609      -0.00680051      -0.00089395
C        7.40003146       4.29591529       3.79348473      -0.00047474       0.00750411      -0.00363263
C        6.19911929       6.44886787       3.76123284      -0.00503531       0.00463744       0.01280923
C        4.96349813       8.56982286       3.75111601      -0.00991950      -0.00195832      -0.00043383
C        0.01182320       1.44226191       4.04867609      -0.00145479      -0.00469215       0.00209476
C       -1.26885841       3.55630013       4.17276034      -0.00111953      -0.00124831       0.00327116
C       -2.47102785       5.71040657       3.97629426      -0.00285903       0.00485640      -0.00396483
C       -3.67530449       7.84924013       3.88841728      -0.00073266       0.00735878       0.00114876
C       -4.91276395       9.98647765       3.90444723       0.00036502      -0.00685164       0.00715005
C        2.49795833       1.41824546       3.79479307       0.00532058      -0.00016888      -0.00119899
P        1.27835235       3.54022060       5.20386626       0.00636756       0.00671181      -0.00018581
C       -0.03119677       5.70160746       3.87959465      -0.00197430       0.00399796      -0.00922350
C       -1.20960470       7.84512329       3.73555034       0.00239377      -0.00009604      -0.00242437
C       -2.43917394       9.97739529       3.77239594      -0.00024902      -0.00718511       0.00137244
C        4.95214454       1.43460116       3.54438706      -0.00082044       0.00586428       0.00998884
S        3.62687168       3.60521254       2.60433904      -0.00984472      -0.00240995       0.00916943
C        1.26802306       7.86885687       3.41059424       0.00736457      -0.00156275       0.00103635
C        0.02712223       9.97948866       3.65100801       0.00566242       0.00603768       0.00520437
C        7.40132063       1.44848810       3.69976776       0.00775749      -0.01193046      -0.00057585
C        6.16730651       3.60545366       3.57370899      -0.00571091       0.00033863      -0.00327036
C        5.00842583       5.77971758       3.52471638      -0.00272057       0.00384607      -0.00432878
C        3.77208328       7.87023863       3.57668719      -0.00531057      -0.00016015       0.00118515
C        2.49615474       9.97247634       3.68599128       0.01105702      -0.00893672       0.00966636
C        9.86989940       1.43466930       3.93426472      -0.00605392      -0.00699463       0.00190443
C        8.62846279       3.57335258       3.91160194       0.00131548      -0.00126559      -0.00939601
C        7.41495245       5.71346537       3.84588473       0.00633162       0.01400688       0.00549168
C        6.19931903       7.86650064       3.82236041      -0.01091503       0.00316847       0.00052776
C        4.95055475       9.99606720       3.84266687      -0.00690765      -0.00622041      -0.00470352
Ni       1.69075833       4.18578831       3.25314473      -0.00649738      -0.00851557       0.01012489
