49
Lattice="12.336457 0.0 0.0 -6.168228499999997 10.683685154694365 0.0 0.0 0.0 15.0" Properties=species:S:1:pos:R:3:forces:R:3 energy=-425.33363189829004 free_energy=-425.33363189829004 stress="-0.0036699626839046947 0.0012053910151392383 -1.8888336378346665e-05 0.0012053910151392383 -0.0028279459954864937 -1.181900833777797e-05 -1.8888336378346665e-05 -1.181900833777797e-05 1.6637040685584306e-06" pbc="T T T"
C       -0.03039368       0.00490805       3.65049151      -0.00377455       0.00123860      -0.00608977
C       -1.24475777       2.16827774       3.55257325       0.00401916      -0.00182082      -0.00279505
C       -2.46757576       4.29762684       3.76750195       0.00033347      -0.00482369       0.00219883
C       -3.71206548       6.42911442       3.90420232       0.00566579      -0.00404956      -0.00281532
C       -4.96633198       8.55806568       3.79038338       0.00262280       0.00674787      -0.00186163
C        2.43871529       0.00214291       3.83081593       0.00765036      -0.00024159      -0.00080530
C        1.23193321       2.09466613       3.45199658      -0.00025564      -0.00446221       0.00631748
C       -0.05750252       4.38784574       3.32830010      -0.01393956       0.00476879      -0.00791917
C       -1.26549082       6.45424191       3.73301417       0.00117508       0.00680565      -0.00225916
C       -2.49087424       8.56924518       3.86641068      -0.00328501      -0.00962943      -0.00191563
C        4.91544066       0.02860735       3.93393270      -0.00090860      -0.01114951      -0.00551777
C        3.65555057       2.14856556       4.07979175      -0.00768880       0.00207553       0.00883558
O        1.11149705       6.49932226       3.44130375       0.00430496       0.00136960       0.01141105
C       -0.03245032       8.57504041       3.74251476       0.00383553      -0.00223807      -0.00291952
C        7.38746470       0.01096504       3.82131120       0.00561779       0.00206550       0.00892017
C        6.17158176       2.14121319       4.13172000      -0.00880585       0.01560421      -0.00212055
C        4.99974037       4.30997159       4.37029487      -0.00029192       0.00632174       0.00472192
P        3.77767808       6.20317558       2.81066821      -0.00311894       0.00819708       0.00311793
C        2.41295772       8.53965579       3.54025722       0.00113325      -0.00138767      -0.00100256
C        9.84312401       0.00953091       3.65883718      -0.00239745       0.00842268      -0.00210214
C        8.63338174       2.14879042       3.85114114       0.00410616      -0.00006715      -0.00009787
C        7.42322713       4.28421378       4.06018078       0.00423590       0.00712855       0.00401207
C        6.18059664       6.43370193       3.90487397      -0.00331078      -0.00633254       0.00723494
C        4.89937124       8.54247285       3.58902668      -0.00644873       0.00010800       0.00476809
C       -0.02578023       1.43311558       3.53282565      -0.00082428      -0.00432795      -0.00019073
C       -1.23605987       3.60794310       3.54749426      -0.00452898      -0.00501874      -0.00322929
C       -2.48228383       5.71745946       3.81996499       0.00541723      -0.00246023      -0.00159771
C       -3.72697954       7.85373357       3.86515910      -0.00089519      -0.00539456      -0.00776645
C       -4.96581647       9.97811411       3.74852438       0.00380380       0.00896182      -0.00139665
C        2.43584604       1.41510899       3.78640929       0.00019425      -0.00438758       0.00982686
P        1.33365646       3.60697285       2.55352955      -0.00538275      -0.01237842      -0.00349435
C       -0.07408484       5.78330769       3.49298785      -0.00313202       0.00601134       0.00389377
C       -1.26692119       7.86893562       3.80130371       0.00135576       0.00410622      -0.00665461
C       -2.49050060       9.99161004       3.89042366      -0.00065861      -0.01436102      -0.00594530
C        4.92656164       1.44376434       4.07240481      -0.00695061      -0.00281306       0.00168772
P        3.59372111       3.55848860       5.21730943       0.01652590      -0.00126281      -0.00474546
C        1.15750236       7.87516351       3.57285683       0.00432503      -0.00363196      -0.00469790
C       -0.01889148       9.99947474       3.84057184       0.00554563      -0.00523967      -0.00053372
C        7.40064995       1.43437787       3.94584984      -0.00201329       0.00760759       0.00053172
C        6.21428104       3.55736981       4.24404947      -0.00058538       0.01590759      -0.00127637
C        4.97076860       5.70388229       3.97701072      -0.00301282      -0.00145069      -0.00954880
C        3.66228846       7.85941056       3.41559834      -0.00575126      -0.01163312       0.00487434
C        2.43482976       9.97014666       3.67950087       0.00386222       0.00050352       0.00227733
C        9.86037884       1.44429364       3.68712430       0.00568556       0.00503794      -0.00601609
C        8.64497036       3.57479170       3.90477758       0.00170201      -0.00127268       0.00288537
C        7.40870689       5.71224887       3.98400238       0.00487123       0.00093792       0.00903948
C        6.14258209       7.84352994       3.72617480      -0.00190115       0.00097484       0.00139472
C        4.90558359       9.97786247       3.63146010      -0.00821247       0.00543479      -0.00137041
Ni       3.25756659       4.12608186       3.20586171       0.00008577      -0.00450264       0.00073588
