50
Lattice="12.336457 0.0 0.0 -6.168228499999997 10.683685154694365 0.0 0.0 0.0 15.0" Properties=species:S:1:pos:R:3:forces:R:3 energy=-440.52766456310883 free_energy=-440.52766456310883 stress="0.0006472255602708802 -8.175559731507916e-06 -7.407687932173567e-06 -8.175559731507916e-06 0.000643116928851908 4.526609882233742e-06 -7.407687932173567e-06 4.526609882233742e-06 4.641398077258921e-06" pbc="T T T"
C       -0.00393011      -0.00041940       3.71584142      -0.00716257       0.00541039       0.00291001
C       -1.23019016       2.14444342       3.71286696       0.01126564      -0.00155078      -0.00042462
C       -2.45731910       4.27003093       3.71297002       0.00269454       0.00532157      -0.00075838
C       -3.70168383       6.40429359       3.71526379      -0.00044111      -0.00800623       0.00381892
C       -4.94162088       8.54117586       3.71809948       0.00141503      -0.00201059      -0.00297458
C        2.46677440       0.00510678       3.71733915      -0.00687052      -0.00003705      -0.00306706
C        1.23657896       2.14237851       3.73503690       0.00004230      -0.00480591      -0.00141517
C        0.04709448       4.29870251       3.75290762       0.00033816       0.00095008       0.00329119
C       -1.22573494       6.40723288       3.73820144      -0.00333147      -0.00005568      -0.00012868
C       -2.46180483       8.54131464       3.71959893      -0.00027772      -0.00738614      -0.00240342
C        4.93697253      -0.00072129       3.71638168       0.01133516       0.01239087       0.00326782
C        3.69672682       2.14239665       3.73528851      -0.00258271      -0.00093404      -0.00073978
O        2.46641928       4.17961355       3.73149722       0.00236374       0.00714548       0.00450713
O        1.15393461       6.45334061       3.72161103      -0.00458313       0.00654516       0.00340538
C        0.00428664       8.53737961       3.74097510      -0.00031808       0.00033871      -0.00230819
C        7.40731431      -0.01111762       3.71513375       0.00247035      -0.00228086       0.00020546
C        6.16310660       2.14458657       3.71245578      -0.00543588      -0.00134932      -0.00050089
C        4.88531199       4.29948054       3.75406039       0.00678575      -0.00913651       0.00536713
O        3.77932012       6.45392031       3.73622030      -0.00581179      -0.00469448       0.00238747
C        2.46676510       8.48927697       3.75723906      -0.00372422       0.00096472       0.00490204
C        9.86201550      -0.01108794       3.71576309       0.00174900      -0.00623667      -0.00304675
C        8.63502606       2.13437438       3.70406391      -0.00771417      -0.00011649      -0.00154901
C        7.39032478       4.26989537       3.71223279      -0.00790758       0.00778249       0.00097578
C        6.15868061       6.40710792       3.73590506       0.00365168       0.00355817       0.00111276
C        4.92888105       8.53742941       3.73925754       0.00303143       0.00365589      -0.00235804
C       -0.00392083       1.42605840       3.71860842       0.00363240      -0.00308279       0.00251229
C       -1.21166659       3.57217407       3.71938073       0.00265749      -0.00127834       0.00193463
C       -2.46628434       5.69119553       3.72005765      -0.00244912       0.00287471      -0.00036507
C       -3.70163460       7.83016786       3.71682343      -0.00302738      -0.01220686      -0.00055918
C       -4.93723812       9.97050926       3.71669472      -0.01322025       0.00396038      -0.00273917
C        2.46669263       1.42032534       3.72571671      -0.00184733       0.00072029       0.00042256
C        1.23261696       3.52656783       3.77443809       0.00176352      -0.00204299      -0.00149689
C       -0.02872251       5.71155381       3.77439324      -0.00029579       0.00397317      -0.00068632
C       -1.23619349       7.83356334       3.73104053       0.00090531      -0.00465461      -0.00677267
C       -2.46591665       9.97046629       3.71713604       0.00658228       0.00261081      -0.00056190
C        4.93700705       1.42575128       3.71876412       0.00018859       0.00695333       0.00205485
C        3.70044552       3.52662463       3.77520900      -0.00306956      -0.00097159      -0.00145736
C        1.20525449       7.84843566       3.77755014      -0.00410493      -0.00089688      -0.00055947
C        0.00379737       9.96963206       3.72279356       0.00784241       0.00429445      -0.00324726
C        7.40235228       1.42282891       3.70626522      -0.01287272      -0.00304739       0.00556772
C        6.14417889       3.57255044       3.71928550       0.00170061      -0.00473467       0.00220215
C        4.96184499       5.71193883       3.77607738       0.00241627      -0.00241856      -0.00018199
C        3.72818738       7.84882631       3.77938188      -0.00092534       0.00238524      -0.00207822
C        2.46647691       9.94276899       3.72306195       0.00055714      -0.00317822       0.00019495
C        9.86745298       1.42273638       3.70736264       0.00480457      -0.00416594       0.00122758
C        8.63486625       3.55761552       3.70614811      -0.00325364       0.00832562      -0.00031151
C        7.39935559       5.69108312       3.71861970       0.00102808       0.00286312      -0.00008301
C        6.16911591       7.83335490       3.72783229       0.00606336       0.00266676      -0.00038002
C        4.92905411       9.96980774       3.72186288       0.00217174       0.00265219      -0.00170432
Ni       2.45790698       5.69803472       4.94994443       0.01177048      -0.00706397      -0.00740887
