49
Lattice="12.336457 0.0 0.0 -6.168228499999997 10.683685154694365 0.0 0.0 0.0 15.0" Properties=species:S:1:pos:R:3:forces:R:3 energy=-427.98646395751445 free_energy=-427.98646395751445 stress="-0.002003523941796871 -7.766547335438603e-07 3.6701522825868536e-07 -7.766547335438603e-07 0.00642353893884982 7.810769796331382e-08 3.6701522825868536e-07 7.810769796331382e-08 6.182237710080756e-07" pbc="T T T"
C        0.00185116       0.00747384       3.75043704      -0.00129457       0.00771857       0.00385771
C       -1.24411598       2.13002733       3.74492619      -0.01369180      -0.00140124      -0.00372735
C       -2.47533597       4.27440912       3.73832796       0.00533817      -0.00523406      -0.00186861
C       -3.70127545       6.41545731       3.74353305      -0.00003747      -0.00481034       0.00321035
C       -4.93711894       8.55847528       3.75272816       0.00231479       0.00321313      -0.00642154
C        2.46665999       0.05799332       3.75334855       0.00316046       0.00044946      -0.00759748
C        1.20230296       2.14708743       3.75610854       0.00122853       0.00644569      -0.00395345
C       -0.06797400       4.28372030       3.74826712       0.00376281       0.00204566      -0.01013666
C       -1.24958569       6.41015399       3.73920818       0.00271504       0.00030121       0.00223244
C       -2.46545227       8.55869906       3.74079651      -0.00517666      -0.00099752       0.01839093
C        4.93164363       0.00763364       3.74827624       0.00230811       0.00551373       0.01336713
C        3.73139943       2.14732171       3.76421306      -0.00187396       0.00489777       0.00103503
O        1.13759019       6.40959546       3.75501580       0.00336025       0.00006127      -0.00069665
C        0.00649376       8.52168776       3.74811736       0.00082888      -0.01548107       0.00299266
C        7.41002476      -0.03698909       3.75071990      -0.00274430       0.01001386       0.00965872
C        6.17782134       2.12958269       3.75769520       0.01216587       0.00448473      -0.00241408
C        5.00197471       4.28385105       3.77871743      -0.00555064      -0.00174985      -0.00377494
O        3.79620068       6.40949392       3.78827827       0.00134270      -0.00152616      -0.00280098
C        2.46700769       8.44942165       3.75986627      -0.00191376      -0.00144277       0.00424542
C        9.86039446      -0.03655905       3.75168851       0.00014777       0.00066273      -0.00553747
C        8.63492057       2.11992461       3.74445255       0.00347027       0.00726348       0.00368670
C        7.40879063       4.27407262       3.75113106      -0.00163362       0.00055154       0.00295961
C        6.18375668       6.41003933       3.76632232      -0.00760827       0.00029994      -0.00568469
C        4.92722195       8.52134115       3.75916855       0.00170035      -0.01153735       0.00606390
C        0.00694198       1.44511101       3.74904143      -0.00517914       0.00978279       0.00755972
C       -1.24969348       3.55648945       3.74199890       0.00499412      -0.00183620       0.00203949
C       -2.47519375       5.69229513       3.73764779       0.00656695      -0.00524412       0.00379043
C       -3.70123877       7.84612668       3.74552554      -0.00129082      -0.00463293      -0.00375737
C       -4.92650626      10.00278483       3.75193556       0.00249085       0.00342713       0.00202124
C        2.46686768       1.51722529       3.75967966      -0.00093961      -0.00260730      -0.00561814
O        1.13780128       3.55722642       3.75379765       0.00360251       0.00155997       0.00219675
C       -0.06801460       5.68272208       3.74576086       0.00626786       0.00419279       0.00014379
C       -1.24445622       7.83661481       3.74200868      -0.00555545      -0.00136167      -0.00654632
C       -2.47652750      10.00299199       3.74674830       0.00240765       0.00014066       0.00183200
C        4.92661569       1.44509629       3.75720429       0.00518845       0.01072169      -0.00163242
O        3.79628012       3.55740037       3.78526714      -0.00953532      -0.00111667      -0.00148375
C        1.20207280       7.81987681       3.75553178       0.00360010      -0.01225376      -0.00283383
C        0.00148524       9.95907140       3.74944755      -0.00005874      -0.00950490      -0.00635530
C        7.39888369       1.40725031       3.75087585       0.01060901       0.00905561      -0.00460920
C        6.18326662       3.55610245       3.76303486      -0.00039736       0.00156008      -0.00110101
C        5.00210120       5.68286780       3.78084514      -0.00757495      -0.00090080      -0.00660998
C        3.73171473       7.81949403       3.76738215      -0.00241441      -0.00764451      -0.00769323
C        2.46707943       9.90836807       3.75485530      -0.00209183       0.00266902      -0.00869824
C        9.87125221       1.40767525       3.74533671      -0.00966352       0.00449744       0.00356974
C        8.63491144       3.55082161       3.74094237       0.00275557       0.00097345       0.01321165
C        7.40920547       5.69200929       3.75347035      -0.01086946      -0.00084175      -0.00236685
C        6.17838188       7.83645905       3.75946814       0.00474247      -0.00210632       0.00521179
C        4.93220721       9.95886933       3.75212666      -0.00164247      -0.00665348       0.00609598
Ni       2.46675893       4.98368492       3.77344308       0.00166856      -0.00161864      -0.00545361
