49
Lattice="12.336457 0.0 0.0 -6.168228499999997 10.683685154694365 0.0 0.0 0.0 15.0" Properties=species:S:1:pos:R:3:forces:R:3 energy=-424.1379401152497 free_energy=-424.1379401152497 stress="-0.005426217133671059 9.304302251170133e-06 8.403201217626023e-06 9.304302251170133e-06 -0.007373197807283444 2.4105401661256498e-05 8.403201217626023e-06 2.4105401661256498e-05 -4.132327050347867e-06" pbc="T T T"
C       -0.00258315      -0.00739836       3.44860324       0.00767530      -0.00328330      -0.00755231
C       -1.24413525       2.12515632       3.53886452      -0.00332521       0.00499459       0.00205701
C       -2.47588267       4.26911181       3.34105887       0.00551962       0.00463182      -0.00188895
C       -3.70106710       6.41054362       3.25808320      -0.00085060       0.00253743       0.01008499
C       -4.93692458       8.54546076       3.34928140      -0.00825436      -0.00667164       0.00026500
C        2.46599412      -0.01244011       3.50426947       0.00666110       0.00147277       0.01135635
C        1.20463259       2.01704122       4.07651121      -0.00262462       0.00509904      -0.00069754
C       -0.15308702       4.27729532       4.08719508       0.00529507      -0.00368729       0.00307279
C       -1.27482591       6.41927785       3.61019149      -0.00131858      -0.00104263      -0.00187364
C       -2.46660018       8.54557863       3.35183465       0.00422041       0.00218840      -0.00616302
C        4.93459132      -0.00624896       3.44948371      -0.00022601      -0.00053857      -0.00744989
C        3.72808983       2.01858051       4.07628557       0.00279908       0.00123276       0.00244371
P        1.01079928       6.52986591       5.11601157      -0.00616502       0.00454870       0.00860631
C       -0.01183148       8.56312448       3.66455983       0.00192569       0.00322555      -0.00562826
C        7.40249912      -0.00236568       3.40507372      -0.00462393       0.00221079       0.00690807
C        6.17759197       2.12659233       3.53958660      -0.00060554      -0.00830132       0.00065841
C        5.08934813       4.27746174       4.09560857       0.00068698       0.00836340      -0.00315379
P        3.92628287       6.53411106       5.12490328       0.00137790      -0.00762988       0.00214443
C        2.46635138       8.59628022       3.89554996       0.00342805       0.00534326       0.00074302
C        9.86684814      -0.00300306       3.40493366      -0.00330252       0.00323304       0.00188859
C        8.63492250       2.13090044       3.28525418       0.00070934      -0.00261114       0.00629225
C        7.41043402       4.26987413       3.34319647      -0.00723596      -0.00482738      -0.00364761
C        6.20915706       6.41909690       3.61348029       0.00353406      -0.00027292      -0.00139160
C        4.94382395       8.56142160       3.66149333       0.00267929       0.00702426      -0.00172082
C       -0.01123232       1.40310124       3.66297714      -0.00367092       0.00188900      -0.00635659
C       -1.27431402       3.54658407       3.60959666      -0.00434795       0.00677984      -0.00085699
C       -2.47600881       5.69632653       3.34123599       0.00656878       0.00589483      -0.00101114
C       -3.70149020       7.83524535       3.28609758      -0.00235005       0.00294996       0.00106295
C       -4.93438089       9.96892912       3.40350516       0.00811855      -0.00512784       0.00272699
C        2.46639926       1.37071241       3.89247343       0.00226894       0.00269951       0.01103114
P        1.01011988       3.43614610       5.11813656      -0.00821235      -0.01109065      -0.00901103
C       -0.15250767       5.68928181       4.08591390      -0.00295322      -0.01193140       0.00324905
C       -1.24481284       7.84071494       3.54120111       0.00379597       0.00276920      -0.00452185
C       -2.46995402       9.96918440       3.40486083       0.00391873       0.00159381       0.00355601
C        4.94393472       1.40479308       3.66266909       0.00242975      -0.00457026      -0.00606644
P        3.92634085       3.43368187       5.12413939      -0.01013392      -0.00995800      -0.00062662
C        1.20429290       7.95011855       4.07805290       0.00024233      -0.00614182      -0.00592285
C       -0.00230303       9.97360845       3.45000680      -0.00130483       0.00634315      -0.00526655
C        7.39932844       1.42119792       3.35018752      -0.00168965      -0.00159551      -0.00265173
C        6.20894247       3.54778289       3.61285417       0.00327808      -0.00468530       0.00131679
C        5.08982819       5.68929018       4.09657709      -0.00500343       0.00278291      -0.00203550
C        3.72810374       7.94832545       4.07719146       0.00674460      -0.00075261      -0.00151920
C        2.46638963       9.97913382       3.50714093      -0.00366757       0.00345458       0.00298014
C        9.87014933       1.42048436       3.35024913       0.00319356       0.00221052      -0.00401478
C        8.63524959       3.55553196       3.25801200       0.00058591      -0.00147849       0.00683718
C        7.41048679       5.69679153       3.34324332      -0.00840132      -0.00049158      -0.00262435
C        6.17776886       7.84025988       3.53883497      -0.00478519      -0.00204243       0.00289528
C        4.93456428       9.97218127       3.44800624       0.00001431       0.00771084      -0.00381919
Ni       2.46806926       4.98382327       5.47024233       0.00738133      -0.00445201       0.00529577
