49
Lattice="12.336457 0.0 0.0 -6.168228499999997 10.683685154694365 0.0 0.0 0.0 15.0" Properties=species:S:1:pos:R:3:forces:R:3 energy=-438.4067766877449 free_energy=-438.4067766877449 stress="-0.0010558235848033676 -0.0058167079746882355 1.645372159155377e-06 -0.0058167079746882355 -0.00238883674712827 -5.140524300370978e-06 1.645372159155377e-06 -5.140524300370978e-06 9.095386658214214e-07" pbc="T T T"
C       -0.00879563       0.01196228       3.82824138      -0.00463985       0.00326140      -0.00416184
C       -1.28003864       2.12911542       3.81919316      -0.00246324       0.00278667      -0.00936257
C       -2.52651044       4.27515069       3.86784220      -0.00224057       0.00087304       0.00236808
C       -3.69036551       6.42623478       3.93948825       0.00093599      -0.00807996      -0.00118391
C       -4.90669157       8.58038399       3.92349702       0.00737397      -0.00321287       0.00038878
C        2.47162188      -0.01520036       3.64056898      -0.00298165      -0.00012799       0.00355654
C        1.22435498       2.09538523       3.65055686       0.00753935      -0.00207506      -0.00873587
C       -0.09137356       4.27058817       3.75179032      -0.00126193      -0.00088467       0.00268680
C       -1.24066021       6.41166556       3.76180452      -0.00521441      -0.00056928       0.00190245
C       -2.44665501       8.54791368       3.72862505      -0.00283385      -0.00634717      -0.00676176
C        4.93537386       0.00225151       3.53253122       0.00113389       0.00075080       0.00430015
C        3.64177357       2.09171712       3.15449430       0.00338029       0.01878468       0.00089441
B        1.38559342       6.25343490       3.63220185      -0.00917047       0.00142772      -0.00878172
C        0.03169581       8.51623243       3.64068067       0.00085388      -0.00700307      -0.00357095
C        7.38001962       0.00928119       3.69481166       0.01082763      -0.00608542      -0.00651953
C        6.09410102       2.17156179       3.69968460      -0.00624290       0.00408550       0.00054924
C        4.88107293       4.42609876       4.04625502      -0.00140379      -0.00885150      -0.00526784
N        3.86164207       6.49309024       3.94776090       0.00433286       0.00353157       0.01516674
C        2.48295648       8.53576182       3.75521842      -0.00009604       0.00707164       0.00775950
C        9.84193930       0.00809502       3.82780280       0.01676869      -0.00184500       0.00512304
C        8.57656970       2.14941050       3.83360010      -0.00431586      -0.00572065       0.00001380
C        7.33480191       4.29517797       3.96869582       0.00108069       0.01297112      -0.00270323
C        6.23327231       6.49524719       4.14504916      -0.00890650       0.00841109      -0.00815235
C        4.95988757       8.58433391       3.95285724      -0.00290798       0.00253140      -0.00680216
C       -0.03025466       1.42649550       3.77361075      -0.00110698       0.00333747      -0.00373369
C       -1.30336367       3.54473235       3.81680406      -0.00470145       0.00257854      -0.00076669
C       -2.48386259       5.70058350       3.85887774      -0.00043133      -0.00353630      -0.00593995
C       -3.67834063       7.85049084       3.87649308       0.00617515      -0.01120274      -0.00511147
C       -4.93065442       9.98854727       3.80543383      -0.00449720       0.00123405       0.00117459
C        2.44029290       1.39082391       3.51100638       0.01007993       0.00513850       0.00262809
B        1.26751412       3.58957986       3.68232124       0.00049671      -0.00101124      -0.00747658
C       -0.04640055       5.66250049       3.71934848      -0.00468196      -0.00149950       0.00761716
C       -1.21393535       7.82961605       3.69924789      -0.00456080      -0.00349305       0.00505414
C       -2.45804093       9.96634671       3.61000213      -0.00355937      -0.00372694       0.00291180
C        4.91514862       1.43086330       3.44749189      -0.00099988       0.00604361      -0.00046301
O        3.54972781       3.19348805       2.45193035      -0.00424633      -0.01410583       0.00054662
C        1.28693643       7.79509753       3.66302856       0.00240981      -0.00094282      -0.00298262
C        0.00350298       9.95988093       3.61549299       0.00524044      -0.00560553      -0.00062129
C        7.33995986       1.44836783       3.74930825      -0.00558764      -0.00485443       0.00202251
C        6.05398506       3.61213690       3.91364888      -0.00008536       0.00331901       0.00758027
C        5.00832470       5.82013182       4.09966927      -0.00234353      -0.01184073      -0.00490587
C        3.74141217       7.84394000       3.88156770      -0.00379571       0.00809213       0.00322586
C        2.45326029       9.97321040       3.76349344       0.01684637       0.00384169       0.00518180
C        9.82046646       1.42982842       3.83275785       0.00315315      -0.00596090      -0.00214438
C        8.56665927       3.57455842       3.89154812      -0.00308541       0.00078626       0.01288747
C        7.40946468       5.72144213       4.04316954      -0.00611630       0.01296177       0.01168156
C        6.20001685       7.89772594       4.03857101      -0.00075919       0.00722713      -0.00100861
C        4.92467523       9.99400701       3.87754841       0.00497861      -0.00358177      -0.00266799
Os       2.89531287       4.76926020       3.58909620       0.00163007       0.00111765       0.00260443
