50
Lattice="12.336457 0.0 0.0 -6.168228499999997 10.683685154694365 0.0 0.0 0.0 15.0" Properties=species:S:1:pos:R:3:forces:R:3 energy=-449.261164765139 free_energy=-449.261164765139 stress="-0.00352502062582557 0.0033200852228631125 3.4940583645389928e-06 0.0033200852228631125 -0.00042097810160225744 -5.0618565388221965e-06 3.4940583645389928e-06 -5.0618565388221965e-06 6.013963848295771e-06" pbc="T T T"
C       -0.00103042       0.02869037       3.67569517      -0.00335972      -0.00422667      -0.00763118
C       -1.22366579       2.16196337       3.73831220      -0.00053854      -0.00649765      -0.00832073
C       -2.46063414       4.29879257       3.79175324      -0.00058938      -0.00018341      -0.00372022
C       -3.71250221       6.43396973       3.74390635       0.00099252       0.00818085      -0.00775028
C       -4.95805160       8.56405013       3.64551357      -0.00071136       0.00695140       0.00929923
C        2.45615023       0.02278398       3.77678506      -0.01410858      -0.00233259       0.00793265
C        1.25232058       2.18556288       3.63127011       0.00451763      -0.00054819       0.00328076
C       -0.02846632       4.33494633       3.69354914       0.00520508       0.00345609       0.01655732
C       -1.27502122       6.45282521       3.91371410       0.00781669       0.00458315       0.00302470
C       -2.49515512       8.57701250       3.89363103       0.00150336      -0.00049911      -0.00923684
C        4.93078214       0.01379548       3.96887523      -0.01549065      -0.00054547      -0.00617996
C        3.71279496       2.13250341       3.78680816       0.00273942       0.00546580      -0.01204134
B        2.59141070       4.27169822       2.83761536       0.01127888      -0.00316392      -0.00198329
C        1.16526287       6.41769610       4.16133438       0.00197370       0.00755048      -0.00219588
C       -0.01805878       8.56308840       4.05975725       0.00280655       0.00036342       0.00410896
C        7.40815615       0.00807538       4.00402136       0.00145278      -0.00354788       0.00240709
C        6.19643807       2.13031235       3.90377132       0.00289019      -0.00761066      -0.00063284
C        5.03493390       4.24041743       3.52816896       0.00357052       0.00340853       0.00795216
P        3.39377951       6.18149089       2.83560245      -0.00422717      -0.00796161      -0.00106085
C        2.45162338       8.56093126       3.86092163      -0.00442615       0.00321925       0.00419665
C        9.87419208       0.01373897       3.81397904      -0.00071033       0.01419361      -0.00917318
C        8.65475275       2.14865525       3.87810387      -0.01248442       0.00200948       0.00446876
C        7.43776487       4.28564183       3.74073393       0.00113313      -0.01489185      -0.00822830
C        6.18609410       6.41700815       3.44135597       0.00505194      -0.00926848       0.01263758
C        4.90452075       8.55722310       3.53006172      -0.00115261      -0.00132017      -0.00196319
C        0.01945289       1.46575954       3.68493731       0.00328930      -0.00767949      -0.00016154
C       -1.23211008       3.58916551       3.73128307       0.00212199      -0.00384322       0.00161983
C       -2.48200422       5.72561606       3.81915356       0.00366100       0.00752324      -0.01126422
C       -3.72213858       7.86055694       3.75685908      -0.00069609       0.01073244      -0.00350781
C       -4.94322243       9.99534426       3.69132744      -0.00841169       0.00081898       0.00167161
C        2.46678223       1.46254196       3.72444129       0.00265557      -0.00184295      -0.00626293
C        1.26098179       3.67299127       3.56213480       0.00833193       0.00742704       0.01189885
C       -0.04533802       5.73017991       3.91861372       0.00707837       0.00566194       0.00261297
C       -1.26454019       7.86793556       3.98566598       0.00626842       0.00271229      -0.00132146
C       -2.48366218       9.99952108       3.89247471      -0.01752532      -0.00403633       0.00057162
C        4.94363469       1.43042138       3.91140647      -0.00229253       0.00193781       0.00586004
C        3.76536366       3.56442540       3.62277990       0.00536004       0.00491501      -0.01135765
C        1.21557211       7.83923443       4.05893667       0.00112938      -0.00221718       0.00784261
C       -0.00453767       9.98477452       4.03125576      -0.00691582       0.00067546       0.00427335
C        7.42109307       1.42915585       3.95296619      -0.00095454      -0.00664256       0.00009025
C        6.23155642       3.54321569       3.74511429       0.00056959      -0.01012591      -0.00947424
C        5.02376465       5.61830586       3.27530727      -0.00038797      -0.00055555       0.00586070
C        3.63470153       7.89064195       3.48636347      -0.00899384       0.00558482       0.00896791
C        2.47005544       9.98798151       3.92524925       0.00480233       0.00536496       0.00000521
C        9.88555265       1.44174474       3.82444216      -0.01123497       0.01122551      -0.00741074
C        8.65823466       3.57557963       3.81589934      -0.00194679      -0.00501653       0.00603358
C        7.41350752       5.71069735       3.63430575       0.00603339      -0.01145887       0.00904768
C        6.15030448       7.84723211       3.50257341       0.00745881      -0.00334625      -0.00209040
C        4.93029748       9.98796559       3.67437006      -0.00325214       0.00269843      -0.00415634
Os       2.52658587       4.95084460       4.62755773       0.00871814      -0.00729751      -0.00509667
