49
Lattice="12.336457 0.0 0.0 -6.168228499999997 10.683685154694365 0.0 0.0 0.0 15.0" Properties=species:S:1:pos:R:3:forces:R:3 energy=-429.55163336129567 free_energy=-429.55163336129567 stress="-0.0018157286748223922 0.0008092696386751945 -9.384713034073161e-06 0.0008092696386751945 -0.004648536770899729 -4.048028166583081e-06 -9.384713034073161e-06 -4.048028166583081e-06 6.647456510980122e-06" pbc="T T T"
C        0.03020133       0.02830674       3.88775234       0.00141391       0.00127537       0.00412755
C       -1.20133263       2.13877530       3.98299200       0.00414720       0.00216825      -0.00129386
C       -2.45185537       4.29348662       4.06809742      -0.00615267      -0.00339290      -0.00391351
C       -3.66481234       6.43096395       3.96542563      -0.00400753       0.00681935      -0.00018786
C       -4.91276229       8.55961140       3.95883312       0.01068850       0.00666854      -0.00491521
C        2.48616841       0.00461494       3.64740286      -0.00285614       0.00186254       0.00576657
C        1.21670443       2.13605347       3.23989415      -0.00699530      -0.00567798      -0.00029350
C       -0.06331923       4.26485569       4.22247510       0.00308679       0.00254072      -0.00852107
C       -1.19403278       6.42841257       3.92093708       0.00577368      -0.00444251      -0.00443196
C       -2.43672391       8.56297704       3.81361322      -0.00344417      -0.00775864       0.00261626
C        4.95680100       0.01979224       3.59856749       0.00343051      -0.00795102      -0.00995174
C        3.71468817       2.06060506       3.16359732      -0.00562091       0.00105985       0.00456883
B        1.37049527       6.43622571       3.74006866      -0.01417277      -0.00485777       0.00825499
C        0.02126073       8.59025232       3.74683932      -0.00323988      -0.00389274       0.00620652
C        7.42267248       0.04565309       3.74371313       0.00071988       0.01028111       0.00059576
C        6.20157112       2.16230857       3.49154368       0.00857059       0.01142246      -0.00408507
C        5.06926603       4.34055829       3.36644010       0.00675733       0.00789294       0.00599773
P        3.39058798       6.16767698       4.45658658      -0.00608370      -0.01531247      -0.00138933
C        2.49217519       8.63776399       3.94584643      -0.00597751      -0.00461687       0.00566135
C        9.90260522       0.03768874       3.95576865      -0.00321684       0.00856265      -0.00548922
C        8.66274642       2.16550055       3.86129919      -0.00179262      -0.00380870       0.00849440
C        7.44842978       4.29742093       3.79951400       0.00318943       0.00170933      -0.01117000
C        6.20072141       6.42155105       3.98523208       0.00134835      -0.00364772       0.00454934
C        4.95059225       8.56720008       4.11005416       0.00705617      -0.00164366      -0.00535095
C        0.02626974       1.45299747       3.77220173       0.00108386      -0.00160095       0.00020708
C       -1.23861322       3.54465216       4.17069304       0.00568616       0.00295806      -0.00844316
C       -2.42653369       5.71727358       3.99900255      -0.00406800       0.00303355      -0.00547269
C       -3.67030517       7.85230662       3.91978178       0.00088463       0.00392762       0.00846290
C       -4.90945324       9.98200545       3.83932173       0.00294819       0.00369220       0.00619257
C        2.48577062       1.40986589       3.34944167      -0.00952882       0.00289778       0.00416563
S        0.91408347       3.17841152       1.82007404      -0.00315576      -0.00875203       0.00509845
C        0.05783025       5.63549984       3.93584549       0.00425400       0.00072997      -0.00113932
C       -1.20078943       7.85346086       3.81049170      -0.00227281      -0.00548028       0.00493993
C       -2.44103008       9.98506052       3.68529591      -0.00337533      -0.00887821       0.00387088
C        4.96668062       1.43843054       3.41256540       0.00684577       0.00188302      -0.01014483
S        3.74027869       3.65855692       2.48408091      -0.00319269      -0.00486810      -0.01079515
C        1.27359229       7.93095657       3.79088846      -0.00649093      -0.01023348       0.00418239
C        0.02237998      10.00968957       3.69323203       0.00567411      -0.00035886       0.00826632
C        7.42344700       1.46492274       3.69645927       0.00185303       0.00911087      -0.00066378
C        6.24094625       3.58020589       3.51778176       0.00350184       0.01080758       0.01059116
C        4.99640650       5.64907538       3.85501243       0.00568254      -0.00568425      -0.00190519
C        3.68934813       7.91294858       4.17022936      -0.00001090      -0.00538835      -0.00021812
C        2.49146305      10.04363491       3.88540622      -0.00399480       0.00460167       0.00173436
C        9.89372279       1.45049420       3.95255869       0.00182327       0.00678874      -0.00600871
C        8.66635353       3.58365491       3.91745115      -0.00496515      -0.00924980       0.00167426
C        7.44101627       5.71736309       3.92767270      -0.00027418       0.00028191      -0.00187992
C        6.19032473       7.84660152       4.06489473       0.01395961       0.00199342      -0.00623755
C        4.96269426      10.00121634       4.01395112      -0.00121741       0.00595477       0.00267721
Os       1.66866132       4.48100879       3.59789201      -0.00427252       0.00657301      -0.00500075
