50
Lattice="12.336457 0.0 0.0 -6.168228499999997 10.683685154694365 0.0 0.0 0.0 15.0" Properties=species:S:1:pos:R:3:forces:R:3 energy=-447.0335391231018 free_energy=-447.0335391231018 stress="-0.007786063953086774 0.0012091856282605332 -1.4426293049946758e-05 0.0012091856282605332 -0.009324188303896143 8.131589567386705e-06 -1.4426293049946758e-05 8.131589567386705e-06 -5.86954576337383e-07" pbc="T T T"
C        0.01679940      -0.00291559       3.74557205       0.00285448       0.00421369       0.01032896
C       -1.21794636       2.13515270       3.74771653      -0.00182642       0.00552707       0.00736256
C       -2.45872442       4.28492873       3.74806048      -0.00106862       0.00407751       0.00459100
C       -3.69232005       6.42338838       3.74896555       0.00070640       0.00273972       0.00502615
C       -4.92943624       8.54771229       3.78842362       0.00668662       0.00092917       0.00540328
C        2.48251583      -0.00115264       3.60846714       0.00404271       0.00405225       0.00968450
C        1.25356384       2.10322382       3.82568591      -0.00128747      -0.00025707      -0.00039539
C       -0.03062973       4.25350924       3.99089126       0.01053940      -0.00231010       0.00278387
C       -1.24924776       6.44154701       3.82276431      -0.00643262      -0.00192935       0.00217127
C       -2.45806463       8.55816556       3.61012218       0.00160254      -0.00418366       0.00683602
C        4.95098486       0.00774440       3.40691586       0.00277404      -0.00015276       0.00786180
C        3.73987934       2.11681257       3.51150242      -0.00171241      -0.00130456       0.00602790
B        2.55974718       4.21424208       3.90377039       0.00158088      -0.01373329      -0.00619037
B        1.23549411       6.51435614       3.88641193      -0.01641236       0.00889606       0.00305545
C        0.00533725       8.58771356       3.51165502      -0.00867750       0.00389028       0.00276942
C        7.42614519       0.02799561       3.40634135       0.00141527      -0.00130456      -0.00516035
C        6.20543594       2.14268699       3.39992324      -0.00258521      -0.00216157      -0.00016578
C        5.02011449       4.25434252       3.70290919      -0.00543925      -0.00199821       0.00443652
P        3.48459620       6.28503828       4.69574831       0.01577269      -0.00134901       0.00319541
C        2.49477446       8.62961118       3.70905606      -0.00315132      -0.00081638      -0.00621121
C        9.90094564       0.02690484       3.62504787       0.00618027       0.00021952      -0.00092713
C        8.66816948       2.15453347       3.51922717      -0.00537085      -0.00751656      -0.00172611
C        7.44241222       4.28601564       3.61903440       0.00054210       0.00430186       0.00785442
C        6.18925278       6.40631181       3.94396391       0.00093437       0.00507368      -0.00362937
C        4.94375185       8.56448436       3.94354406       0.00062320       0.00237701       0.00684411
C        0.01982774       1.41680433       3.77731429      -0.00328712       0.00506103      -0.00320010
C       -1.25133084       3.54891730       3.82701037       0.00463750       0.00583832      -0.00365102
C       -2.46095891       5.71613467       3.77900147      -0.00430683       0.00212770      -0.00988404
C       -3.69123753       7.84569803       3.72223708       0.00294393      -0.00272705       0.00521608
C       -4.91909121       9.97069014       3.72099058       0.00349757       0.00237645      -0.00284262
C        2.48836640       1.42159362       3.64310432      -0.00114174       0.00520220      -0.00276203
C        1.19909624       3.54442881       4.01829990       0.01285445      -0.00224816      -0.00100744
C       -0.02687206       5.67410793       4.01050895      -0.00782777      -0.00190305       0.01048660
C       -1.22245374       7.85163762       3.64342503      -0.00239864      -0.00454448      -0.01151186
C       -2.45293028       9.97788662       3.51927146       0.00231619      -0.00279766       0.00339908
C        4.96803771       1.42205642       3.39695009      -0.00032438      -0.00088296      -0.00242110
C        3.81272516       3.52511790       3.60199227      -0.00895709      -0.00001974      -0.00359365
C        1.26183326       7.94682654       3.59742170      -0.00965683      -0.00418820       0.00033901
C        0.01617971       9.99925450       3.40006371       0.00174541       0.00304514      -0.00068169
C        7.43623433       1.44353646       3.40514444      -0.00543214      -0.00482296      -0.00824970
C        6.23260585       3.55881216       3.52832927      -0.00027395       0.00054580      -0.00140409
C        5.00965610       5.62627106       4.06796614      -0.00465503       0.00507917      -0.00025988
C        3.67828241       7.93527788       4.07296535      -0.00097459      -0.01357633      -0.01072070
C        2.49752088      10.02762184       3.53903312       0.00533855       0.00215759      -0.01601092
C        9.89532520       1.44173643       3.60890689       0.00013055      -0.00103034      -0.00082908
C        8.66503353       3.57355627       3.60620610      -0.00063410      -0.00280925       0.00217855
C        7.42318408       5.70389637       3.76709894       0.00121686       0.00786424      -0.01013865
C        6.17719348       7.83773119       3.93735128       0.00257159       0.00362098      -0.00531517
C        4.95157831       9.98391580       3.76559715       0.00529757       0.00163168       0.00283209
Os       1.62692250       5.21884312       5.33274916       0.00502909      -0.01028086      -0.00179455
