50
Lattice="12.336457 0.0 0.0 -6.168228499999997 10.683685154694365 0.0 0.0 0.0 15.0" Properties=species:S:1:pos:R:3:forces:R:3 energy=-451.826502776361 free_energy=-451.826502776361 stress="-0.003918217022396382 0.0031360720086571485 9.598363110972536e-06 0.0031360720086571485 -0.004024616496279744 4.892715339944437e-06 9.598363110972536e-06 4.892715339944437e-06 2.427549379338475e-06" pbc="T T T"
C       -0.04709024      -0.01251542       3.85601652       0.00663839      -0.00409709      -0.00561014
C       -1.25847099       2.14163301       3.88681252       0.00670840       0.00816747      -0.00871633
C       -2.48490383       4.27936361       3.86465975      -0.00453150       0.00037379      -0.00114980
C       -3.73072437       6.41116506       3.81459540      -0.00454375      -0.00428856      -0.00412698
C       -4.99220949       8.53062602       3.79494616      -0.00353494      -0.00139084       0.00038997
C        2.41921521      -0.00575431       3.86014061       0.00548310       0.00745932      -0.00366613
C        1.19765741       2.12946122       3.73229550      -0.00400316      -0.00507699       0.00473238
C       -0.03089266       4.28892023       3.72413043      -0.00079280       0.00703219      -0.00691366
C       -1.26200652       6.42021473       3.86347546      -0.00302674      -0.00645326       0.00055641
C       -2.52207343       8.55021171       3.93667697       0.00394100      -0.00422858      -0.00016304
C        4.89021599       0.00171306       4.00362993      -0.00688917       0.00073846       0.00104180
C        3.68232530       2.11036281       3.73779896       0.00353165      -0.00000878       0.00955441
B        2.47017437       4.29921296       3.40444596      -0.00066704       0.00294011       0.00012580
C        1.18188906       6.49834589       3.67965185      -0.00831353       0.00958636      -0.00452289
C       -0.06941531       8.57046517       4.04924669       0.00744145      -0.00330150      -0.00248475
C        7.36181664       0.01447284       4.10522253      -0.00667163       0.00266251       0.00013303
C        6.15168491       2.12139748       3.90325414      -0.00727393       0.00740293       0.01046618
C        4.98224068       4.19642231       3.43643214      -0.00008992       0.00457568       0.01344939
O        4.55186678       5.86212258       1.72359786       0.00152656       0.00151933      -0.00356690
C        2.39661915       8.59140376       3.98398424       0.00231793      -0.00711111      -0.01022444
C        9.84084304       0.00865003       4.00633779      -0.00121954      -0.00023708       0.00121384
C        8.61551948       2.14118871       3.98225301       0.00205877       0.00151668       0.00087659
C        7.40070867       4.26525732       3.75558638       0.00059389      -0.00517969       0.00272548
C        6.16262272       6.39538007       3.49801167       0.00022901      -0.00572797      -0.00264432
C        4.86653956       8.52044700       3.77514030      -0.00316023       0.00317976      -0.01132504
C       -0.03569684       1.41712057       3.83598703       0.00009883      -0.00513985      -0.00979291
C       -1.25942390       3.56792788       3.83786619       0.00175204       0.01019942       0.00523937
C       -2.49219149       5.70420848       3.85345698      -0.00643994      -0.00390609      -0.00439235
C       -3.75211407       7.83207565       3.84354490      -0.00232776      -0.00205611       0.00270533
C       -4.98599401       9.95620922       3.83675441       0.00769635       0.00174669       0.00962117
C        2.43222583       1.41598582       3.77051320       0.00145158       0.00612139       0.01861267
C        1.17584180       3.55422539       3.62750830      -0.00132469      -0.00182004       0.01963537
C       -0.02008980       5.71769533       3.75056374      -0.00123120       0.00588170       0.00617856
C       -1.28943773       7.84460330       3.95805262       0.00725080      -0.00727565      -0.00243605
C       -2.51609954       9.97236640       3.94476077      -0.00129161      -0.00128923      -0.00196835
C        4.91031930       1.41405768       3.89874462      -0.00295107       0.00020796      -0.00394230
C        3.76246380       3.51169033       3.51243112       0.00391638      -0.00215420       0.01469127
C        1.16827771       7.88954134       3.95221946       0.00356743      -0.00528448       0.00368079
C       -0.04794137       9.98774829       4.08639981      -0.00732549      -0.00126272       0.00300679
C        7.37807030       1.42835856       4.02829914      -0.00631401       0.00871913       0.00218405
C        6.18732807       3.53048545       3.71340232      -0.00100386       0.00209111       0.00140369
C        5.05881530       5.57819042       2.94817607       0.00370700      -0.00466444      -0.00610650
C        3.59621809       7.86962421       3.75560593       0.00131870      -0.00262646      -0.01018485
C        2.43026283      10.00599732       4.09310850      -0.00503572      -0.00849512      -0.00710470
C        9.84715071       1.43238828       3.98260668       0.00789096       0.00532007       0.00106433
C        8.62234268       3.56239888       3.88586103      -0.00011201      -0.00241178       0.00530126
C        7.37952007       5.69299798       3.68788888       0.00063267      -0.00816683      -0.01133520
C        6.10793598       7.80171768       3.66886284      -0.00538948      -0.00229898      -0.01861088
C        4.88836967       9.95591357       3.89488176       0.00243045      -0.00020619      -0.00483020
Os       2.99797368       6.20101005       2.96482020       0.01328136       0.00871754       0.00722876
