49
Lattice="12.336457 0.0 0.0 -6.168228499999997 10.683685154694365 0.0 0.0 0.0 15.0" Properties=species:S:1:pos:R:3:forces:R:3 energy=-436.59191240600524 free_energy=-436.59191240600524 stress="-0.001496158671368715 0.0007609447495348506 -1.9761630727403446e-06 0.0007609447495348506 -0.008235476031356447 -2.2845781645945156e-06 -1.9761630727403446e-06 -2.2845781645945156e-06 -1.5051096562065872e-06" pbc="T T T"
C       -0.00160127      -0.04166127       3.83150803       0.00187770       0.00220794       0.00441749
C       -1.21659685       2.12170720       3.73328114      -0.00356305      -0.00168008       0.00224750
C       -2.43268747       4.27324256       3.86677688      -0.00409990      -0.00566873      -0.00405319
C       -3.67904756       6.40540905       3.93248323       0.00019626       0.00642431       0.00333280
C       -4.92531737       8.52710663       3.94764354      -0.00124156      -0.00147468      -0.00134419
C        2.46797259      -0.04287390       3.75997403      -0.00352904       0.00330797       0.00361170
C        1.22520734       2.01272283       3.37143731       0.00250954       0.00555768       0.00214941
C        0.00473133       4.26545741       3.44764646       0.00820463      -0.00068739       0.00496645
C       -1.22812414       6.42717009       3.65313410      -0.01025686      -0.00738956       0.00025687
C       -2.45336302       8.54098481       3.80287311       0.01216854      -0.00272269      -0.00035080
C        4.93487404       0.01499139       3.75182792      -0.01141677      -0.00404193       0.00173323
C        3.68053409       2.10433225       3.61081648       0.00814820       0.00132894       0.01088950
B        1.21475883       6.53302062       3.20589271      -0.00230725       0.00585296      -0.00578269
C       -0.00864955       8.60342952       3.59402611       0.00376847       0.00068747       0.00628345
C        7.41279262       0.02490742       3.80841277       0.00259347      -0.00368796      -0.00199951
C        6.17648110       2.14683781       3.82882206      -0.00349509       0.00413404       0.00445592
C        4.99688698       4.31027773       3.87425646      -0.00108237      -0.00293661      -0.00141195
C        3.65781219       6.34733776       3.96342667       0.00001498       0.00335547       0.01360369
C        2.48749473       8.58116171       3.73833706       0.00814454      -0.00499254      -0.01745729
C        9.88254790       0.00145343       3.89655383       0.00407258       0.00457600      -0.00361071
C        8.65665805       2.14636823       3.90748147      -0.00658164      -0.00002708      -0.00772208
C        7.43448007       4.27742137       3.95781472       0.00486319       0.00191228       0.00015803
C        6.18647694       6.41690191       4.02827314      -0.00303218      -0.00714759       0.00652200
C        4.91935182       8.51384958       3.96771638       0.00023139       0.00382273      -0.01212267
C       -0.00386318       1.37609340       3.64499846       0.00040886      -0.00096482       0.00369354
C       -1.21283067       3.53331275       3.73009773      -0.00263040      -0.00352354      -0.00022555
C       -2.44360966       5.70157250       3.83508822      -0.00885674      -0.00558198       0.00840518
C       -3.68612301       7.82529373       3.90757232       0.00676546       0.00732692      -0.00738434
C       -4.93202808       9.93919648       3.85317634      -0.00068400       0.00172795       0.00042366
C        2.46468869       1.37272071       3.57673918       0.00417208       0.00457625       0.00648321
S        1.17116654       3.46358356       2.39390970      -0.00696333      -0.00522502      -0.00559634
C       -0.00606286       5.68021881       3.41911749      -0.00380601      -0.00235848      -0.00382570
C       -1.21847249       7.84824881       3.67117825       0.00907171      -0.00723076      -0.00160607
C       -2.45689777       9.96088633       3.78046431      -0.00784769      -0.00515251      -0.00115233
C        4.93541497       1.43874191       3.73712086      -0.00062697      -0.00432936       0.00780664
B        3.66183970       3.60497430       3.66534308       0.01147321       0.00022496       0.00956846
C        1.25205572       7.97282689       3.46197433       0.00108275       0.00357843      -0.00485135
C        0.00050515      10.01015282       3.72867481      -0.00568542       0.00187623       0.00648680
C        7.41343861       1.44185856       3.86719309      -0.00442070      -0.00026844      -0.00703822
C        6.20125809       3.56323977       3.89189015       0.00225169       0.00610021       0.00199032
C        4.94446379       5.70647675       3.99195693      -0.00370485      -0.00178674      -0.00055921
C        3.66742653       7.79082497       3.89793845       0.00290481       0.00193862       0.00165488
C        2.48208642      10.00015368       3.84140825       0.00828371      -0.00611856      -0.00870447
C        9.88933464       1.42771734       3.87212064      -0.00623358       0.00288595      -0.00100340
C        8.66638253       3.56759235       3.93418482      -0.00168801      -0.00280430      -0.01295421
C        7.42314555       5.69927765       3.99175633       0.00395002       0.00042392       0.00125391
C        6.17064633       7.82666034       4.00394446      -0.00449583      -0.00594198       0.00416863
C        4.93001384       9.93898741       3.91696411       0.00341582       0.00378190      -0.00955011
Os       2.16974051       4.97638117       3.85949166      -0.00232435       0.01613420       0.00374307
