49
Lattice="12.336457 0.0 0.0 -6.168228499999997 10.683685154694365 0.0 0.0 0.0 15.0" Properties=species:S:1:pos:R:3:forces:R:3 energy=-429.6817151848802 free_energy=-429.6817151848802 stress="-0.0016228993587136182 0.0002620776923415973 1.7781951313666017e-05 0.0002620776923415973 -0.00803555293582388 2.877595435430568e-06 1.7781951313666017e-05 2.877595435430568e-06 3.2399398647870176e-06" pbc="T T T"
C       -0.00880079       0.01595870       4.00069343      -0.00807382      -0.00452856       0.00219708
C       -1.24421498       2.16297092       4.13187305      -0.00605320       0.00084470       0.00518931
C       -2.49372877       4.29192461       3.89386936      -0.00277957       0.00720449       0.01071462
C       -3.72534766       6.41871126       3.72383573       0.00436722       0.00209609       0.00517268
C       -4.95788112       8.55168083       3.79998062      -0.00691178      -0.00135556       0.00121424
C        2.44673104      -0.01910350       3.69710626       0.00315261       0.00015164       0.00097821
C        1.26837942       2.08351644       4.08770548       0.00449289       0.00651485      -0.00771386
C       -0.05846746       4.34267843       4.04999275      -0.01346069       0.00122249      -0.00890305
C       -1.25939216       6.41607325       3.55340581      -0.00811338       0.00390573       0.01244890
C       -2.47933024       8.53760881       3.56967786       0.00186971       0.00834217       0.01137168
C        4.91022347       0.01153341       3.57575782       0.00060257       0.00738706       0.00633178
C        3.64086638       2.09103263       3.21741000       0.00847294       0.00489156      -0.00668110
S        1.40462595       6.29521616       2.89160894      -0.00051986      -0.00114252      -0.00071879
C       -0.00849092       8.56000863       3.51545076      -0.00451763      -0.00643262      -0.00189534
C        7.36847740       0.03453070       3.78180504       0.00238528      -0.01079367       0.00225319
C        6.13219644       2.12997735       3.71529348      -0.00017476       0.00084183       0.00295419
C        4.98020926       4.25965513       3.92631281      -0.00465438      -0.00385730      -0.01116634
B        3.65344131       6.47837825       3.97180579      -0.00133064       0.00120589      -0.00344067
C        2.43239093       8.62799873       3.81343474       0.00136259      -0.00555067       0.00657569
C        9.84996444       0.04331311       4.02050250       0.00440038       0.00300240      -0.01293156
C        8.60758957       2.15987181       3.94411391      -0.00475701       0.00563118       0.00466895
C        7.38387046       4.28535873       3.85169578       0.01528239      -0.00240733      -0.00791314
C        6.15181817       6.43316672       3.80442396       0.00453435      -0.00926677      -0.00182729
C        4.91610687       8.59063208       3.98601831      -0.00388427      -0.00957416      -0.00279520
C       -0.00276702       1.43897236       4.10890522      -0.00211122       0.00163198      -0.01094518
C       -1.26618232       3.58451312       4.05979372      -0.01500650       0.00313342       0.01175749
C       -2.49514524       5.70680224       3.72146591      -0.00233854      -0.00038406      -0.00322886
C       -3.72427418       7.83696769       3.67869743       0.00131802       0.00591056       0.00509523
C       -4.95688036       9.97018147       3.84678542      -0.00567619      -0.00031837      -0.00052559
C        2.44179474       1.40087080       3.70125490       0.01425947      -0.00347364       0.00437544
P        1.44825315       3.71911309       4.77835408       0.00324294      -0.00176362       0.00668636
C       -0.06552066       5.65028472       3.56199864      -0.00094943       0.01500593       0.00731059
C       -1.24180261       7.83305667       3.48988621      -0.00687529       0.00026931       0.00954639
C       -2.48792005       9.96183200       3.57836463       0.00480870       0.00734737      -0.00000878
C        4.90629741       1.43355827       3.53297839      -0.00076797       0.00376679      -0.00064536
S        3.52602577       3.06194484       1.76055458       0.01176986      -0.00201875      -0.00019320
C        1.25263599       7.92126914       3.48488091      -0.00207906      -0.00874330      -0.00492908
C       -0.01867108       9.99186403       3.63174849      -0.00426918      -0.00568666       0.00091493
C        7.37266200       1.44799606       3.82317579      -0.00286416      -0.00555156       0.00137746
C        6.15689215       3.54198272       3.85402665       0.00603159       0.00570412      -0.00255071
C        4.91192548       5.65692725       3.79680267      -0.00464065       0.00575699      -0.01208374
C        3.65337738       7.93716505       3.98274856       0.00045004      -0.00035521      -0.00908702
C        2.43716713      10.03801721       3.89682048       0.00829379      -0.00664314       0.00047789
C        9.85177779       1.46104670       4.04992320      -0.00483990       0.00612603      -0.00684067
C        8.61133463       3.57919551       3.90028457       0.00921564       0.00355204       0.00416888
C        7.37510655       5.70919103       3.79742367       0.01075948      -0.00670246       0.00105841
C        6.13860285       7.85184498       3.87625330      -0.00426966      -0.01229819       0.00865489
C        4.92067483      10.01041073       4.02262279      -0.00462421      -0.00853625      -0.00503484
Os       3.22079198       4.63084826       3.49519517       0.00547045       0.00593776      -0.01143510
