49
Lattice="12.336457 0.0 0.0 -6.168228499999997 10.683685154694365 0.0 0.0 0.0 15.0" Properties=species:S:1:pos:R:3:forces:R:3 energy=-431.2549604715089 free_energy=-431.2549604715089 stress="0.0038472985058875834 -0.0003771543036593065 1.995360218902261e-06 -0.0003771543036593065 -0.006092566945100981 -7.706931739389531e-06 1.995360218902261e-06 -7.706931739389531e-06 1.1624073622876358e-06" pbc="T T T"
C        0.01202656      -0.05158887       3.90717183       0.00243124      -0.01279868      -0.00546800
C       -1.20078375       2.11356498       3.95779692      -0.00523461       0.00473178       0.00538326
C       -2.42321377       4.25280663       3.98798647      -0.00280661       0.01252187      -0.00108536
C       -3.66970613       6.37606477       3.92702904       0.00749174       0.00872712      -0.00762221
C       -4.92385738       8.49367806       3.82290944       0.00306085      -0.00804826      -0.00522318
C        2.48832726      -0.08669341       3.96677056      -0.00227556       0.00412007       0.00212612
C        1.27034528       2.00998038       4.01581889      -0.01104058       0.00590140       0.01279930
C        0.09616601       4.30632489       3.93367338       0.00310443       0.00443208      -0.00142913
C       -1.19304401       6.41477139       4.01026477      -0.00084250       0.00034638      -0.01146512
C       -2.43491543       8.50806757       3.91322123      -0.00057708      -0.01100910      -0.00187666
C        4.94840125      -0.01776443       3.91351755      -0.00318964      -0.00559383      -0.00852197
C        3.67765685       2.09630842       3.92549514       0.00593177      -0.00049345       0.01080890
S        1.02684335       6.78610687       1.79470367       0.00052726      -0.00290337      -0.00461684
C        0.02223518       8.54696622       3.64336086      -0.00615904       0.00278000      -0.01326631
C        7.41338877       0.01393496       3.79496276       0.00381713      -0.00467544       0.00415127
C        6.16686542       2.13729425       3.93420798       0.00002382       0.00826532       0.00191519
C        4.88934727       4.28207220       3.76687454      -0.00334553       0.00472052       0.00501785
S        3.75884735       6.35356097       2.51607711      -0.00088683      -0.00518556       0.00541589
C        2.48091086       8.60024802       3.32527126      -0.00112128      -0.00429894      -0.00514391
C        9.88774427      -0.00284993       3.79912209      -0.00418656       0.00554203      -0.00154450
C        8.65425666       2.13380938       3.94122212      -0.00766318      -0.00858000      -0.00348350
C        7.40696676       4.25417942       3.92567688       0.01229845      -0.00036114       0.01110803
C        6.20529628       6.38771600       3.63904586       0.01028439      -0.00424660       0.00497627
C        4.95111236       8.53487583       3.54917680       0.00185130       0.01109195       0.00301211
C        0.01457511       1.36441307       3.97900632      -0.00718106      -0.01018584      -0.00175942
C       -1.17982772       3.53800011       3.96493709      -0.00341498       0.01086875      -0.00148860
C       -2.43329704       5.67340139       4.00343267       0.00137255       0.01291561      -0.01397589
C       -3.67405281       7.79297382       3.89686719       0.00113014      -0.00014962       0.00005025
C       -4.92303504       9.91110710       3.90748213       0.00386602      -0.01008447      -0.00297064
C        2.49469602       1.32017019       3.98332997      -0.00483134       0.00920527       0.00200314
B        1.43294038       3.48071084       3.95724269       0.01311707       0.00870141       0.00888268
C       -0.00144634       5.70210291       4.06068593      -0.01449785      -0.00340834      -0.01055215
C       -1.18926639       7.82822534       3.85396693       0.00077397      -0.00507698      -0.00558243
C       -2.43579180       9.92366650       3.93317374      -0.00563060      -0.00905792      -0.01154324
C        4.93108398       1.41911590       3.92952475       0.00487283      -0.00151868       0.00704785
B        3.46587077       3.63588618       3.81949663       0.00249130      -0.01033687       0.01127563
C        1.22013875       7.91135166       3.12113036      -0.00345675      -0.00305061       0.00078119
C        0.01661899       9.96883446       3.79442147       0.00163172      -0.00031287       0.00520188
C        7.40934185       1.43192520       3.91013477      -0.00677842      -0.00465094      -0.00311033
C        6.14735109       3.55573770       3.91149679       0.00221255       0.01035001       0.00451854
C        5.01990938       5.63964618       3.45002228       0.00195908       0.00294087       0.00299460
C        3.71169167       7.93006233       3.22342462       0.00403217       0.00682096       0.00749993
C        2.47871901       9.99351647       3.67001309       0.00257286      -0.00438928       0.00354532
C        9.89207648       1.41729861       3.91722361      -0.00574453       0.00191908       0.00165176
C        8.65568834       3.55111674       3.96927213       0.00420018      -0.00744065       0.00919901
C        7.42818959       5.67007993       3.85369967       0.01782709      -0.00072603       0.00271269
C        6.18079117       7.80275836       3.63390353       0.00385963      -0.00180601      -0.00821291
C        4.94539564       9.94966629       3.76786634      -0.00473705       0.00761302      -0.00395125
Os       1.75781500       5.32334726       3.53160771      -0.01113993      -0.00412603      -0.00018512
