49
Lattice="12.336457 0.0 0.0 -6.168228499999997 10.683685154694365 0.0 0.0 0.0 15.0" Properties=species:S:1:pos:R:3:forces:R:3 energy=-436.9155823796078 free_energy=-436.9155823796078 stress="-0.005301250610365929 -0.0018173581298408042 7.679241733767506e-06 -0.0018173581298408042 -0.00778658164961843 -2.601304307094269e-06 7.679241733767506e-06 -2.601304307094269e-06 -3.0069390379601394e-06" pbc="T T T"
C       -0.00556521       0.00634305       3.80892686       0.00278027       0.00203755       0.00013553
C       -1.25681640       2.13092533       3.87350939       0.00152821      -0.00172934      -0.00354910
C       -2.51732686       4.27066164       3.96862416       0.00100014       0.00291633       0.00365060
C       -3.71973973       6.41055902       3.93575602      -0.00615968       0.00063088      -0.00435444
C       -4.93465322       8.55472637       3.84862951      -0.00131058      -0.00550606      -0.00042811
C        2.46830270      -0.02784055       3.74030859       0.00052316       0.00090952       0.00397555
C        1.24022546       2.10134100       3.68468174      -0.00003218       0.00402227      -0.00233097
C       -0.09025856       4.28339753       3.95318546       0.00463083      -0.00325811       0.00994167
C       -1.26630592       6.41756181       4.02803230       0.00285931       0.00467923      -0.00466870
C       -2.47165224       8.53762962       3.91512446       0.00291357       0.00788901      -0.00048805
C        4.93040578      -0.01984483       3.74227471       0.00403522       0.00211782       0.00233189
C        3.69262922       2.03876268       3.29583372       0.00422856      -0.00596804       0.00020617
B        1.32235883       6.32420200       3.94005958      -0.00541544       0.00736642       0.00085324
C        0.00236034       8.53375461       3.91381237       0.00497666      -0.00218517       0.00043305
C        7.38593923       0.00698287       3.80917138      -0.01484240      -0.00741617       0.00043419
C        6.14262744       2.14027035       3.61884830       0.00403995       0.00259976      -0.00194451
C        4.93708998       4.32537466       3.34506053       0.01183786       0.01123208       0.01021461
C        3.77286492       6.50152281       3.47184122      -0.00238350      -0.00706089       0.00132390
C        2.46327375       8.57070170       3.79567681       0.00342175      -0.00213863       0.00236722
C        9.85655309       0.01312785       3.82507112      -0.01080376      -0.00643525      -0.00704903
C        8.60637079       2.14187847       3.84797236      -0.00212478      -0.00016156       0.00569747
C        7.36294272       4.27585600       3.81001664      -0.00368262       0.00154077      -0.00942298
C        6.18938236       6.44235186       3.68478474       0.00226284      -0.00104026      -0.00101698
C        4.94471939       8.58010035       3.74490421       0.00016863      -0.00307511      -0.00022375
C       -0.01362495       1.42632772       3.80004625       0.00357070       0.00444110      -0.00137032
C       -1.29013248       3.54456335       3.94755593       0.00353417      -0.00258702       0.00584171
C       -2.50201483       5.69601104       4.00096338      -0.00249817       0.00601991      -0.00540023
C       -3.70821577       7.83375904       3.91245269       0.00039857       0.00185233       0.00017419
C       -4.94023939       9.97071158       3.81241172      -0.00000281      -0.00328992       0.00815978
C        2.46481597       1.38887088       3.56498267      -0.00016355       0.00134536      -0.00088041
B        1.25479509       3.59028487       3.79010099      -0.00445794       0.00079416       0.00387358
C       -0.06413417       5.67830968       4.01157363       0.00138467      -0.00209036       0.00714744
C       -1.23928069       7.83305262       3.96744506       0.00394628       0.00551083      -0.00298402
C       -2.46931785       9.95330827       3.80064354       0.00408383       0.00642156      -0.00352757
C        4.92931917       1.39762176       3.54146380       0.00712439       0.00013597       0.00018412
S        3.77073568       3.46754983       2.25317646       0.00272450      -0.00194006      -0.00607328
C        1.25667328       7.84155393       3.89357650       0.00418856       0.00319176      -0.00545535
C       -0.00405065       9.96072762       3.83113692      -0.00588885      -0.00712572       0.00423409
C        7.37304290       1.43404485       3.76988184      -0.00391025      -0.00396215       0.00256522
C        6.14092820       3.55662606       3.62462939       0.00139195       0.00356665      -0.00959011
C        4.95509743       5.74278530       3.44694523       0.00582630       0.00266419       0.00589574
C        3.70171606       7.88204771       3.67198187       0.00158503      -0.00630954      -0.00296302
C        2.45642874       9.99277394       3.81881417      -0.01430200      -0.00456339       0.00025071
C        9.84612847       1.42961009       3.86088817      -0.00172314      -0.00521776       0.00070590
C        8.59270094       3.56250489       3.89293187      -0.00231460       0.00370210       0.00231013
C        7.38862580       5.70343762       3.82384168      -0.00331934      -0.00111548       0.00192147
C        6.17032027       7.85798609       3.76763915      -0.00030667      -0.00480550      -0.00453945
C        4.93006805       9.99122890       3.80808522      -0.00098602      -0.00063509      -0.00523013
Os       2.82128017       4.88250526       3.73944526      -0.00433764       0.00202901      -0.00133864
