49
Lattice="12.336457 0.0 0.0 -6.168228499999997 10.683685154694365 0.0 0.0 0.0 15.0" Properties=species:S:1:pos:R:3:forces:R:3 energy=-437.535638715805 free_energy=-437.535638715805 stress="-0.005016236714077091 -0.004062821139893025 1.552198722670264e-06 -0.004062821139893025 0.000359479440275186 -3.036010143958469e-06 1.552198722670264e-06 -3.036010143958469e-06 -8.07664726438014e-08" pbc="T T T"
C       -0.00252147      -0.00059500       3.74426439      -0.00228032       0.00585491      -0.00308228
C       -1.26937055       2.10206351       3.64882123      -0.00161117      -0.00647468      -0.00163440
C       -2.48239988       4.26028606       3.53983011       0.00228646       0.00442779       0.00849117
C       -3.68564676       6.41648888       3.56667762       0.00163235       0.00397308       0.00094119
C       -4.91395904       8.56554149       3.66816983      -0.00299163      -0.00138890       0.01069162
C        2.45823361       0.02282501       3.73315342      -0.00583840      -0.00473887      -0.00135378
C        1.18497844       2.14254119       3.80945549      -0.00112802       0.00251373       0.01345535
C       -0.07524422       4.21451237       3.63644863      -0.00410935       0.00175687      -0.00675656
C       -1.23636306       6.39345420       3.57496862       0.00222176      -0.00662531       0.00007421
C       -2.45443399       8.55204858       3.64427869       0.00671677       0.00287470       0.00195878
C        4.93073576       0.00328114       3.73817977       0.00753874       0.01223059       0.00014301
C        3.67122870       2.14423755       3.85666359      -0.00379473       0.00281515       0.00373755
B        1.26183605       6.32500876       3.93434046      -0.00505349       0.01486684       0.01173362
C        0.00722214       8.53492246       3.73634710      -0.00235372      -0.01274236       0.00190861
C        7.39944164      -0.01556735       3.75379801      -0.00471539      -0.00048980       0.00735742
C        6.15561727       2.14184434       3.74094869       0.00458375       0.00242186       0.00180599
C        4.99277448       4.34767406       3.84326479       0.00194930       0.00339563      -0.00149425
N        3.82121318       6.40715844       4.03003388      -0.00561486      -0.00714390       0.00456381
C        2.48610532       8.51101176       3.86587590       0.00062177       0.00883073      -0.00431809
C        9.85854235      -0.02482542       3.76054998       0.00205805      -0.01341230      -0.00392227
C        8.61622529       2.12345560       3.65306730       0.00576530       0.00699388       0.00136089
C        7.40910977       4.28043550       3.62231054      -0.01398125      -0.00308738       0.00341637
C        6.21631353       6.45631898       3.67870686       0.00752833      -0.00720598      -0.00684712
C        4.95021632       8.53384404       3.80209911       0.00300814      -0.00924328      -0.00246857
C       -0.02294542       1.42428656       3.73240438       0.00470768       0.00497009       0.00593830
C       -1.27323998       3.51060348       3.55425138       0.00379071      -0.00141796      -0.01007892
C       -2.46527842       5.68600098       3.53629638       0.00110414       0.00405657       0.00772127
C       -3.68539593       7.84392451       3.61254270       0.00279833       0.00564694       0.00116211
C       -4.92915060       9.99060867       3.71726581      -0.01008963      -0.00170285      -0.00324549
C        2.42931143       1.46340238       3.80662640      -0.00143422      -0.00252998      -0.00024811
O        1.13653951       3.55618945       3.87200746      -0.01508109      -0.00337730      -0.00208718
C       -0.03410343       5.60925920       3.64328805       0.00645201       0.00467523       0.00042699
C       -1.22236449       7.82226462       3.65159817      -0.00008284      -0.01383669      -0.00343089
C       -2.47162534       9.98442277       3.70645025       0.00665582       0.00841669      -0.00186115
C        4.91801482       1.43531625       3.78189662       0.00358073       0.01470529      -0.00089182
B        3.69559348       3.64332079       4.04564347       0.00357291       0.00283133      -0.00572291
C        1.25710007       7.83073848       3.82795574       0.00242540       0.00892917       0.01744993
C       -0.00262829       9.96533216       3.74360358      -0.00129944      -0.00772683      -0.01591812
C        7.38559474       1.41532065       3.70994375       0.00610546       0.00339727       0.00770074
C        6.18117228       3.57101590       3.71574200      -0.00908134      -0.00609180      -0.00340801
C        4.99700106       5.76150718       3.83726642       0.00331102      -0.00136214      -0.00355973
C        3.73057816       7.78527209       3.91185403      -0.00479266      -0.00322312      -0.00901886
C        2.46844601       9.94796207       3.79554656      -0.00387313       0.00211558      -0.00531725
C        9.84788658       1.40098697       3.67992295      -0.00002213      -0.01210202      -0.00568269
C        8.62456264       3.55226183       3.58975611      -0.00514958       0.01132819      -0.00180288
C        7.42180394       5.71047497       3.60734363       0.00323719      -0.00630028      -0.00503362
C        6.19374207       7.85929260       3.71337786       0.00361154      -0.00854398       0.00169032
C        4.93233631       9.95593693       3.77145987       0.00456461      -0.00687623      -0.00401620
Os       2.46458724       5.01488148       4.80842197       0.00255010       0.00361583      -0.00052810
