49
Lattice="12.336457 0.0 0.0 -6.168228499999997 10.683685154694365 0.0 0.0 0.0 15.0" Properties=species:S:1:pos:R:3:forces:R:3 energy=-431.60247330426625 free_energy=-431.60247330426625 stress="8.498012367600546e-05 -0.0008361409782951659 -2.0548077187696095e-05 -0.0008361409782951659 -0.008264712878456293 2.4463628547805588e-06 -2.0548077187696095e-05 2.4463628547805588e-06 -1.2654019658566707e-06" pbc="T T T"
C        0.01936691       0.01472486       3.68432233      -0.00182544      -0.00511067      -0.00923177
C       -1.19948112       2.13724347       3.77772863       0.01129536       0.00502419       0.00611700
C       -2.44478688       4.28862419       3.89864331      -0.01165774       0.00780917      -0.00727808
C       -3.67854366       6.42004107       3.80045372      -0.00738931      -0.00518348      -0.00526075
C       -4.92691876       8.54004850       3.69025557      -0.00507454       0.00847907       0.00726698
C        2.47924072      -0.02068521       3.74189337       0.00896952       0.00525882      -0.00072832
C        1.26625511       2.08281152       3.21150572       0.00063015      -0.00293678      -0.00040321
C       -0.02215960       4.26411803       3.94935509       0.01040317      -0.00626082       0.00508471
C       -1.20831244       6.43083576       3.85858739      -0.00480179       0.00046033       0.00683521
C       -2.44496188       8.55046235       3.88078100      -0.00646420      -0.00086345       0.00478166
C        4.94442901       0.01453501       3.98717442       0.00337407       0.00398549      -0.00207604
C        3.68949739       2.09891414       3.77098809      -0.00354790      -0.00150274      -0.00723163
B        1.31393307       6.46582552       3.99574070       0.00201796      -0.00311353       0.00515091
C        0.01939898       8.58576392       4.05902678       0.00821924       0.00053747      -0.00088032
C        7.41530488       0.04830451       4.07121812      -0.00082694      -0.00021297      -0.00338206
C        6.17358736       2.16396618       3.98512455      -0.00155954       0.00136418       0.00344321
C        4.95911864       4.30146622       3.72748642       0.00624409      -0.00164267       0.00721163
S        3.50258965       6.35081812       2.90962263      -0.00485029       0.01227542      -0.00134328
C        2.49759097       8.63342327       3.93027908       0.01202140      -0.00422451      -0.00060246
C        9.89918258       0.04193226       3.89345737      -0.00618880      -0.00617134       0.00275433
C        8.65891033       2.16791906       3.97596171       0.00667976      -0.00206251      -0.01423517
C        7.42145176       4.29464967       3.87067621       0.00065819      -0.00426161       0.00001990
C        6.18373027       6.42804350       3.59519713       0.00250180      -0.00051046       0.00504783
C        4.93984497       8.56832292       3.63562604      -0.00029988      -0.00046112       0.00577073
C        0.01804447       1.43281556       3.59447490       0.00805666      -0.00447845      -0.00880398
C       -1.21140336       3.54922345       3.89378822      -0.00717375       0.00794788       0.00429427
C       -2.43719268       5.71053150       3.85589514      -0.00726462       0.00362265      -0.00220316
C       -3.68064643       7.83789428       3.77828150      -0.01094669      -0.00191604       0.00590176
C       -4.92246330       9.96186477       3.68865940       0.00583225       0.00920828      -0.00478152
C        2.48646577       1.39329504       3.60793440      -0.00273522      -0.00230838      -0.00396095
S        1.29662029       3.07262849       1.76138318      -0.01721519      -0.00304978      -0.00178731
C        0.04333381       5.65782683       3.82798536      -0.00686595       0.00068633      -0.00096129
C       -1.20225488       7.84865220       3.94496752      -0.00037427       0.00123382       0.00661794
C       -2.44873602       9.96959050       3.88852473       0.00522997       0.00326866      -0.00003425
C        4.94329599       1.44023427       3.94323546      -0.00545195       0.00223936       0.00157741
B        3.63079548       3.59859555       3.73747790      -0.00805021       0.00471809       0.00617069
C        1.28244408       7.93033912       4.06250699       0.01014669       0.00169546      -0.00614799
C        0.01202700      10.00916930       4.06948367       0.00318538       0.00060178      -0.00433464
C        7.41567258       1.46499260       4.03403409       0.00113925       0.00242923       0.00248188
C        6.18613076       3.57797449       3.89034059       0.00704628      -0.00224988      -0.00044479
C        4.99145767       5.67584740       3.47780085       0.00423207      -0.00268065      -0.00387001
C        3.67762047       7.93400576       3.59504597       0.00753885      -0.00631690       0.00221653
C        2.49406432      10.04434303       4.00699435      -0.00442221      -0.00708222       0.00021831
C        9.89556930       1.45599349       3.90160618       0.00904126      -0.00459541      -0.00749140
C        8.65697602       3.58610418       3.92445158      -0.00467456      -0.00072133       0.00177887
C        7.42364318       5.71185595       3.75823766      -0.00022538      -0.00907782      -0.00770036
C        6.17071450       7.84282753       3.59730938      -0.00200045       0.00257786       0.00607067
C        4.94984978       9.99819971       3.75829347      -0.00531098      -0.00488250       0.00871827
Os       1.74709623       4.60163526       3.45490168       0.00273441       0.00845450      -0.00035598
