50
Lattice="12.336457 0.0 0.0 -6.168228499999997 10.683685154694365 0.0 0.0 0.0 15.0" Properties=species:S:1:pos:R:3:forces:R:3 energy=-444.26488409918727 free_energy=-444.26488409918727 stress="-0.0056616974470499685 0.00020429096716882125 -4.858113763887713e-07 0.00020429096716882125 -0.006579093070349982 -6.198724006246249e-06 -4.858113763887713e-07 -6.198724006246249e-06 4.2742187377002525e-06" pbc="T T T"
C        0.00631468      -0.02577405       3.87987675       0.00327943      -0.01287140       0.00535840
C       -1.23091523       2.10605484       3.95445204      -0.00126522      -0.00411856       0.01052737
C       -2.46174440       4.26076220       3.98523710      -0.00167284       0.00406430      -0.00824817
C       -3.67576829       6.39898674       3.93039283       0.00333539       0.00306940       0.00038303
C       -4.93136584       8.52502248       3.83496498      -0.00900587      -0.00197615      -0.01284301
C        2.47591252      -0.02291141       3.96168042       0.00333330      -0.00064042      -0.00183830
C        1.23647104       2.08420489       3.97840504      -0.00149016      -0.00016650      -0.00024580
C       -0.02310519       4.20913749       3.84408521       0.00231249       0.00769500       0.00101307
C       -1.21807154       6.41082742       3.78964407      -0.00270695      -0.00794458      -0.00854455
C       -2.45809867       8.53592576       3.86293698       0.00036796      -0.01079732      -0.00547530
C        4.94427246      -0.01626853       3.90726433       0.00329914      -0.00088688       0.00149459
C        3.71743314       2.11040581       3.99603565       0.00729363      -0.00388886       0.00291424
B        2.46967143       4.27106320       3.93939968      -0.00013971       0.01629561       0.00370769
P        0.98834554       6.41305869       2.02241035       0.00781988       0.00246689      -0.00079365
C       -0.02151414       8.56958102       3.51459713      -0.00425813      -0.00662662      -0.00397903
C        7.40981082       0.00342223       3.75938752       0.00436252       0.00172536      -0.00335959
C        6.18855050       2.11374335       4.00251678       0.00081667       0.01204237      -0.00288957
C        4.98471624       4.24616263       3.85833157      -0.00185275      -0.00171278       0.00723524
S        3.76821913       6.30507038       2.55682158      -0.01100055      -0.01009774      -0.00306525
C        2.49855924       8.63902495       3.18498380       0.00473047      -0.00256524       0.00605512
C        9.88326757      -0.00232391       3.74396643       0.00150758      -0.00591406      -0.00056151
C        8.64967344       2.12195155       3.96681927      -0.00224307       0.00236625       0.01060219
C        7.42870060       4.26036028       3.99408107       0.00150694       0.00438240      -0.01211767
C        6.20249863       6.39388024       3.71284330       0.00141214       0.00132263       0.00016996
C        4.96570712       8.55012301       3.52665096      -0.00536639       0.01229009      -0.00071230
C        0.00020775       1.38824266       3.95203303       0.00092626      -0.01138010       0.00472985
C       -1.24940660       3.52855673       3.94872218       0.00053635       0.00267206      -0.00000813
C       -2.43996003       5.69170019       3.93968617      -0.00037388       0.00113954      -0.00538946
C       -3.68622039       7.82033820       3.88847769      -0.00585872      -0.00033686       0.00051113
C       -4.92789902       9.94941767       3.89714009       0.00244466      -0.00528747       0.00098647
C        2.47922158       1.39716248       3.99439997       0.00264186       0.00122893      -0.00140735
C        1.17750929       3.49628490       3.92384749      -0.00009320       0.01083060      -0.00506037
C        0.02594629       5.65066397       3.65608593      -0.00353976       0.00848954       0.00666582
C       -1.21467531       7.82800065       3.71607778      -0.00206563      -0.01417859      -0.00806886
C       -2.45700019       9.95366582       3.91814176       0.00190109      -0.00582121      -0.00586406
C        4.95282190       1.39993481       3.98843790       0.00727317       0.00268012      -0.00030358
C        3.75952002       3.53406147       3.92651537      -0.00026799      -0.00644195       0.00281539
C        1.22732161       7.92387060       3.08543165      -0.00423542       0.00276593       0.00548352
C        0.00448882       9.96759331       3.74012305       0.00175210      -0.00196502      -0.00416851
C        7.41736382       1.40897687       3.93722977      -0.00244762       0.00645151      -0.00426644
C        6.21025713       3.53690923       3.99251963       0.00026371       0.00928872       0.00727597
C        5.02596632       5.62843394       3.55621630       0.00017426      -0.00224668       0.00647677
C        3.72406210       7.94132846       3.17164892       0.00719856       0.00341325       0.00755236
C        2.47826133      10.01086194       3.56360157       0.00620699      -0.00688964       0.00345983
C        9.87773193       1.40598747       3.91133327      -0.00427704      -0.00474071       0.00628257
C        8.65322138       3.54557566       4.01280468      -0.00112214       0.00350186       0.00983557
C        7.43033163       5.68354128       3.91553826       0.00560168       0.00343219      -0.00862216
C        6.18029111       7.81765026       3.66594858      -0.01049765       0.00398014      -0.00139036
C        4.94649756       9.96187104       3.72661248      -0.00126807       0.00116061       0.00654488
Os       1.92487835       6.24258506       3.97430092      -0.00524943       0.00074005      -0.00885805
