50
Lattice="12.336457 0.0 0.0 -6.168228499999997 10.683685154694365 0.0 0.0 0.0 15.0" Properties=species:S:1:pos:R:3:forces:R:3 energy=-454.20408651900425 free_energy=-454.20408651900425 stress="-0.004727978005286949 5.98056756806745e-06 -2.7505289561446086e-06 5.98056756806745e-06 -0.0021025798647445223 -4.7276028345919264e-08 -2.7505289561446086e-06 -4.7276028345919264e-08 -1.4297072619505082e-06" pbc="T T T"
C       -0.00155686      -0.00080164       3.66177496      -0.00953190       0.01121306      -0.00247589
C       -1.23963027       2.13336259       3.67529563       0.00402719       0.00740237       0.00249660
C       -2.46935632       4.26911202       3.65158044       0.00240453       0.00952774       0.00049401
C       -3.70165056       6.41105628       3.63067276      -0.00179180      -0.01335969      -0.00420178
C       -4.93190075       8.55070602       3.64107655       0.00245295       0.00074894      -0.00327395
C        2.46641227       0.00229057       3.65513592      -0.00057250      -0.00419077       0.00290119
C        1.22503465       2.12990590       3.72363275       0.00654973       0.00051597       0.00444694
C       -0.00304181       4.28633232       3.79844058      -0.00598487      -0.00455669       0.00522415
C       -1.25345199       6.41937664       3.68624859       0.00926734       0.00922129      -0.00648369
C       -2.47158335       8.55100529       3.64296268      -0.00201886      -0.00089066      -0.01194737
C        4.93448511      -0.00034323       3.66262560       0.00537517       0.00801737       0.00031587
C        3.70714865       2.13006558       3.72393077      -0.00016354      -0.00211763       0.00494753
C        2.46693340       4.22053815       4.03070424      -0.00531620      -0.00347123      -0.00218940
N        1.11374729       6.45709332       4.01176730      -0.01526212       0.00163182      -0.00049379
C       -0.01484519       8.54736468       3.71686883       0.00120651      -0.00900745       0.00008355
C        7.40573007      -0.01457739       3.69521568      -0.01163444      -0.00722413      -0.00376932
C        6.17182582       2.13365708       3.67500980       0.00206369       0.00542211       0.00375399
C        4.93673381       4.28615599       3.80113848      -0.00505438       0.00004168      -0.00128097
N        3.81913552       6.45687757       4.01633152       0.01601511       0.00304767      -0.00140750
C        2.46662246       8.50146523       3.84026470      -0.00172222       0.00872191      -0.00205469
C        9.86357514      -0.01464214       3.69378480       0.00969601      -0.00648299       0.00526380
C        8.63409804       2.12913260       3.65128748       0.00655636      -0.01171855       0.00612494
C        7.40242264       4.26969951       3.65132884      -0.00316670       0.00205663       0.00294965
C        6.18606707       6.41938964       3.68711524      -0.00565071       0.00897627      -0.00307174
C        4.94771699       8.54703539       3.71703433      -0.00233840      -0.00829063      -0.00268044
C       -0.00571797       1.42203072       3.68132097       0.00107265       0.01315758      -0.00037571
C       -1.23876691       3.56011153       3.69051820      -0.00537020       0.00425314       0.00418159
C       -2.47325414       5.69523833       3.64816262       0.01069808       0.00837625      -0.00823988
C       -3.70165876       7.83558461       3.63212130      -0.00044634      -0.01296354      -0.00705840
C       -4.93500313       9.97538096       3.64721235      -0.00947946       0.00628391       0.00311597
C        2.46605248       1.42265201       3.70397383       0.00355132      -0.00526016       0.00725413
C        1.21646415       3.55895909       3.84956936      -0.00173859      -0.00366413       0.00295226
C       -0.02783347       5.71245897       3.81783437       0.00114749      -0.00217010      -0.00283775
C       -1.24552047       7.83804005       3.67905017      -0.00037076       0.00512289       0.00145019
C       -2.46838965       9.97575475       3.64868351       0.00584444       0.00235836       0.00042214
C        4.93788977       1.42246942       3.68179474       0.00515046       0.00891679      -0.00205681
C        3.71706467       3.55885270       3.85017903      -0.00624600      -0.00428153       0.00627566
C        1.20387035       7.82851269       3.85640797       0.00203021      -0.00796651      -0.00691836
C       -0.00082521       9.96911951       3.68684208      -0.00657338      -0.01019054      -0.00205869
C        7.40304378       1.41437304       3.66451378      -0.00435111      -0.00728358       0.00360274
C        6.17211219       3.56034999       3.69090393      -0.00248294       0.00476235       0.00696791
C        4.96065364       5.71228244       3.82105901       0.00001388       0.00328977      -0.00405381
C        3.72913725       7.82788145       3.85708982      -0.00326011      -0.00428881      -0.00372446
C        2.46653794       9.94404964       3.73345866      -0.00162484       0.00870360       0.00125328
C        9.86529890       1.41440020       3.66504198       0.01423032      -0.00833373      -0.00310163
C        8.63451014       3.55556396       3.63689302       0.00376615      -0.00157640       0.01885464
C        7.40615173       5.69578529       3.64826029      -0.01105883       0.00026568      -0.00859450
C        6.17835895       7.83788835       3.67905920       0.00127302       0.00556039      -0.00251044
C        4.93375550       9.96881111       3.68572954       0.00225236      -0.00957407      -0.00133560
Os       2.46367558       5.64689715       5.21375108       0.00656625       0.00126795       0.00286385
