49
Lattice="12.336457 0.0 0.0 -6.168228499999997 10.683685154694365 0.0 0.0 0.0 15.0" Properties=species:S:1:pos:R:3:forces:R:3 energy=-437.0697007705389 free_energy=-437.0697007705389 stress="-0.001255054682495507 -0.00024317711024701951 -2.3235555227112407e-06 -0.00024317711024701951 0.005696958612133594 5.882687149770308e-06 -2.3235555227112407e-06 5.882687149770308e-06 2.065700349521096e-06" pbc="T T T"
C        0.02812920       0.04725098       3.69179416       0.00664764       0.00351550       0.00243339
C       -1.21282496       2.13927708       3.82619678      -0.00077101      -0.00131345      -0.00003380
C       -2.48533513       4.28624266       3.93116935       0.00211194      -0.00475317      -0.00456292
C       -3.70571820       6.43592567       3.82921708      -0.00218760       0.00158673      -0.00331062
C       -4.91844254       8.58011073       3.74928807      -0.00100817       0.00232395       0.00588268
C        2.49741895       0.06332117       3.70007232       0.00505800      -0.00241490       0.00190544
C        1.27491454       2.15363589       3.21096868      -0.00639937       0.00559344       0.00120546
C       -0.09257277       4.30813520       3.97727598       0.00187672      -0.00424134      -0.00775272
C       -1.26707413       6.44323751       3.77025424      -0.00073424      -0.00027965      -0.00256768
C       -2.45308152       8.58361514       3.76555962       0.00450086       0.00185411       0.00902264
C        4.95772236       0.02421713       3.79629435      -0.00285828       0.00105937       0.00017050
C        3.75127861       2.17927415       3.77358936      -0.00057724      -0.00622627       0.00433652
C        1.20768261       6.41256312       3.70954775       0.01252044      -0.01060874      -0.00198862
C        0.03725327       8.54598515       3.78344150       0.00087572       0.00232935      -0.00166500
C        7.43247913      -0.00728854       3.84749684      -0.00513684      -0.00373643       0.00470936
C        6.18947679       2.15586525       3.87136647       0.00273816      -0.00408786      -0.00198235
C        4.96241347       4.30214376       3.86756995       0.00084331       0.00971124       0.00097796
O        3.79338942       6.45397072       3.88875358       0.00039445      -0.00111725       0.00132899
C        2.52283473       8.51952577       3.81669119      -0.00133081      -0.00635736       0.00374117
C        9.89468883      -0.00306623       3.82455268      -0.00287057       0.00379267      -0.00005179
C        8.65453239       2.14196560       3.90270608      -0.00203923       0.00357702      -0.00229450
C        7.39778475       4.29439235       3.88606078      -0.00518450      -0.00212354      -0.00199574
C        6.17192856       6.42258195       3.82061897       0.00321147       0.00362963       0.00068469
C        4.96061830       8.55454363       3.78892118       0.00060436       0.00130456       0.00452690
C        0.02759569       1.47029001       3.62525960       0.00001527       0.00337545       0.00030465
C       -1.26125540       3.55789496       3.97788142       0.00146038      -0.00634433       0.00582431
C       -2.48183633       5.71587921       3.85200100      -0.00201903      -0.00322957      -0.00690086
C       -3.68483505       7.86530606       3.77643812       0.00025598       0.00487547       0.00089927
C       -4.90318637      10.02067210       3.69305469       0.00466967       0.00108186       0.00975406
C        2.51985667       1.50344230       3.63200558      -0.00417156      -0.00153873       0.00109889
O        1.30504693       2.92502776       2.12921284       0.00079471       0.00280786      -0.00169435
C       -0.03504818       5.69830784       3.71115242      -0.00317583      -0.00061099      -0.00151204
C       -1.22171406       7.86138976       3.76459911       0.00409952       0.00203572       0.00252406
C       -2.44564000      10.01377391       3.75868289       0.00320750      -0.00076495       0.00281929
C        4.95634884       1.45829318       3.82193581       0.00320836      -0.00334234       0.00085611
O        3.77830125       3.56515293       3.91266072       0.00409496      -0.00100324       0.00213142
C        1.27406119       7.81443371       3.78340430      -0.00009229      -0.00640050      -0.00037180
C        0.02780659       9.97558316       3.81432695      -0.00698217       0.00301853      -0.00283754
C        7.41802572       1.43144670       3.87947285       0.00198802      -0.00305871      -0.00120111
C        6.16716365       3.58719879       3.87723982      -0.00477220      -0.00161804       0.00122606
C        4.96635219       5.71397314       3.84809611       0.00178782       0.00992231       0.00080318
C        3.76253028       7.83060123       3.82488859       0.00150759      -0.00249995       0.00005702
C        2.50205565       9.94878272       3.83695216      -0.00357458      -0.00359129      -0.00102610
C        9.89019952       1.42730523       3.86375909      -0.00336294       0.00473520      -0.00371291
C        8.63222290       3.57058883       3.91563692      -0.00235928       0.00138893      -0.01216113
C        7.40110408       5.71139900       3.84906094      -0.00115287      -0.00174531      -0.00535097
C        6.19252693       7.85332557       3.78167286      -0.00007161       0.00119622      -0.00474843
C        4.95840048       9.99059900       3.77279826       0.00258736       0.00550644      -0.00099517
Os       1.53181349       4.63045618       3.22311956      -0.00822799       0.00278637       0.00149410
