50
Lattice="12.336457 0.0 0.0 -6.168228499999997 10.683685154694365 0.0 0.0 0.0 15.0" Properties=species:S:1:pos:R:3:forces:R:3 energy=-446.7696145321709 free_energy=-446.7696145321709 stress="-0.002058156716240812 -0.00039461792174225207 7.064653352741891e-06 -0.00039461792174225207 -0.005814743491059766 -5.382754213589563e-06 7.064653352741891e-06 -5.382754213589563e-06 3.030447217718267e-06" pbc="T T T"
C        0.00929603      -0.02612179       3.89997881      -0.00747540       0.01000542       0.00022587
C       -1.22465390       2.11347442       3.96912055       0.00329631       0.00441200      -0.00017850
C       -2.45440640       4.25993717       3.96454663       0.00177198       0.00080934       0.00225465
C       -3.67474168       6.39571517       3.89719697       0.00389339      -0.00611199       0.00113864
C       -4.93084291       8.52009264       3.82795004       0.00220553      -0.00036451      -0.00105218
C        2.47761991      -0.03455321       3.96077095      -0.00214149      -0.00556755       0.00906736
C        1.24124851       2.07756818       3.98960548       0.00591551       0.00511394      -0.00350251
C        0.01016885       4.20672885       3.83969539      -0.00894057       0.00330663       0.00018732
C       -1.20739928       6.40188858       3.77129780       0.00182119       0.00344388       0.00337819
C       -2.45420919       8.52900615       3.85330050       0.00431925      -0.00230828      -0.00293123
C        4.94116854      -0.01178253       3.90227357      -0.00466059      -0.00113047      -0.00409872
C        3.70397045       2.11654719       3.98917832       0.00087489      -0.00070778       0.00026600
C        2.45087793       4.20504348       3.92444907       0.00023947      -0.00964072      -0.00476775
P        1.00134041       6.41302686       2.05571408       0.00836751      -0.00694679      -0.00642618
C       -0.01205681       8.56610593       3.54739070      -0.00106409       0.00403437       0.00499999
C        7.40588760       0.01461522       3.77364445      -0.00248890      -0.00025570      -0.00175742
C        6.17390967       2.12825610       3.98552253      -0.00355330      -0.00471862      -0.00271848
C        4.94432468       4.25639496       3.82901509       0.00281098       0.00137386       0.00158293
S        3.75600388       6.34229733       2.52552588      -0.00004470       0.00594809       0.01231245
C        2.49999146       8.64332930       3.23845828       0.00182095      -0.00175658      -0.00378525
C        9.88351994       0.00763159       3.77216616       0.00315435      -0.00299446       0.00319202
C        8.64488786       2.13035367       3.96761000       0.00583641       0.00218228      -0.00349993
C        7.41489683       4.26359921       3.96168210      -0.00261714       0.00087676      -0.00402398
C        6.19476897       6.39317540       3.68747615      -0.00703189       0.00039063       0.00657629
C        4.96480755       8.55721303       3.54759988       0.00511946      -0.00554087      -0.01735702
C        0.00597493       1.39115017       3.96792132       0.00355756       0.01123050       0.00684477
C       -1.22915615       3.53446100       3.94875026      -0.00461906       0.00007372      -0.00494542
C       -2.43320400       5.68853208       3.90802690       0.00683725      -0.00114377       0.01345455
C       -3.68440665       7.81533030       3.86940376       0.00508658      -0.00450836      -0.00565398
C       -4.92649750       9.94340506       3.90361405      -0.00824315       0.00410898      -0.00669941
C        2.47809268       1.38653950       3.99934078       0.00318249      -0.00353668      -0.00172733
C        1.23039769       3.50128648       3.92563383      -0.00396316       0.00590773       0.00240465
C        0.05469600       5.64516828       3.64319472      -0.00767615       0.00082204      -0.00263282
C       -1.20878902       7.82064604       3.71826694       0.00073728       0.00238837      -0.00670991
C       -2.45457282       9.94838809       3.91054016      -0.00016019      -0.00429873       0.00846856
C        4.93935987       1.41216369       3.97460551      -0.00429778      -0.00281027      -0.01203789
C        3.69202753       3.55301275       3.91114676       0.00331568       0.00104678       0.00332317
C        1.24595444       7.90557182       3.16480817      -0.00205410       0.00202699       0.01122710
C        0.00363240       9.97154923       3.75177668      -0.00509539       0.00263190       0.00002547
C        7.40751933       1.42236891       3.93410851       0.00105557       0.00002663       0.00012096
C        6.18121227       3.55021861       3.96541875      -0.00117288      -0.00327616      -0.00018619
C        5.00682480       5.63340111       3.52256968      -0.00498241       0.00274137       0.00362427
C        3.72566859       7.95249901       3.19876352       0.00378503      -0.00639431      -0.00647737
C        2.47750970      10.01942029       3.59732023       0.00129261      -0.00292447       0.00935757
C        9.87884313       1.41664764       3.92860773       0.00730750      -0.00023052      -0.00130892
C        8.64927705       3.55231697       3.99387120       0.00123935       0.00380952       0.00241558
C        7.42481324       5.68363393       3.87900856      -0.00449640       0.00038377       0.00172215
C        6.17828359       7.81671310       3.66287189       0.00256156      -0.00277496      -0.00868963
C        4.94722253       9.96925217       3.75400680      -0.00029964      -0.00600208       0.00685868
Os       1.96721667       6.17148687       3.99591316      -0.00432728       0.00684912      -0.00186120
