49
Lattice="12.336457 0.0 0.0 -6.168228499999997 10.683685154694365 0.0 0.0 0.0 15.0" Properties=species:S:1:pos:R:3:forces:R:3 energy=-435.4440049396181 free_energy=-435.4440049396181 stress="0.0003086803899738003 0.00103982479336522 6.552589612725868e-06 0.00103982479336522 8.711677823772888e-05 -2.0214253019365783e-06 6.552589612725868e-06 -2.0214253019365783e-06 -6.037777854348705e-07" pbc="T T T"
C        0.00971397      -0.01535434       3.78931128      -0.00118571      -0.00143628       0.00449904
C       -1.22200309       2.12052521       3.66206249       0.01030994       0.00793288      -0.00410012
C       -2.46705852       4.26947677       3.83302479      -0.00314421       0.00121156      -0.00362113
C       -3.70113969       6.40768042       3.95341897       0.00072674      -0.01158657      -0.00264059
C       -4.92848093       8.54188531       3.93588533       0.00237233       0.00247840      -0.00628715
C        2.47779949       0.01071335       3.86528346       0.00002718      -0.00405573       0.00606785
C        1.26603112       2.07891520       3.43155406      -0.00174091      -0.00129683       0.00398672
C       -0.08789364       4.28741921       3.28034849      -0.00534269      -0.00100794       0.00256113
C       -1.25441352       6.43196836       3.67819591       0.00658290       0.00426504       0.00623302
C       -2.45794648       8.55227582       3.86442868      -0.00296380       0.00151377       0.00101175
C        4.93667121       0.02129093       3.88231709       0.00539016       0.00874750       0.00655616
C        3.71924328       2.19506672       3.85221545      -0.01256162      -0.00702335      -0.00211180
S        1.24045096       6.46172320       2.43539975       0.01281317       0.00273449       0.00207375
C       -0.00217592       8.57088049       3.64145944       0.00475405      -0.00277527      -0.00523511
C        7.41543771       0.00046522       3.85618391      -0.00980056      -0.00335500       0.00870202
C        6.18424687       2.13255142       3.97140660       0.00244342       0.01168217      -0.00534143
C        4.93983535       4.23978168       3.98726996       0.00435921       0.00213684       0.00374588
C        3.67353817       6.33738234       3.82705764       0.00042952       0.00016435       0.00376899
C        2.47677313       8.54053382       3.67792636      -0.00690977       0.00012434       0.00160246
C        9.88287592      -0.01167485       3.83162472      -0.00360506      -0.00363939      -0.00348405
C        8.65354299       2.13242353       3.90564764       0.00126719       0.00350206       0.00449248
C        7.40752691       4.26474333       4.00387518       0.00061680       0.00570023      -0.00462631
C        6.16582503       6.39796516       3.99094659       0.00517539      -0.00030172      -0.00216135
C        4.92905628       8.51675247       3.86428271      -0.00299154      -0.01496815       0.00394855
C        0.01512835       1.40818338       3.61376020       0.00355732       0.00126457      -0.00188963
C       -1.25650888       3.53777329       3.61677050      -0.00200910       0.00518868      -0.00373604
C       -2.46917951       5.69882936       3.85397119       0.00584506      -0.00108994      -0.00524072
C       -3.69544631       7.83343583       3.93319132      -0.00420619      -0.00953858      -0.00248123
C       -4.92271292       9.96927768       3.86722262      -0.00057452       0.00271862       0.00713133
C        2.48631025       1.45205941       3.73789168      -0.01166664      -0.00836659       0.00806454
S        1.29392574       3.54409865       2.44115623       0.00219512      -0.00356551      -0.00444485
C       -0.06800434       5.68291862       3.35195071      -0.00728400      -0.00334116       0.00262511
C       -1.23248501       7.84771358       3.71201254       0.00373430       0.00589709      -0.00032240
C       -2.46086198       9.98365909       3.88686521       0.00499584       0.00552896      -0.00435239
C        4.94096983       1.44980489       3.92312782      -0.00163729       0.01039803       0.00160536
N        3.75176176       3.57983177       3.91727542       0.00729929      -0.00599346      -0.01172758
C        1.23995911       7.91574438       3.41450330       0.00502287       0.00310773      -0.01103375
C        0.00555929       9.98903402       3.81576748      -0.00179447      -0.00557878       0.00045456
C        7.41984363       1.42231964       3.93248497      -0.00243122      -0.00001118       0.00293550
C        6.18533562       3.54031302       4.01216695       0.00721822       0.00963954      -0.00321829
C        4.92000276       5.66741910       3.96556333       0.00632043       0.00295623       0.00228844
C        3.68908809       7.78004842       3.76991341      -0.01043272      -0.00574703       0.00465957
C        2.47881461       9.97092873       3.81631959      -0.01024993       0.00027701       0.00268190
C        9.89015900       1.41663972       3.81717868       0.00907723       0.00459555      -0.00324627
C        8.64492117       3.55584855       3.93822966      -0.00334422       0.00463836       0.00096296
C        7.40027691       5.69130053       4.00236263      -0.00063865      -0.00074554      -0.00334326
C        6.17040978       7.82181125       3.94122390       0.00535627      -0.00139750      -0.00118419
C        4.93961238       9.94821751       3.82996096      -0.00272437      -0.01411591      -0.00179229
Os       2.25305739       4.98594797       3.82272277      -0.00865075       0.00253338       0.00496289
