49
Lattice="12.336457 0.0 0.0 -6.168228499999997 10.683685154694365 0.0 0.0 0.0 15.0" Properties=species:S:1:pos:R:3:forces:R:3 energy=-446.10121738840303 free_energy=-446.10121738840303 stress="-0.010400586051126702 4.111860475660505e-06 1.5972236703016776e-06 4.111860475660505e-06 -0.0011551523218244623 1.665745447772279e-07 1.5972236703016776e-06 1.665745447772279e-07 1.1621744070116296e-06" pbc="T T T"
C        0.00258146       0.00761301       3.74588157      -0.00654777      -0.00089483       0.00158827
C       -1.25640621       2.11493047       3.73644645       0.00943610      -0.00263787      -0.00546397
C       -2.50150664       4.26743281       3.72145109       0.00974820      -0.00257805       0.00823615
C       -3.71396799       6.42106613       3.73334027       0.00648746      -0.01095472      -0.01121151
C       -4.92755435       8.57016223       3.74647605      -0.00176947       0.00021039      -0.00082091
C        2.47241722       0.03855575       3.75133673       0.00258760       0.00089302      -0.00297696
C        1.23109253       2.15935058       3.76572403      -0.00451799      -0.00223044       0.00267501
C       -0.08301358       4.27817544       3.74939223      -0.01294921       0.00260665       0.01006453
C       -1.28978472       6.42756119       3.72373808      -0.00153191       0.00758363       0.00713190
C       -2.47844123       8.57066755       3.73413675       0.00914051      -0.00018959      -0.00149815
C        4.93748796       0.00613671       3.74143303      -0.00497529       0.00956856       0.01205766
C        3.73134766       2.17888402       3.77080200      -0.00015519      -0.00652001      -0.00769588
C        1.17422247       6.38139905       3.79631404      -0.01285337      -0.00600039      -0.00836459
C       -0.00582689       8.54006666       3.74569609       0.00616561       0.00482983      -0.00464420
C        7.41035330      -0.03225759       3.74711613      -0.00221149      -0.00485761      -0.00378741
C        6.18344045       2.11772915       3.74981353      -0.00277083       0.00281211       0.00543196
C        4.97891009       4.26397672       3.78052867       0.00662393      -0.00014295      -0.01024762
N        3.82641769       6.41115455       3.79036918       0.00288008       0.00678591       0.00006203
C        2.47548669       8.49246922       3.76594810      -0.00068460      -0.00086323      -0.00346532
C        9.86583497      -0.03022618       3.74520756       0.00427100      -0.00337829       0.00307288
C        8.63221926       2.11531123       3.73902373       0.00379466       0.00929318      -0.00800052
C        7.40395375       4.26760466       3.74358429      -0.00535176       0.00476293      -0.00537384
C        6.19392711       6.42760999       3.75740241       0.00127391      -0.00070041       0.00187466
C        4.95174476       8.53969118       3.75442068      -0.00394389      -0.00754890       0.00677643
C       -0.00545137       1.42634036       3.74677164       0.00141592       0.00094841       0.00768950
C       -1.28981609       3.53896529       3.72620433       0.00205597      -0.00679605       0.00298441
C       -2.50160773       5.69941060       3.72144497       0.00999820      -0.00777602       0.00228988
C       -3.70438131       7.85084162       3.73791880       0.00426453      -0.00123224      -0.00605351
C       -4.92598533       9.99849088       3.74835814      -0.00508972       0.00886273      -0.00197054
C        2.47545903       1.47405447       3.76471934      -0.00066842      -0.00065927      -0.00027725
C        1.17456250       3.58555805       3.79139139      -0.01335514       0.00254144      -0.00136619
C       -0.08302183       5.68836228       3.75023508      -0.01458525       0.00096980       0.00359394
C       -1.25664335       7.85153405       3.73082455       0.00947672       0.00469406       0.01289137
C       -2.47062341       9.99684801       3.74238918       0.00340281       0.00025723      -0.00335825
C        4.95174966       1.42696758       3.75214269      -0.00346243       0.00265281       0.00491774
N        3.82590196       3.55513475       3.79284157       0.01505063      -0.00394036      -0.00067488
C        1.23079462       7.80753927       3.76923860      -0.00011424      -0.00359478      -0.00670178
C        0.00245336       9.95873441       3.74122689      -0.00694057       0.00473601       0.01472586
C        7.40889245       1.39607950       3.74540782       0.00033908       0.00278115      -0.00862795
C        6.19389211       3.53874617       3.75564642       0.00162494       0.00080163       0.00347229
C        4.97919196       5.70212098       3.77937830       0.00080100       0.00196583       0.00314935
C        3.73148662       7.78742807       3.76880845      -0.00316259       0.00976131       0.01000769
C        2.47247077       9.92797165       3.75255320       0.00090303      -0.00401144      -0.00468570
C        9.85824481       1.39584302       3.73839712       0.00728799      -0.00115252      -0.00339835
C        8.62285961       3.54523547       3.73221544      -0.00103877       0.01204043      -0.00189489
C        7.40370911       5.69850411       3.74426843       0.00186241      -0.00185021      -0.00180583
C        6.18337040       7.84880465       3.75434108      -0.00142700      -0.00774689      -0.01152944
C        4.93737236       9.96052960       3.74592172       0.00119165      -0.01297721       0.00879072
Os       2.44757663       4.98343974       3.88649171      -0.01197703      -0.00112478      -0.00758877
