49
Lattice="12.336457 0.0 0.0 -6.168228499999997 10.683685154694365 0.0 0.0 0.0 15.0" Properties=species:S:1:pos:R:3:forces:R:3 energy=-445.897374147036 free_energy=-445.897374147036 stress="-0.005657458636003554 -0.00242811463177606 -2.5829746266839217e-06 -0.00242811463177606 0.004818174196616936 8.790301709345129e-07 -2.5829746266839217e-06 8.790301709345129e-07 -8.77028811458912e-07" pbc="T T T"
C       -0.00073422       0.01148660       3.75852607      -0.00783800       0.00330194       0.00080855
C       -1.26033103       2.11087340       3.71588348       0.01105846       0.00988450      -0.00407954
C       -2.48769985       4.26107822       3.64222988       0.01034124      -0.00237650      -0.00788735
C       -3.69135355       6.42129904       3.63950803      -0.00238114      -0.00863556      -0.00254264
C       -4.91712355       8.57605746       3.70175964      -0.00628990      -0.00402057       0.00872549
C        2.46570335       0.05136457       3.75127878      -0.00030149       0.00402679      -0.00067199
C        1.19985116       2.19417053       3.84366408      -0.00647016      -0.01192057      -0.00517259
C       -0.06116312       4.23702702       3.76996783      -0.00518530      -0.00059932      -0.00372748
C       -1.25266929       6.40982328       3.67001270       0.00104386      -0.00350097      -0.00947028
C       -2.46584196       8.57062335       3.68045157       0.00394796       0.00319713       0.00269636
C        4.93310505       0.01389719       3.71601050       0.00851793      -0.00439942       0.00691614
C        3.68915318       2.20144176       3.79358221       0.00592432       0.00024535       0.00613775
C        1.20711013       6.33377027       3.86122964      -0.00588552       0.00509846      -0.00417602
C        0.00566508       8.52387510       3.72503220      -0.00409732       0.00607765       0.01162068
C        7.40545945      -0.03586039       3.71747415      -0.00134765      -0.00787785       0.00181549
C        6.17325725       2.12792231       3.69608522      -0.00851942       0.00048177      -0.00682571
C        4.96501742       4.30314088       3.77318857       0.00833439      -0.00399018       0.00205222
N        3.82000959       6.38702644       3.94460393       0.00310053       0.00223192      -0.00233648
C        2.48017343       8.47409805       3.81103172       0.00189836       0.00390658       0.00011342
C        9.85922497      -0.03860245       3.74063565       0.00367807      -0.00453983       0.00405956
C        8.62448489       2.11273753       3.66549744       0.00043091      -0.00062454       0.00961703
C        7.40811635       4.27202365       3.64847645      -0.00265267       0.00867966      -0.01383773
C        6.21196996       6.44144953       3.69512878      -0.01085120       0.00026519      -0.00772583
C        4.95101595       8.53050157       3.78033860       0.00166059       0.00129252      -0.00675737
C       -0.01710736       1.43579875       3.77257180      -0.00268747       0.00357732      -0.00187556
C       -1.27760625       3.52475080       3.67998707       0.00513129       0.00188125      -0.00202560
C       -2.47430033       5.69444868       3.64053097       0.00382471      -0.00761864      -0.01382658
C       -3.69059508       7.85386335       3.66502257      -0.00054114      -0.00191816       0.01154241
C       -4.92524389      10.00485056       3.74037059      -0.01118284       0.00575031       0.00389091
C        2.45327444       1.49209037       3.80816071       0.00581041       0.00339372       0.00439251
N        1.11397805       3.58011657       3.93274247      -0.01462676      -0.00878004       0.00078180
C       -0.03136348       5.66344923       3.75787450      -0.00209198      -0.00087592       0.00157334
C       -1.23904037       7.83888212       3.68653451       0.00071948      -0.00324938       0.00101769
C       -2.47183057      10.00248183       3.71493361       0.00591767       0.00526041       0.00365626
C        4.92839083       1.44281693       3.73036190       0.00026394      -0.00796242       0.01017750
C        3.72664198       3.63191626       3.86978362      -0.00006936       0.00698258      -0.00578913
C        1.24458774       7.76467348       3.79037593      -0.00565519       0.00954675       0.00164048
C        0.00031382       9.95293162       3.71553795       0.00236152       0.00056678       0.00837582
C        7.39990797       1.39602221       3.68501259      -0.00970822      -0.00286881       0.00652654
C        6.18653070       3.55692645       3.68328857       0.00088605       0.00169947      -0.01073814
C        4.99542009       5.72968102       3.78704781       0.00134454      -0.00779648      -0.00493517
C        3.73387324       7.77244138       3.85081836       0.00613522       0.01063843       0.00100119
C        2.46799981       9.91497043       3.75349445       0.00055009      -0.00266107       0.00009772
C        9.85083883       1.39030953       3.69824774       0.01283810      -0.00190556       0.00903902
C        8.62520959       3.54525796       3.63909598       0.00291830       0.00649791       0.00097344
C        7.42168320       5.70524400       3.65057120      -0.00848901       0.00597414      -0.00576081
C        6.19417390       7.85528231       3.72559295      -0.00536901      -0.00444948      -0.00335503
C        4.93480816       9.95482638       3.76016942       0.00278106      -0.00381761       0.00303945
Os       2.46444763       4.98329199       4.47499518       0.01082175      -0.00406967       0.00122821
