50
Lattice="12.336457 0.0 0.0 -6.168228499999997 10.683685154694365 0.0 0.0 0.0 15.0" Properties=species:S:1:pos:R:3:forces:R:3 energy=-453.3098400683679 free_energy=-453.3098400683679 stress="-0.003492979195920498 0.004909758146790969 1.0928958073695407e-05 0.004909758146790969 -0.004860759223787559 -1.1601436603642659e-05 1.0928958073695407e-05 -1.1601436603642659e-05 -3.2692614109804552e-06" pbc="T T T"
C       -0.01377211      -0.02055950       3.71013813       0.00529125       0.00186525       0.00153380
C       -1.21871219       2.13248543       3.76029425      -0.00922455      -0.00326314      -0.00113491
C       -2.44811395       4.25857403       3.80771287       0.00726214       0.00334127      -0.00963923
C       -3.72236452       6.38195880       3.80650112      -0.00042044       0.00328513      -0.00332655
C       -4.97870399       8.51258111       3.74199873       0.00945471      -0.01221484       0.00823899
C        2.44027589      -0.03301717       3.80025154      -0.00173676      -0.00130221      -0.00795593
C        1.23674475       2.12582531       3.82974513      -0.00582468       0.00261953       0.00209620
C        0.03562759       4.28992405       3.79075431       0.00088035      -0.00127868       0.00070244
C       -1.25437222       6.40743563       3.72449306      -0.01015301       0.00020854       0.00650721
C       -2.51316183       8.52426337       3.74809984       0.01213867       0.00053808      -0.00969604
C        4.91122786      -0.02654301       3.80962239      -0.00405127      -0.00280648      -0.00068977
C        3.70085461       2.06912956       3.94981759       0.00594176      -0.00277831       0.00832564
C        2.52468018       4.21670671       3.96579450       0.00397268       0.00617799       0.00538422
N        1.13448787       6.50707605       3.68696180       0.00403113      -0.00971537      -0.00573722
C       -0.06796348       8.55190550       3.65226901      -0.00347552      -0.00086443       0.00156990
C        7.38696478      -0.01879870       3.74555119      -0.00540803      -0.00160147      -0.00044001
C        6.18124591       2.08778619       3.93215955       0.00341216      -0.00085444      -0.00304616
C        4.97205658       4.17911026       4.08645706      -0.00857638       0.00849082      -0.00521239
O        3.54058543       6.94815867       2.16442177       0.01272315      -0.01371521       0.00023590
C        2.40210122       8.55217960       3.53306287      -0.00429957       0.00705240      -0.00428115
C        9.86365165      -0.01287362       3.65714685       0.00372924       0.00037527       0.01656055
C        8.64846686       2.11211647       3.82174573       0.00112554       0.00266947      -0.00368665
C        7.42645854       4.23597663       3.93486505      -0.00528751       0.00169927      -0.00202191
C        6.13965224       6.36444492       3.89638366       0.00038437      -0.00138919       0.00919925
C        4.91228717       8.52230585       3.53259508      -0.00099646       0.00167248       0.00718062
C        0.00387096       1.41228837       3.76061534      -0.00770355       0.00327151      -0.00332673
C       -1.20362427       3.56343944       3.78287519       0.00480264      -0.00381191       0.00816889
C       -2.47335611       5.68071631       3.78267760      -0.00607651       0.00286855      -0.00003111
C       -3.74466243       7.80544245       3.76768484       0.01607078      -0.00020791       0.00876880
C       -4.96424615       9.93930987       3.74125162       0.00331347      -0.00900167      -0.00152962
C        2.45336988       1.38636522       3.86188181      -0.00126122       0.00400551      -0.00251180
C        1.26277267       3.56872353       3.85827705       0.00433142       0.00260318       0.00319929
C        0.00648438       5.73059738       3.73589854      -0.01183871      -0.00169101       0.00468050
C       -1.28227920       7.82219691       3.70246517       0.00302873      -0.00237289      -0.00257158
C       -2.49759576       9.94603412       3.78538809      -0.00045244      -0.00179084       0.00163706
C        4.93557889       1.38097985       3.90715747       0.00575365      -0.00431737       0.00937810
C        3.73765263       3.48090661       4.03412527      -0.00256835      -0.00087174       0.00311134
C        1.15297720       7.85814630       3.58802659      -0.00536529       0.00011542      -0.00626275
C       -0.02651495       9.96263905       3.73080859      -0.00707732      -0.00260694       0.00182750
C        7.41044575       1.39287955       3.83996777       0.00239731      -0.00089063      -0.01054093
C        6.21113532       3.49841471       4.01124410      -0.01055288       0.00278261      -0.00632525
C        4.95996778       5.59703460       4.08549013      -0.00327068       0.00327193       0.00333943
C        3.63428356       7.87236949       3.15649016      -0.00221948       0.00575272      -0.01313829
C        2.45095612       9.96430420       3.64954016      -0.00092535       0.00747234       0.00162531
C        9.88103659       1.40981416       3.74440745      -0.00472026      -0.00274784      -0.00275003
C        8.65985732       3.53520979       3.86082326       0.00405899       0.00554842      -0.00240445
C        7.39394628       5.66276808       3.89139959       0.00007187       0.00077199      -0.00186733
C        6.11580528       7.79313404       3.71780413       0.00202880      -0.00442349       0.00095079
C        4.91887572       9.94460228       3.61913469       0.00641591       0.00559794      -0.00095964
Os       3.08133689       6.09823752       4.00638156       0.00086554       0.00246037      -0.00313427
