49
Lattice="12.336457 0.0 0.0 -6.168228499999997 10.683685154694365 0.0 0.0 0.0 15.0" Properties=species:S:1:pos:R:3:forces:R:3 energy=-440.93829769048403 free_energy=-440.93829769048403 stress="0.002152324319022006 -0.0028988042625644308 -3.3990839160826872e-06 -0.0028988042625644308 0.003490555624713571 -3.3378391538622487e-06 -3.3990839160826872e-06 -3.3378391538622487e-06 -3.883300592948563e-06" pbc="T T T"
C       -0.00349040       0.02712570       3.82718586       0.00119746       0.00582291      -0.00666545
C       -1.25608792       2.13491173       3.83861432       0.00085669      -0.00128449      -0.00521354
C       -2.48212042       4.26407149       3.86385603       0.00635249      -0.00208708       0.00179461
C       -3.69780881       6.40847601       3.87593786       0.00385220      -0.00183611      -0.00656272
C       -4.92617032       8.56874174       3.85749247      -0.00096329      -0.00207649       0.00621320
C        2.45790049       0.01227905       3.74675869       0.00661042      -0.00205122       0.00099146
C        1.21059284       2.19149500       3.72106681      -0.00219175      -0.00014424      -0.00042439
C        0.01065172       4.24855050       3.85748923       0.00333254       0.00066434       0.00989585
C       -1.23076807       6.39879265       3.85798485      -0.00058423       0.00562622       0.00794450
C       -2.46510790       8.54170711       3.82001463      -0.00385447       0.00291902       0.00247334
C        4.92822923      -0.01651944       3.68487779       0.00805400       0.00506626      -0.00302174
C        3.66415970       2.08840298       3.35085458       0.00074335      -0.01515944       0.00622148
N        1.19829412       6.35094512       3.85865332       0.00026231      -0.00572858      -0.01532473
C        0.01037516       8.50039615       3.79882343      -0.00730025      -0.00107405      -0.00174963
C        7.38569466      -0.01891911       3.76387466       0.00137030      -0.00668615      -0.00371147
C        6.13317804       2.14847591       3.64579719       0.00228015       0.00168269       0.00620831
C        4.81679565       4.35891136       3.62583990      -0.00314550       0.00498808       0.01146327
N        3.81759788       6.47967577       3.60879109       0.00293615       0.00399749       0.00051962
C        2.45621860       8.49640528       3.79934610       0.00128665       0.00202685      -0.00360170
C        9.84654330      -0.01164193       3.82162365       0.00089846       0.00205119       0.00719147
C        8.60341943       2.13113738       3.81079431       0.00015919      -0.00035000       0.00004807
C        7.36094761       4.27032439       3.81970728      -0.01220364       0.00127309      -0.00467518
C        6.19652214       6.45305590       3.82292593      -0.00126476      -0.00831602       0.00696126
C        4.94656159       8.57101947       3.82483355       0.00834542       0.00446757      -0.00147220
C       -0.01379229       1.45321516       3.80496334       0.00077001       0.00332293      -0.00144539
C       -1.24351483       3.55120074       3.85494007       0.00852668      -0.00302613       0.00615295
C       -2.46626234       5.68887245       3.87185300       0.00570284       0.00085603       0.00091818
C       -3.69764278       7.83681762       3.85953474      -0.00165875      -0.00230326       0.00377250
C       -4.93674075       9.99429156       3.82633550       0.00221001       0.00158613      -0.00460574
C        2.44021153       1.44080491       3.60352152      -0.00279204      -0.00286761       0.00041184
N        1.19974423       3.57040643       3.79458805      -0.00548311      -0.00251229      -0.00095323
C        0.01595348       5.69243402       3.86541033      -0.00474308       0.00058855       0.00476892
C       -1.22933243       7.81592612       3.82654037      -0.00947829       0.00475229       0.00345747
C       -2.47532861       9.96867862       3.74915133       0.01014261       0.00390700       0.00176599
C        4.91261017       1.40873931       3.54305854       0.00487370       0.00562866       0.01075397
P        3.66678899       3.61934879       2.35880396      -0.00663264      -0.00268494      -0.01023938
C        1.23408935       7.73772216       3.81804103      -0.00295670      -0.00020767       0.00592742
C       -0.00220773       9.93812640       3.75066999      -0.00008473      -0.00288775      -0.00897518
C        7.37077116       1.41957286       3.74611909       0.00201801      -0.00595650      -0.00166091
C        6.12093536       3.56943340       3.71000938      -0.01500507       0.00105843       0.00407618
C        4.96030939       5.79974763       3.69769933      -0.00204256      -0.00064321      -0.00759703
C        3.72201566       7.83587905       3.76812581       0.00596447       0.00919034      -0.00747075
C        2.44760235       9.93371826       3.80200756       0.00299266       0.00181150      -0.00644465
C        9.84262841       1.41569656       3.83137292       0.00145513       0.00047661      -0.00392882
C        8.60510105       3.55680354       3.83795847      -0.00510834       0.00356272       0.00078114
C        7.40429206       5.70331991       3.85608407       0.00041999      -0.00164921      -0.01032086
C        6.18089106       7.86960259       3.84621000       0.00277838      -0.00823470       0.00406267
C        4.92885965       9.98891521       3.83446878       0.00212242       0.00601392       0.00421426
Os       2.90728288       4.77145562       3.99410886      -0.01102147      -0.00357366      -0.00292523
