49
Lattice="12.336457 0.0 0.0 -6.168228499999997 10.683685154694365 0.0 0.0 0.0 15.0" Properties=species:S:1:pos:R:3:forces:R:3 energy=-437.21008975814925 free_energy=-437.21008975814925 stress="-0.0009113531012366134 -0.0003514154353655696 -4.33712593335868e-06 -0.0003514154353655696 0.005734730429892448 -2.1292536811230583e-06 -4.33712593335868e-06 -2.1292536811230583e-06 -2.018280419357264e-06" pbc="T T T"
C        0.00116056      -0.00013984       3.75171569       0.00099773       0.00881392      -0.00549210
C       -1.24514205       2.12187307       3.75347440       0.00005749       0.00226713       0.00827054
C       -2.46682242       4.27433116       3.71988376       0.00421609      -0.00659957       0.00680876
C       -3.70319349       6.41396683       3.68795345       0.00245925       0.00149308      -0.00275476
C       -4.93441561       8.55784537       3.72621900       0.00111382      -0.00039596       0.00671533
C        2.46680023       0.04874651       3.71539335       0.00518081       0.00278242      -0.00075071
C        1.20868762       2.13476332       3.70776184      -0.00066525       0.00297813      -0.00837991
C       -0.04843768       4.28931369       3.75424035      -0.00026238      -0.00540756      -0.00417142
C       -1.24986174       6.42304628       3.64713707      -0.00030610       0.00686931       0.00008646
C       -2.47179441       8.56702628       3.67631216      -0.00290036       0.00424936       0.00216647
C        4.93429839       0.01632118       3.70368083       0.00415181      -0.00984247      -0.00189641
C        3.72221813       2.20753461       3.76299360       0.00000339      -0.00368437       0.00527607
N        1.17023486       6.38381371       3.64843436      -0.00273496       0.00243138      -0.00659239
C        0.00046701       8.52925274       3.68072705       0.00378887       0.00379588       0.00074105
C        7.41346120      -0.03304558       3.72832073      -0.00677166      -0.00443044      -0.00301795
C        6.18198557       2.13079125       3.72773269      -0.00109970      -0.00854836       0.00367313
C        4.95819669       4.27741379       3.83107081      -0.00486681       0.00711040       0.00163215
O        3.80997717       6.40881801       4.26462199      -0.00541965      -0.00247590       0.00103438
C        2.48420610       8.45710139       3.78580322       0.00037878       0.00425030      -0.00628226
C        9.86353765      -0.03536547       3.76031100      -0.00248924      -0.00249643       0.00959014
C        8.63865548       2.12372524       3.73283021      -0.00132967      -0.00825181      -0.00494998
C        7.40415038       4.27117527       3.71453358      -0.00004055       0.00810271       0.00690067
C        6.17449994       6.41569208       3.76659630      -0.00133890       0.00471197       0.01212508
C        4.93611634       8.52401679       3.80032990       0.00260495      -0.00579439       0.00986055
C       -0.00414838       1.42939619       3.74104952       0.00161705       0.00800657      -0.00378137
C       -1.23859761       3.55101384       3.75916192       0.00446277      -0.00329204       0.00208312
C       -2.46617740       5.69771902       3.67882137       0.00295015      -0.00166163      -0.00138705
C       -3.69964618       7.84475172       3.69173782      -0.00014665      -0.00258235       0.00112129
C       -4.92588092       9.99822303       3.73322330       0.00274517       0.00254620      -0.01818072
C        2.45854952       1.50392320       3.72216693      -0.00044531       0.00185065       0.00990408
O        1.15343793       3.56057548       3.48579408      -0.00989083      -0.01062246       0.01124449
C       -0.02088191       5.69949616       3.67233814      -0.00026726      -0.00166103      -0.00112325
C       -1.24368269       7.84305971       3.65906978       0.00015553       0.01151157      -0.01217125
C       -2.47343131      10.00267019       3.69681000       0.00335074       0.00083811      -0.00386580
C        4.93701025       1.44773267       3.72906026      -0.00010204      -0.01094032      -0.00533209
N        3.76847426       3.58999453       3.87425148      -0.00669798      -0.00164957       0.00245749
C        1.21644815       7.77073834       3.70780144       0.00275332       0.00109398      -0.00405959
C        0.00294176       9.95983239       3.70256952      -0.00015248      -0.00383962       0.00731242
C        7.41071694       1.40342280       3.72614465      -0.00309384      -0.01176168      -0.00125447
C        6.18620541       3.55058779       3.73545729      -0.00066067       0.00025234      -0.00092982
C        4.98946131       5.68850330       3.88653961      -0.00485290       0.00640973       0.00684605
C        3.73018365       7.81577803       3.87870579      -0.00103961      -0.00030923      -0.00087919
C        2.47300542       9.91448375       3.75628514      -0.00630365       0.00314106      -0.01348478
C        9.87155095       1.40673182       3.74965660       0.00248625       0.00004021      -0.00946759
C        8.64165474       3.55445971       3.71790515       0.00138899      -0.00356478      -0.00501709
C        7.40459120       5.69434484       3.71328515      -0.00278570       0.01100234      -0.00546061
C        6.18206616       7.84167747       3.76709044       0.00248864      -0.00052925       0.00604944
C        4.93217776       9.95580598       3.76728221      -0.00127561      -0.00149689       0.00546199
Os       2.34237835       4.94560951       4.35443463       0.01858816       0.00528936       0.00332142
