50
Lattice="12.336457 0.0 0.0 -6.168228499999997 10.683685154694365 0.0 0.0 0.0 15.0" Properties=species:S:1:pos:R:3:forces:R:3 energy=-449.17591386206976 free_energy=-449.17591386206976 stress="-3.852880351395717e-05 -0.003459767904797008 -1.3746827872911976e-05 -0.003459767904797008 -0.001510001753250259 2.053173405476598e-06 -1.3746827872911976e-05 2.053173405476598e-06 -1.1772926366150864e-06" pbc="T T T"
C        0.01311399      -0.02845877       3.81559200       0.00822597      -0.00289065       0.01150033
C       -1.23716603       2.09857645       3.91360767      -0.00175748      -0.00230500      -0.00610025
C       -2.47856052       4.23831820       3.93676517      -0.00085855       0.01090387      -0.00117428
C       -3.67931507       6.38142129       3.84143195       0.00253114       0.00187894       0.00521564
C       -4.90622151       8.51805918       3.78530170      -0.00327490      -0.00437652      -0.00094132
C        2.48497353      -0.03213832       3.78314100      -0.00513341       0.00248445       0.01472771
C        1.24147111       2.07501053       3.90661483      -0.00139828       0.00021811       0.00263186
C        0.00119258       4.20520557       4.05386913       0.00735664      -0.00010622       0.00330302
C       -1.20237438       6.37163468       3.90628892       0.01460419      -0.00064248       0.00613558
C       -2.43546649       8.51478598       3.75297348      -0.00381333      -0.00718402      -0.00015369
C        4.94094759      -0.01688505       3.70834285       0.00048932      -0.00387245      -0.00327138
C        3.68444844       2.13297061       3.80907382       0.00305405       0.00502109      -0.00138725
N        2.39828840       4.18402692       3.94731041      -0.00061439      -0.01823926       0.00167396
O        1.36354524       6.91988558       2.15352212      -0.01204644       0.00335731      -0.00153561
C        0.01168759       8.52514669       3.53688174      -0.00104969      -0.00853208       0.00142683
C        7.40757783      -0.01509683       3.67507956       0.00261092       0.00040976      -0.00424994
C        6.14993592       2.13634629       3.77588662       0.00064390       0.00683302       0.00096300
C        4.87391229       4.30729362       3.79066575      -0.00405411       0.00851944      -0.01194671
O        3.82534964       6.47211724       3.38214673      -0.00259545      -0.00575799      -0.00666644
C        2.52497162       8.52426501       3.52517577       0.00210903      -0.00145064       0.00168165
C        9.87715648      -0.02666001       3.76116159       0.00239843       0.00494591       0.00575626
C        8.62653617       2.11266668       3.83372363      -0.00327946      -0.00276455      -0.00309625
C        7.37931378       4.25579499       3.84225520       0.00197261      -0.00512052      -0.00376354
C        6.18372005       6.39707129       3.78071807       0.00291435       0.00088199      -0.00791570
C        4.98081458       8.53474967       3.71641854      -0.00927863       0.00368599      -0.00155562
C        0.00227700       1.38845723       3.88470781       0.00029954      -0.00505745      -0.00029577
C       -1.24662567       3.51457531       3.98349728      -0.00110045       0.00242101      -0.00097249
C       -2.45189736       5.66591922       3.90671821       0.00515367       0.01090865       0.00200519
C       -3.66608311       7.80470174       3.79657735      -0.00496819      -0.00231633       0.00565490
C       -4.91517518       9.94442098       3.79171658       0.00157210      -0.00630791       0.00808988
C        2.47503002       1.38944401       3.82903399      -0.00075923       0.00591008       0.00194399
C        1.23500592       3.48722259       3.98925271       0.00308757       0.00021700       0.00916423
C        0.01156785       5.62356524       4.09293970      -0.00489626      -0.00386496       0.00254571
C       -1.19250679       7.79578550       3.72617154      -0.00047257      -0.00531449       0.00602248
C       -2.44591323       9.94085570       3.73644710      -0.00568669      -0.00324061      -0.00247858
C        4.92399589       1.41765595       3.75707621       0.00435495       0.00106999      -0.00079366
C        3.63390478       3.56282322       3.84336900      -0.00156240       0.00393315      -0.00709723
C        1.27282182       7.84640970       3.16213384      -0.00298677       0.00769133       0.00704087
C        0.00886017       9.94741665       3.62623863       0.00392305      -0.00648527       0.00871023
C        7.39073631       1.41051928       3.76364169      -0.00289711       0.00151782      -0.00719731
C        6.12729001       3.56691763       3.80898390      -0.00272333       0.00612968      -0.01352462
C        4.96701046       5.70782210       3.72139953       0.00009002       0.00309937      -0.01260956
C        3.77094815       7.87441154       3.56995349      -0.00404828      -0.00867694      -0.00055582
C        2.47905522       9.95606363       3.66225934       0.00479110       0.00479917      -0.00181230
C        9.86512142       1.39635238       3.84139755      -0.00246362      -0.00043051      -0.00084700
C        8.61952816       3.53564958       3.87814672       0.00195014      -0.00258070      -0.00224681
C        7.41202000       5.67410845       3.83295457       0.00627485      -0.00445426      -0.00190131
C        6.20814698       7.81714798       3.76490771      -0.00519187       0.00311079      -0.00671894
C        4.94946534       9.95627220       3.76711707       0.00301443       0.00912141       0.01149700
Os       1.85384217       6.16408069       4.04006947       0.00548891       0.00290245      -0.00488095
