49
Lattice="12.336457 0.0 0.0 -6.168228499999997 10.683685154694365 0.0 0.0 0.0 15.0" Properties=species:S:1:pos:R:3:forces:R:3 energy=-437.06764526176977 free_energy=-437.06764526176977 stress="0.0022575990752958515 4.797446924723078e-06 6.138129507833879e-06 4.797446924723078e-06 0.007812225400927771 2.5300156081160916e-06 6.138129507833879e-06 2.5300156081160916e-06 -6.88470856449697e-07" pbc="T T T"
C        0.00555514       0.02987004       3.73835790      -0.01701205      -0.00040809      -0.00429834
C       -1.24593587       2.13497113       3.77071801      -0.00089118       0.00390751      -0.00818532
C       -2.47972105       4.26980314       3.75757381       0.00217155       0.00844881       0.00446446
C       -3.71620572       6.41125815       3.74363135       0.00162787      -0.00278321       0.01360299
C       -4.94282783       8.56275450       3.72792221       0.00451286      -0.00247894      -0.01382180
C        2.46609933       0.04898855       3.72688624       0.00508145      -0.00079605      -0.00000215
C        1.22229512       2.22353938       3.81666754      -0.00087705      -0.00038593       0.00388099
C       -0.01651860       4.26910111       3.86740449      -0.00188553      -0.00338082      -0.00111132
C       -1.24909980       6.41447668       3.78467748      -0.00560859      -0.00074674      -0.00156265
C       -2.47716603       8.55615808       3.74096054       0.00281070      -0.01162710       0.00873166
C        4.93526374      -0.01148077       3.71502803       0.00048657       0.00462048       0.00619207
C        3.72173717       2.13144931       3.63996383       0.00017508       0.00568139      -0.00502315
N        1.18185616       6.34396644       3.95995192       0.00675112      -0.01013053       0.00004137
C        0.00792912       8.50095428       3.77813895      -0.00795773       0.00342134      -0.00685744
C        7.40666656      -0.03869419       3.73084867      -0.00238099      -0.00949445      -0.00371591
C        6.17143754       2.12141697       3.71773529       0.00040489       0.00694092      -0.00431487
C        4.94386125       4.28068038       3.75960122      -0.00599448      -0.00276711      -0.00518345
O        3.76393554       6.41906082       3.40348159       0.01441341       0.00336345      -0.00029069
C        2.47280603       8.45741383       3.72256294       0.00396452       0.00972663       0.01526624
C        9.85893291      -0.02609812       3.72610347      -0.00322692       0.00278253      -0.01039842
C        8.62630468       2.12461841       3.73507852       0.00504122      -0.00342202       0.01027641
C        7.38198819       4.27201489       3.75712138       0.00159328       0.00654106       0.01297598
C        6.15554848       6.41762390       3.75956575       0.00089162      -0.00630500       0.00675067
C        4.93410415       8.54502049       3.67966630      -0.00290651      -0.00581352      -0.00646497
C        0.00807199       1.46553727       3.77678484      -0.00603000      -0.00017180      -0.00411000
C       -1.24907982       3.55191027       3.78400025      -0.00158169       0.00242271      -0.00045250
C       -2.47962504       5.69610481       3.75785169      -0.00206270       0.00487585       0.00545030
C       -3.71017093       7.84218021       3.73626389       0.00474994      -0.01132633       0.00687580
C       -4.92968160      10.00528368       3.73131811      -0.00484689       0.00401404      -0.00730118
C        2.47306042       1.50870648       3.72421809      -0.00061881       0.00363312       0.00510009
N        1.18194765       3.62276249       3.95976449       0.00567591       0.00488872      -0.00033111
C       -0.01653351       5.69759529       3.86794145      -0.00519593      -0.00245801      -0.00298172
C       -1.24599105       7.83154529       3.77117654      -0.00412182      -0.00528525      -0.00692651
C       -2.47803060       9.99266011       3.72513388       0.00736761      -0.00751952      -0.00412792
C        4.93400560       1.42133900       3.68079799      -0.00278223       0.00900472      -0.01052806
O        3.76406548       3.54740764       3.40371881       0.01457956      -0.00264274       0.00351565
C        1.22215309       7.74270605       3.81704278      -0.00040086       0.01330803      -0.00036493
C        0.00504447       9.93670707       3.73976744      -0.00596679       0.00074294      -0.01382073
C        7.39375013       1.40395939       3.72669700      -0.00016929      -0.00806388      -0.00775904
C        6.15553120       3.54869057       3.75967982      -0.00125031       0.00772571       0.00528541
C        4.94349640       5.68604694       3.76043435       0.00258544      -0.00611841      -0.00815556
C        3.72162008       7.83501784       3.63898433       0.00228358      -0.00425782      -0.00775654
C        2.46624087       9.91736500       3.72650195       0.00250215       0.00580770      -0.00059996
C        9.85930805       1.41060134       3.74127524       0.00663121       0.00081167       0.00486762
C        8.62010835       3.55505179       3.74291794       0.00505142       0.00489367       0.01544255
C        7.38203585       5.69405087       3.75694980       0.00183992       0.00332215       0.01691234
C        6.17147867       7.84484790       3.71709508       0.00078253      -0.00306142      -0.00006557
C        4.93595501       9.97792315       3.71523128      -0.01539486      -0.00387764       0.00006926
Os       2.61978634       4.98368128       4.43352509      -0.00481219      -0.00556286       0.00080995
