50
Lattice="12.336457 0.0 0.0 -6.168228499999997 10.683685154694365 0.0 0.0 0.0 15.0" Properties=species:S:1:pos:R:3:forces:R:3 energy=-451.2492262608513 free_energy=-451.2492262608513 stress="-0.0014265729459968346 0.004312473698788624 -7.032756806856688e-06 0.004312473698788624 -0.006380067567166356 -2.315833810637445e-06 -7.032756806856688e-06 -2.315833810637445e-06 7.696170780197701e-06" pbc="T T T"
C       -0.01675113      -0.01014678       3.79995770      -0.00379342      -0.00537080      -0.00313933
C       -1.21950161       2.15230767       3.85507202       0.00243669       0.00304282       0.00240281
C       -2.44492749       4.27513352       3.85636346      -0.00028014       0.00307216       0.00212486
C       -3.71618840       6.39832282       3.80088725      -0.01316966      -0.00403059      -0.00327152
C       -4.96588939       8.52714867       3.75820596       0.00128368      -0.00047472       0.00512551
C        2.43908082      -0.02801444       3.81161117      -0.00171331       0.00129405      -0.00029267
C        1.23822163       2.12555176       3.83656830      -0.00214794       0.00644407      -0.00401415
C        0.06082550       4.30697944       3.88177281      -0.00073330      -0.00086769       0.00246971
C       -1.23978674       6.41721427       3.83425357       0.01008588      -0.00331694      -0.00493980
C       -2.50399021       8.53368496       3.80966434      -0.00104095       0.00406715      -0.00275455
C        4.90793952      -0.01706792       3.80639899       0.00213678       0.00084529      -0.00422444
C        3.68589907       2.06866954       3.75971465      -0.00112533      -0.00005505      -0.00030213
N        2.53075254       4.15535500       3.78997601       0.00195814      -0.00792728      -0.00314821
N        1.16396736       6.52223718       3.78716779      -0.00388973       0.00501041      -0.00493769
C       -0.06505040       8.56576018       3.75064364      -0.00110785      -0.00449715       0.00606369
C        7.37898904       0.00604837       3.78821694      -0.00255169      -0.00374858      -0.00445352
C        6.16327286       2.11128001       3.79236513      -0.00142465       0.00337538      -0.00195674
C        4.92592873       4.17981210       3.63471836       0.00137430       0.00585684       0.00849022
P        3.69170313       6.40188342       2.27063272      -0.00395333      -0.00521512       0.00680813
C        2.38348719       8.58384046       3.62775246       0.00024679      -0.00304644       0.00724201
C        9.85747003       0.01120253       3.78142566       0.00152159       0.00122342       0.00464993
C        8.63980035       2.13760836       3.83358670      -0.00088560      -0.00219985       0.00369839
C        7.40728935       4.25546106       3.78677349       0.00069840      -0.00404987      -0.00063159
C        6.15475669       6.39112436       3.64577701      -0.00616731       0.00506357      -0.00487715
C        4.91278292       8.54189046       3.64487455       0.00552600      -0.00387102      -0.01109594
C       -0.00068710       1.42305061       3.83834837       0.00040431      -0.00060261      -0.00127940
C       -1.19046841       3.58418246       3.87457017      -0.00197512       0.00247823      -0.00707651
C       -2.46727737       5.69529732       3.83821994       0.00109681       0.00351151       0.00220986
C       -3.73504210       7.81727283       3.79410260      -0.00041982      -0.00161342      -0.00511763
C       -4.96530869       9.94799714       3.79334765      -0.00143573      -0.00108287       0.00220709
C        2.44807055       1.38871210       3.80761894      -0.00408051       0.00110288      -0.00894769
C        1.28859486       3.55966613       3.85534850      -0.00112207       0.00395771       0.00975719
C        0.02717246       5.74402371       3.85521910       0.01131910      -0.00236880      -0.00175713
C       -1.27263940       7.83333894       3.80135799      -0.00042806      -0.00115891      -0.00067426
C       -2.49579994       9.95306058       3.81034670       0.00207374       0.00564200      -0.00241308
C        4.92628688       1.39451284       3.78897606      -0.00014901       0.00018352      -0.00580455
C        3.69948897       3.47290273       3.69768733       0.00088970       0.00112322      -0.00018943
C        1.15792483       7.87538532       3.68988638      -0.00528098      -0.00443574       0.00058577
C       -0.02853789       9.97700383       3.78415807      -0.00222287      -0.00498683      -0.00801598
C        7.39861295       1.42095989       3.81468637      -0.00399749      -0.00294432       0.01037253
C        6.17297316       3.52660769       3.74546033       0.00041636       0.00260214       0.00548146
C        4.89380082       5.62548427       3.54278810       0.00762808       0.00410126       0.00205652
C        3.61954789       7.83278404       3.53977158       0.00642557       0.01333413       0.00029932
C        2.44115891       9.99039859       3.73863547      -0.00105879      -0.00111839       0.00773390
C        9.87585280       1.43383855       3.83255877       0.00304725       0.00345099       0.00106396
C        8.64855697       3.55993719       3.83590171       0.00230215      -0.00184287      -0.00368208
C        7.38390031       5.68437831       3.75649000      -0.01634101      -0.00388422       0.00288598
C        6.12755976       7.80942120       3.66766350       0.00197276       0.00002666       0.00821948
C        4.91486906       9.95977378       3.75411433      -0.00129197      -0.00569700       0.00069947
Os       3.07958751       6.05142888       4.30902062       0.01894356      -0.00040237      -0.00365062
