50
Lattice="12.336457 0.0 0.0 -6.168228499999997 10.683685154694365 0.0 0.0 0.0 15.0" Properties=species:S:1:pos:R:3:forces:R:3 energy=-445.69955049508565 free_energy=-445.69955049508565 stress="-0.003167452334911968 0.0008678112718179122 6.778089574587922e-06 0.0008678112718179122 -0.004187887223365889 7.928037126075068e-06 6.778089574587922e-06 7.928037126075068e-06 4.2467156133784655e-06" pbc="T T T"
C        0.01126476       0.00073854       3.98270215      -0.00249712      -0.00090787      -0.00068900
C       -1.23128863       2.12215669       4.10842990      -0.00489474       0.00074181      -0.00574176
C       -2.47626671       4.27944106       4.10623735      -0.00686384      -0.00044994      -0.00092020
C       -3.69265593       6.41694404       3.98338631      -0.00454821       0.00006668       0.00051806
C       -4.92755425       8.54935732       3.87370302       0.00715910       0.00019125       0.01584041
C        2.47967054       0.00838909       3.97688671      -0.00707691      -0.00023016      -0.00606668
C        1.25729814       2.13260418       4.10379039      -0.00008494      -0.00673500      -0.01216174
C       -0.03063023       4.25364501       4.02494282      -0.00283092      -0.00012335       0.00076265
C       -1.22365540       6.42962178       4.10329139      -0.00742706       0.00814203      -0.00098558
C       -2.45216468       8.55064424       3.97782093      -0.00170575       0.00233545      -0.00578221
C        4.94166380       0.00337042       3.94111151      -0.00174566      -0.01248124       0.00548764
C        3.72178290       2.11592209       3.72146306      -0.00030934       0.01084893       0.00510750
O        2.98094464       3.83795327       2.24409760      -0.00514754       0.00001061       0.00242540
O        1.11284597       7.06740233       2.24765897       0.00721333       0.01208112       0.00446603
C       -0.00598079       8.57308802       3.72375598       0.00010868      -0.00801416       0.00083351
C        7.41089517       0.00905931       3.88271038       0.01420138      -0.00200300      -0.00357248
C        6.18195079       2.13934802       3.88457907       0.00082081      -0.00086834      -0.00994814
C        4.99867130       4.24797092       3.46277148      -0.00103197       0.00229923       0.00627260
P        3.69013063       6.40255453       2.40533007       0.00801869      -0.00167530      -0.00678006
C        2.47800616       8.61290264       3.46253510      -0.00079646      -0.00613631       0.00016511
C        9.88002771       0.00423688       3.92291776       0.00624845       0.00205306       0.00214152
C        8.64255878       2.13896500       4.03945140       0.00517391       0.00547886       0.00642741
C        7.41328730       4.27883393       3.92375270      -0.00103431       0.00093766       0.00579073
C        6.19520759       6.40928473       3.61710293      -0.00249758      -0.00006411      -0.00889977
C        4.94874325       8.56869523       3.61286354      -0.00006784       0.00081862       0.00517688
C        0.01683642       1.42001444       4.09119241      -0.00539084      -0.00231268      -0.00764589
C       -1.27175606       3.53667540       4.12110975      -0.01037425       0.00001155      -0.01342506
C       -2.46067885       5.71154944       4.08966189      -0.00587288      -0.00018820      -0.00511260
C       -3.69078744       7.83967622       3.95540404       0.00568470      -0.00019498       0.00973517
C       -4.92363012       9.97511840       3.95510733      -0.00343099      -0.00117704       0.00645071
C        2.49089552       1.42935240       3.93306836       0.00263010       0.00108336       0.01076210
C        1.19160994       3.54104577       4.13091128       0.00986341       0.00250990      -0.00344739
C       -0.03723490       5.66832459       4.13196046       0.00830239       0.00414137      -0.00405495
C       -1.21565123       7.85020884       3.93548611      -0.00505521      -0.00023651       0.00306273
C       -2.45454235       9.97708588       3.96245113      -0.00901955      -0.00216938      -0.00369318
C        4.94448890       1.42746915       3.86156499      -0.00393004      -0.00553310       0.00012859
C        3.81290203       3.45803670       3.16068017      -0.00127269       0.01246269      -0.00267156
C        1.20151205       7.97911356       3.16371365      -0.00198759       0.00540508      -0.01022212
C        0.00762972       9.97702632       3.86088259       0.00832215      -0.00966563       0.00280448
C        7.41088303       1.42864305       3.96651640       0.00785339       0.00308715       0.00233249
C        6.19130885       3.55518030       3.79731814       0.00255859       0.00112032       0.00027264
C        5.02125067       5.65327766       3.29812328      -0.00335300      -0.00474706       0.00278577
C        3.70650039       7.93027440       3.29659833      -0.00388402      -0.00335380       0.00301514
C        2.47352602       9.99257035       3.79555960       0.01266608      -0.00452230       0.00238036
C        9.87135246       1.41708382       4.05415212       0.00164214       0.00300502       0.00005050
C        8.63251682       3.56403541       4.05227895      -0.00278430       0.00193755       0.00862557
C        7.41577885       5.70153381       3.86341321      -0.00388524       0.00043560      -0.00884243
C        6.18132936       7.84069241       3.67989105       0.00460371       0.00288335       0.00076902
C        4.94562656       9.97917080       3.85974435       0.00146174       0.00138760       0.00308444
Os       1.55185974       5.16841758       3.36057717      -0.00373198      -0.01168639       0.00298765
