49
Lattice="12.336457 0.0 0.0 -6.168228499999997 10.683685154694365 0.0 0.0 0.0 15.0" Properties=species:S:1:pos:R:3:forces:R:3 energy=-434.5415376821647 free_energy=-434.5415376821647 stress="-0.009008716138296194 0.002223207076420058 -9.37698824114177e-06 0.002223207076420058 -0.0012075589283750698 5.1009774865683225e-06 -9.37698824114177e-06 5.1009774865683225e-06 3.5791074681515106e-06" pbc="T T T"
C       -0.00134458       0.00334937       3.73163721      -0.00558578      -0.00191144       0.00523077
C       -1.23339494       2.12931896       3.46683291       0.00170232       0.00044898      -0.00140250
C       -2.48485045       4.28114042       3.59172783       0.00665710      -0.00313462       0.00199545
C       -3.70649159       6.42214821       3.81568858       0.00027531       0.00696739      -0.00311892
C       -4.93799549       8.56214628       3.89579525      -0.00179564      -0.00062493       0.00575397
C        2.46273076       0.02836917       3.80992286      -0.00196953      -0.00253163       0.00496170
C        1.24938830       2.08174639       3.35181883      -0.00253628      -0.00530377       0.00408242
C       -0.12384021       4.32989368       3.11517106       0.00686832      -0.00057554       0.00158271
C       -1.29363981       6.45076830       3.55641628       0.00044165      -0.00384057       0.00012844
C       -2.48740061       8.57488646       3.80604146      -0.00039300       0.00587819       0.00153407
C        4.93746316       0.01191843       3.84428245       0.00027726       0.00382446      -0.00393648
C        3.71343041       2.18806909       3.84550355       0.00698427       0.00279861       0.00019008
C        1.11741215       6.39507310       3.66479115      -0.00518333      -0.00281091       0.00141684
C       -0.02163462       8.54479203       3.75795659      -0.00595696       0.00155771       0.00588925
C        7.41179652      -0.02154360       3.80999307      -0.00650038       0.00413742       0.00402356
C        6.20101161       2.11082965       3.90181768       0.00262513      -0.00870903       0.00136573
C        5.01456257       4.23649688       4.05597800       0.00349721       0.00226195       0.00643533
B        3.71434078       6.35063375       4.10183543      -0.00639006      -0.00396247      -0.00081917
C        2.46008730       8.51666886       3.86996257       0.00470506      -0.00003110      -0.00120477
C        9.87246422      -0.01580737       3.75735062      -0.00262319      -0.00130402       0.00558443
C        8.65153847       2.12164947       3.73615129       0.00319322       0.00013278      -0.00022110
C        7.43854451       4.26284987       3.89989040      -0.00645662      -0.00047790       0.00388685
C        6.20468079       6.41236499       4.02377727       0.00056831       0.00331382       0.00129284
C        4.93738756       8.54441573       3.94361311       0.01031554      -0.00129484      -0.00402054
C       -0.00342120       1.42126991       3.50539778      -0.00380680      -0.00300654       0.00129589
C       -1.26627616       3.56090164       3.37220490       0.00478288      -0.00301861      -0.00181634
C       -2.49459291       5.71085556       3.64066576       0.00213394      -0.00179126      -0.00055300
C       -3.71020534       7.85190609       3.84710014      -0.00022081       0.00683383      -0.00454842
C       -4.93618831       9.98911434       3.81893136      -0.00509326      -0.00318056       0.00700154
C        2.46632212       1.45511204       3.69660750       0.00387222      -0.00205561      -0.00408150
S        1.27134580       3.55318542       2.43135001      -0.01305817       0.01325514      -0.00215675
C       -0.07471615       5.73759813       3.37960210      -0.00361169      -0.00345372       0.00188640
C       -1.26142580       7.86117167       3.71144950      -0.00379222      -0.00111641      -0.00013281
C       -2.47392467       9.99533411       3.84174956       0.00144995       0.00480616       0.00594632
C        4.95307616       1.43216266       3.88237445       0.00359448      -0.00077429      -0.00860167
C        3.79387812       3.56158487       3.99718620       0.00572268       0.00193374       0.00496923
C        1.21486039       7.78645651       3.77810220      -0.00205560      -0.00333814       0.00123094
C       -0.00121055       9.96334811       3.81554800      -0.00522615       0.00394580      -0.00179545
C        7.42868535       1.39871550       3.82120086       0.00339835      -0.00095985       0.00317790
C        6.23467538       3.52331740       3.97551576      -0.00294146      -0.00853692       0.00480983
C        5.03113339       5.65068700       4.09852232       0.00090483       0.00201585      -0.00887289
C        3.69184350       7.84472302       3.98386576       0.00992030      -0.00040769      -0.01112459
C        2.46987316       9.94655535       3.81126982      -0.00615309       0.00346559      -0.00099259
C        9.88327659       1.41384340       3.64861584       0.00182167      -0.00018694      -0.00277414
C        8.65188213       3.55070995       3.74783348       0.00044090       0.00196009      -0.00112873
C        7.42906389       5.69405996       3.92694284      -0.00251054       0.00509881      -0.00053715
C        6.17327873       7.84157163       3.96964936       0.00511263      -0.00151530      -0.00089558
C        4.93707143       9.96726989       3.81449412      -0.00129900      -0.00300723      -0.00326726
Pd       2.37284145       4.94491687       4.08458451       0.00389402      -0.00177448      -0.01767012
