49
Lattice="12.336457 0.0 0.0 -6.168228499999997 10.683685154694365 0.0 0.0 0.0 15.0" Properties=species:S:1:pos:R:3:forces:R:3 energy=-425.8676314611532 free_energy=-425.8676314611532 stress="-0.00016218293249020026 -0.003931206571748054 -6.629464677714263e-06 -0.003931206571748054 -0.005174763515250008 -6.649157832942522e-06 -6.629464677714263e-06 -6.649157832942522e-06 -1.7051353561418532e-06" pbc="T T T"
C        0.01131348      -0.01894803       3.85802983       0.00343022       0.00053824      -0.00589163
C       -1.25099761       2.10396091       3.81494406      -0.00375652       0.00628885       0.01115396
C       -2.47663798       4.25118936       3.82666483       0.01582438       0.00026973      -0.00270340
C       -3.68559806       6.38648771       3.85319497       0.00115622      -0.00587674      -0.00444504
C       -4.91884729       8.52094830       3.90585897      -0.00170640      -0.01203858      -0.00939855
C        2.46669640      -0.01809688       3.74283368       0.00419133      -0.00423716       0.00029633
C        1.19020899       2.09654743       3.68318108      -0.00514355      -0.00243293       0.00970221
C       -0.03996661       4.17160607       3.79578296       0.00281653      -0.00711792       0.00351369
C       -1.18423933       6.34976277       3.77163155      -0.00021928       0.00651330       0.00571070
C       -2.43576983       8.50455864       3.78380523      -0.00097737       0.00517974      -0.00341996
C        4.93133819      -0.02585836       3.63672558      -0.00029625      -0.00692183      -0.00268109
C        3.67190097       2.06168824       3.30403385       0.00083509      -0.00423255       0.00055296
S        1.60898296       6.20120230       3.24260548       0.00066869       0.00520984      -0.00203905
C        0.02764555       8.50929635       3.68012675       0.00480353       0.00988025       0.00491095
C        7.38545138       0.00949435       3.71103359       0.00100456      -0.00452452      -0.00588468
C        6.14207272       2.13927579       3.51370560       0.00002483      -0.00528492      -0.00162212
C        4.98200802       4.31894066       3.36945857      -0.01086215       0.00889405      -0.00044534
B        3.60070595       6.40027822       4.03087313       0.00760823       0.00222628      -0.00575058
C        2.48936696       8.59365347       3.83283762      -0.00397046      -0.00324876      -0.00101191
C        9.87136320       0.00798985       3.84817907      -0.00178052       0.00733320       0.00033183
C        8.61280991       2.13192847       3.74983150       0.00071046       0.01066192      -0.00830003
C        7.39676803       4.26637178       3.72124078       0.00148074       0.00553037      -0.00051954
C        6.16326898       6.39422788       3.85648771      -0.00079790       0.00157545      -0.00092812
C        4.94955368       8.54955381       3.95432671      -0.00733109      -0.00537749      -0.00660585
C       -0.00472081       1.40583726       3.78917265      -0.00802260       0.00539814       0.00392707
C       -1.25730573       3.51063727       3.82617549       0.00653833      -0.00099479       0.01205796
C       -2.44456304       5.66532602       3.82821599       0.00476429      -0.00241708       0.00069910
C       -3.67886935       7.80704668       3.86034433       0.00063309      -0.00563576      -0.00750173
C       -4.92430555       9.95091450       3.85838773       0.00373886      -0.00761445      -0.00391046
C        2.43883836       1.40978183       3.58761204      -0.00095318      -0.00159270       0.00661734
O        1.15802333       3.46634698       3.80455841      -0.00064005      -0.00218805       0.00318435
C        0.02131901       5.56439425       3.75875062      -0.00724049      -0.00674398       0.00221345
C       -1.19512067       7.78075846       3.73660602       0.00334994       0.01398733       0.00862253
C       -2.45961002       9.94067633       3.72224221       0.00111146      -0.00135469       0.00102022
C        4.91290225       1.40946114       3.48123180       0.00022058      -0.01268589       0.00439514
S        3.63577827       3.62200084       2.55453325      -0.00577178      -0.00765355      -0.00173380
C        1.29639552       7.86817934       3.67716627      -0.00078888      -0.00394826       0.00071773
C        0.00275782       9.95314576       3.67903496       0.00160741       0.00211585       0.00214399
C        7.37110048       1.43360255       3.66279229       0.00328686      -0.00300272      -0.00168448
C        6.16812392       3.55580176       3.52415062      -0.00672160       0.00236391      -0.00052640
C        4.93045606       5.67545199       3.71651291       0.00258746       0.00850030      -0.00306037
C        3.69799437       7.90621474       3.94002580      -0.00621782      -0.00281973       0.00383731
C        2.46113099      10.01638697       3.80926699      -0.00082683      -0.00253989      -0.00012529
C        9.85704437       1.42124872       3.81047618      -0.00421787       0.00929958       0.00800488
C        8.62138119       3.54811145       3.77486632       0.01024583       0.01059193      -0.00791443
C        7.40883125       5.68395114       3.82050073       0.00005384       0.00228789      -0.00223688
C        6.18190088       7.81812169       3.94435918      -0.00631687      -0.00550613      -0.00781378
C        4.94263229       9.97749068       3.90458725       0.00075945      -0.00153559      -0.00050464
Pd       2.22587945       5.88160164       5.39575641       0.00110726       0.00488047       0.00504541
