49
Lattice="12.336457 0.0 0.0 -6.168228499999997 10.683685154694365 0.0 0.0 0.0 15.0" Properties=species:S:1:pos:R:3:forces:R:3 energy=-430.964768833805 free_energy=-430.964768833805 stress="-0.0064878694043430185 -0.00571178910847983 6.676257445929982e-07 -0.00571178910847983 -0.0003682077991135323 -5.183750657213308e-06 6.676257445929982e-07 -5.183750657213308e-06 -5.10280442487775e-07" pbc="T T T"
C       -0.00436325      -0.01514760       3.77197081      -0.00002967       0.00654174       0.00137015
C       -1.27999646       2.09701224       3.74663192      -0.00055716      -0.01028779       0.00999511
C       -2.48266516       4.25755207       3.68602315       0.01510702       0.00641216       0.00729868
C       -3.66222074       6.41600870       3.66145709       0.00524690       0.00274339      -0.00803364
C       -4.89643766       8.56459595       3.72375322      -0.00751530      -0.00364669      -0.00408943
C        2.46137219       0.02016702       3.89121111      -0.00426278      -0.00509235      -0.00530410
C        1.15257831       2.10373402       3.94343099      -0.00085315      -0.00026316      -0.01161449
C       -0.09896570       4.19135525       4.01501777       0.00222842       0.00462333       0.00489291
C       -1.22668352       6.37556112       3.92023000      -0.00266324       0.01040332       0.00429864
C       -2.44295203       8.54557362       3.86875153       0.00583534      -0.00056742      -0.00683155
C        4.92584243       0.01139643       3.80489645       0.00173924       0.00119345      -0.00371967
C        3.64369870       2.12784521       3.61395434       0.00433158      -0.00041115      -0.01211569
B        1.21389236       6.35483113       4.29959474      -0.01217372      -0.00455458      -0.00039131
C        0.01259917       8.53532932       3.95830236      -0.00366252      -0.01003646      -0.01030506
C        7.39048118      -0.01711675       3.72828322       0.00034110      -0.00320197      -0.00001457
C        6.13943017       2.14480503       3.51908813       0.00200648      -0.00037605      -0.00631690
C        5.02779469       4.36714103       3.27870415      -0.00562597       0.00547533       0.00420857
N        3.88151574       6.42861707       3.74055591      -0.00204548      -0.00128783       0.00321204
C        2.48438290       8.50247742       3.86044341       0.00032937       0.00072526      -0.00020436
C        9.85118601      -0.03329799       3.69655042       0.00537170      -0.00073851      -0.00474818
C        8.60791222       2.11916278       3.59915623       0.00754392       0.00595478      -0.00399425
C        7.42405580       4.28470411       3.47118240      -0.01574623      -0.00673175       0.00981343
C        6.25779126       6.46568314       3.45453679      -0.00214897      -0.00492961      -0.00624119
C        4.96684470       8.54145958       3.65582619      -0.00148715       0.01001630      -0.00153061
C       -0.03646554       1.40531466       3.82078375      -0.00286017      -0.00129310       0.00515258
C       -1.28316537       3.50828528       3.78776122       0.00787456      -0.00783734       0.01610570
C       -2.45371809       5.67963283       3.74581082       0.00833185       0.00783512       0.00911481
C       -3.66674493       7.84088199       3.75590554       0.00224822       0.00255436      -0.00637791
C       -4.92579013       9.98443085       3.82023802      -0.00840585      -0.00402154       0.00535855
C        2.42105793       1.45524530       3.87692023       0.00040218      -0.00194875      -0.00204266
O        1.04829774       3.45316391       4.25988980      -0.00400971      -0.00304840       0.00443337
C       -0.05216167       5.59294824       4.07550626      -0.01075372       0.00715477      -0.00469417
C       -1.21184943       7.81276341       3.93358409      -0.00239976      -0.00152705       0.00712138
C       -2.46404564       9.98239214       3.87599949       0.00260816      -0.00080621      -0.00294551
C        4.89785968       1.45171749       3.63901814       0.00531146       0.00480968      -0.00307184
S        3.47976007       3.72691344       2.96518382       0.00807880      -0.00925341      -0.01194170
C        1.25833190       7.83342575       4.03818014      -0.00143825      -0.00183174      -0.00284232
C       -0.00611008       9.96896255       3.83156899      -0.00280233      -0.00819599       0.00275278
C        7.36922247       1.41565131       3.60323039       0.00744794       0.00278327       0.00233071
C        6.17959606       3.57505825       3.39535149      -0.01478643      -0.00513319       0.00172926
C        5.03592791       5.77292933       3.41013276      -0.00178226      -0.00116178       0.00532999
C        3.75026323       7.78780118       3.74566533       0.00152312       0.00018428       0.00594882
C        2.46142238       9.93567775       3.74664548       0.00461186       0.00224971       0.00708190
C        9.83890999       1.39475297       3.66827897       0.00251936      -0.00587712       0.00635901
C        8.62753536       3.54827571       3.56939294       0.00111346       0.00957675       0.00993670
C        7.45511763       5.71126069       3.50102838      -0.00174170      -0.00496387      -0.00525660
C        6.21692805       7.86776713       3.59875010      -0.00842264      -0.00151698      -0.00491064
C        4.93032603       9.95358746       3.70584114       0.00550403       0.01146965       0.00094446
Pd       2.65979446       5.13025958       4.67449992       0.01051808       0.00783511      -0.00525120
