49
Lattice="12.336457 0.0 0.0 -6.168228499999997 10.683685154694365 0.0 0.0 0.0 15.0" Properties=species:S:1:pos:R:3:forces:R:3 energy=-434.2094533931493 free_energy=-434.2094533931493 stress="-0.009877535276397158 0.0008012648807763805 -1.7947891539581807e-06 0.0008012648807763805 -0.002590061892941638 -7.133458704377843e-06 -1.7947891539581807e-06 -7.133458704377843e-06 1.8075912331879063e-06" pbc="T T T"
C        0.00216674       0.01533915       3.80410784      -0.00445379      -0.00533019       0.00625372
C       -1.25075133       2.11647572       3.90901388      -0.00171401       0.00437801      -0.00096142
C       -2.49292109       4.26472927       3.82016550      -0.00277227       0.01021197      -0.00027577
C       -3.70549918       6.41693217       3.66207962      -0.00584655       0.00445814       0.00327972
C       -4.93945456       8.56289887       3.62871631       0.00022117      -0.00187859       0.00088054
C        2.46670385       0.04278270       3.82536381      -0.00473613       0.00447662       0.00253439
C        1.22643597       2.18182989       4.00416879       0.00467818      -0.00775905       0.00377231
C       -0.08393359       4.24846340       4.08478955       0.00932226      -0.00417571       0.00117521
C       -1.28017263       6.41821579       3.94213888      -0.00021259       0.00137065       0.00055461
C       -2.47857727       8.56472983       3.80725497      -0.00232702       0.00088662       0.00898367
C        4.93794634       0.00704005       3.81849734      -0.00265057      -0.00012835      -0.00180664
C        3.72249689       2.17869279       3.78972945       0.00783168       0.00047670      -0.00333823
B        1.20466742       6.36628288       4.13073140       0.00665327      -0.00741896      -0.01194143
C       -0.00729986       8.54213281       3.93145404       0.00278794       0.00736744      -0.01180790
C        7.40457680      -0.01255931       3.84228621       0.00228827       0.00409892      -0.00088614
C        6.19268992       2.11018825       3.64692990       0.00211195      -0.00299342       0.00482399
C        5.00993630       4.23027001       3.36145311       0.00144714      -0.00099050      -0.00242583
S        3.56667796       6.38700186       2.65021980      -0.00484797      -0.00859263      -0.01610969
C        2.46933871       8.54500597       3.80000541      -0.00483940       0.00226712       0.00035190
C        9.87280144      -0.01227533       3.81195785      -0.00426309       0.00097668       0.00320081
C        8.63988056       2.11811069       3.75728284      -0.00201559      -0.00051611       0.00132291
C        7.43240047       4.26108754       3.52861711       0.00328682      -0.00590300       0.00379233
C        6.19733966       6.41544797       3.33802990       0.00625465      -0.00420254       0.00803576
C        4.94143761       8.55065428       3.54658100      -0.00024946      -0.00109359      -0.00413503
C       -0.01239416       1.43173061       3.92250377      -0.00212695      -0.00478005       0.01491784
C       -1.29186232       3.52857081       3.95208661       0.00033360       0.00796194      -0.00286116
C       -2.49801326       5.69646848       3.81110165      -0.00767322       0.00967982       0.00615277
C       -3.70615453       7.84819659       3.69110377      -0.00258625       0.00112748       0.01376367
C       -4.93126354       9.99513132       3.75730888      -0.00295053      -0.00112682      -0.00802183
C        2.47134465       1.47454793       3.89949601       0.00751168       0.00339991       0.00396708
C        1.12822000       3.56549804       4.16125692       0.01053286      -0.00700037      -0.00968327
C       -0.10500305       5.66093859       4.08061870       0.00194262      -0.00333602      -0.00472902
C       -1.25194741       7.84425072       3.90362017       0.00161557       0.00426788       0.01105854
C       -2.47372223       9.99376254       3.81665465      -0.00677690       0.00177996       0.00371880
C        4.95864500       1.42369468       3.73876694       0.00330483      -0.00351464      -0.00649936
C        3.84595423       3.56069043       3.69529620       0.00036843      -0.00019367      -0.00301759
C        1.24047367       7.84705818       3.94177770      -0.00329997      -0.00260406      -0.01223387
C       -0.00193063       9.96857054       3.86561659       0.00236569       0.00867966      -0.00034716
C        7.41705694       1.40101673       3.74699289       0.00014422      -0.00005266       0.00164252
C        6.23269932       3.51703310       3.47170112       0.00126459      -0.00448079       0.00033764
C        5.03957139       5.64191584       3.14991148       0.00108172       0.00274490       0.00502817
C        3.68563866       7.89302466       3.47881822      -0.00284885       0.00237673      -0.00193325
C        2.47290393       9.96967856       3.84267998      -0.00279419       0.00219627       0.00382508
C        9.86124893       1.40499101       3.83446224      -0.00279501       0.00140768      -0.00557949
C        8.63884092       3.54425231       3.69564723       0.00178941      -0.00049190       0.00994254
C        7.42403007       5.69267046       3.50085193       0.00557727      -0.00639754      -0.00544243
C        6.17278515       7.84511393       3.46434847       0.00435375      -0.00351793      -0.00017696
C        4.94074446       9.97307210       3.73767748      -0.00497833      -0.00193228       0.00419043
Pd       2.57063997       4.93719371       4.35284547      -0.00931097       0.00382029      -0.01329349
