49
Lattice="12.336457 0.0 0.0 -6.168228499999997 10.683685154694365 0.0 0.0 0.0 15.0" Properties=species:S:1:pos:R:3:forces:R:3 energy=-427.0148755957449 free_energy=-427.0148755957449 stress="-0.005870297479190129 5.3703061616320184e-05 -3.080130709426847e-06 5.3703061616320184e-05 -0.004803931472799093 -1.0252975514619371e-05 -3.080130709426847e-06 -1.0252975514619371e-05 -3.7171425595730558e-06" pbc="T T T"
C       -0.00481878      -0.00781860       3.99017641      -0.00269394       0.00160949      -0.00720252
C       -1.24051365       2.12948668       4.01027924      -0.00312800       0.00287726      -0.01489307
C       -2.47933880       4.27059667       4.14361372       0.00311362      -0.00045204      -0.00338877
C       -3.70274659       6.41539103       4.16286388       0.00626428       0.01291314       0.00911518
C       -4.94067661       8.54405767       4.01903333      -0.00677661      -0.00083397       0.00249517
C        2.46678182      -0.01260378       3.96969923       0.00202398       0.00084211       0.00281965
C        1.22710191       2.08664606       3.69731903      -0.00303728       0.01556017      -0.00190970
C       -0.11223248       4.29276959       3.55465693      -0.00805556      -0.00397975      -0.00928717
C       -1.28727228       6.42587272       3.81652286       0.00033451      -0.01231272       0.00039868
C       -2.46334248       8.54554712       4.02957682       0.00067428      -0.00965698       0.00396570
C        4.93870341      -0.00616555       3.99378570      -0.00415160       0.00116935      -0.00870700
C        3.70714105       2.08678531       3.68391295       0.00448001       0.00605843       0.00858150
S        0.93023711       6.51829076       2.32884774       0.01442709      -0.00295995      -0.00033319
C       -0.00739107       8.55365433       3.72754298      -0.00486473      -0.00733795       0.00641851
C        7.40691948      -0.01018967       3.98259456      -0.00541964       0.00448642       0.00047324
C        6.17565405       2.12969673       3.98847978       0.00461931      -0.00221862      -0.00432444
C        5.05288152       4.29040235       3.50791375      -0.00818769      -0.00278398       0.01551811
S        3.99283630       6.51990459       2.30647056      -0.00686115       0.01502640      -0.00209863
C        2.46595578       8.56948619       3.45381023       0.00386138       0.00325267      -0.00008523
C        9.86428311      -0.01070283       3.98069150       0.00086443       0.00551868       0.00020171
C        8.63529074       2.12557388       4.15778315       0.00278423       0.00109413      -0.00023844
C        7.41357942       4.27000666       4.11995868       0.00534845       0.00509034      -0.00010077
C        6.22228319       6.42457643       3.78246604      -0.00117467      -0.00851219      -0.00365519
C        4.94033956       8.55271870       3.70758213       0.00989957      -0.00491885       0.00513202
C       -0.00875250       1.41520004       3.91314138      -0.00145598       0.00831679       0.01235778
C       -1.26412091       3.55452608       3.95484157       0.00142705       0.00079891      -0.00950687
C       -2.48357991       5.69666877       4.10954490       0.00074776      -0.00110295      -0.00240866
C       -3.70214422       7.83554962       4.09218747      -0.00440476       0.00850571       0.00582320
C       -4.93749487       9.96870242       4.00781186      -0.00227207      -0.00127314      -0.00752728
C        2.46709838       1.40037655       3.77449573       0.00062346       0.01560889       0.00508765
B        1.15748792       3.53127063       3.31588811       0.00073126      -0.00693875      -0.00318926
C       -0.19427265       5.68218349       3.35596643      -0.00834221      -0.00686093      -0.00136213
C       -1.24467105       7.84396274       3.84126021      -0.00305273      -0.01333184      -0.00345554
C       -2.46538182       9.97008374       4.01166798       0.00033955      -0.00940327       0.00111097
C        4.94296321       1.41593016       3.90254314       0.00344692       0.00397994      -0.00169749
B        3.77980337       3.52809292       3.29012736      -0.00712618      -0.01277775      -0.00193583
C        1.19582454       7.92930617       3.30477593      -0.00171952      -0.00365387      -0.01033157
C        0.00330126       9.96967885       3.94313770      -0.00751074       0.00046194      -0.00428509
C        7.40379694       1.41478069       4.08957833       0.00441047      -0.00009365       0.00184904
C        6.20151834       3.55355571       3.91767756      -0.00301140      -0.00111709       0.00263180
C        5.13303660       5.68067441       3.31315542      -0.00170357      -0.00157138      -0.00248869
C        3.73457691       7.92882623       3.28937733       0.01276184       0.00832651       0.00022282
C        2.46721534       9.96448436       3.84910495      -0.00183595       0.00606962       0.01031456
C        9.86702364       1.41397001       4.09870879       0.00053786       0.00288037      -0.00673894
C        8.63493927       3.55200082       4.20002081       0.00355726       0.00147995       0.00480555
C        7.41622973       5.69581865       4.08667251       0.00937200       0.00824393       0.00393926
C        6.17791559       7.84281031       3.81850785       0.00398867      -0.00981477      -0.00386894
C        4.93078323       9.96832241       3.93171926       0.00086499      -0.00371615       0.01097851
Pd       2.46264124       4.71779032       2.42722579      -0.00471825      -0.01254859       0.00077979
