49
Lattice="12.336457 0.0 0.0 -6.168228499999997 10.683685154694365 0.0 0.0 0.0 15.0" Properties=species:S:1:pos:R:3:forces:R:3 energy=-436.44296619543843 free_energy=-436.44296619543843 stress="-0.006556475169005158 0.00036171090162845446 5.806676199891006e-07 0.00036171090162845446 0.0025877654299365054 -1.9476031208015317e-06 5.806676199891006e-07 -1.9476031208015317e-06 8.27659361120217e-07" pbc="T T T"
C       -0.00197385       0.01160341       3.85901933      -0.00404277      -0.00474898      -0.01511993
C       -1.24973358       2.11854364       4.05194840      -0.00639921      -0.00102221      -0.00370935
C       -2.48587883       4.27013996       4.10615917      -0.00562108       0.00401368       0.00788314
C       -3.70719152       6.42044967       3.96085859       0.01085888       0.00540503      -0.01370718
C       -4.93526743       8.56857072       3.78451296       0.00285584       0.00140865       0.00287018
C        2.46275292       0.06289634       3.79807622       0.00684732      -0.00656387      -0.00913641
C        1.20347908       2.18458548       3.81753556       0.00782224       0.00447635       0.00558616
C       -0.05969447       4.24805289       3.99103920      -0.00599361       0.01155280       0.00772146
C       -1.26570600       6.42548066       4.00948219      -0.00448848      -0.00053510      -0.00608069
C       -2.48550919       8.57542620       3.90157814       0.00674229      -0.00985455       0.00134217
C        4.92854237       0.01104302       3.81054771      -0.00304720       0.00426494      -0.00211319
C        3.72576627       2.19405116       3.61662977       0.00322323       0.00924647       0.00233388
C        1.12452880       6.37897532       3.59074072      -0.00585466      -0.00564145      -0.01743169
C       -0.01934319       8.53154253       3.80291848      -0.00400251       0.00235811       0.00318034
C        7.40290354      -0.03268016       3.85762028       0.00650033       0.00676430      -0.00440304
C        6.18703670       2.11414205       3.81021919      -0.00716391       0.00257982       0.00932580
C        5.03860986       4.22236396       3.41854998      -0.00854556      -0.00567540       0.00776276
P        3.78489608       6.43901554       2.29883223       0.00603308       0.00860202       0.00158260
C        2.46571025       8.51237104       3.57337482      -0.00238123       0.00018245       0.00932960
C        9.86120718      -0.02728289       3.87646415       0.00708640      -0.00573856      -0.00500541
C        8.63266552       2.11399464       4.01088973       0.00598312      -0.00343103      -0.00369318
C        7.42411676       4.26551227       3.89086131      -0.00169557      -0.00201100       0.00878935
C        6.21238949       6.40717943       3.56748434      -0.00033715      -0.00305455       0.00147029
C        4.94834798       8.55680422       3.57411363      -0.00236763      -0.00179145      -0.00578366
C       -0.01255057       1.43234144       3.93879586      -0.00126035      -0.00317730       0.00418838
C       -1.27237509       3.53796956       4.11907556      -0.01106242       0.00395902      -0.00199023
C       -2.48233202       5.70386614       4.06216254       0.00131203       0.00182879       0.00449413
C       -3.70788915       7.85357501       3.89387377       0.00707918       0.00166342      -0.00543949
C       -4.93116688      10.00489410       3.81375258       0.00114750      -0.00047182      -0.00856832
C        2.46525522       1.50007523       3.72921320       0.00932998       0.00095054       0.00255356
N        1.07798596       3.54808115       3.77959973       0.00447182       0.01156568       0.00216200
C       -0.03856807       5.69085729       3.90844527      -0.00460512       0.00816241       0.00584736
C       -1.25303113       7.84700134       3.91958306      -0.00094347      -0.00711695      -0.01272960
C       -2.48051007      10.00506079       3.82845636       0.00502937      -0.01042255       0.00699325
C        4.94286061       1.43325695       3.74536486      -0.00596555       0.00681351       0.00126354
N        3.85209352       3.54528010       3.36813184       0.00065509       0.00041808       0.00776011
C        1.21401069       7.78134884       3.63546877      -0.00442754      -0.00266423       0.00683599
C       -0.00817118       9.95433256       3.82374319       0.00054574       0.00736386       0.00070123
C        7.40790839       1.39303490       3.91478113       0.00029626       0.00511658       0.00235735
C        6.22486983       3.52659513       3.73540163      -0.01050509      -0.00103524       0.00691896
C        5.07913876       5.63666844       3.22328877      -0.00013024      -0.00746090      -0.00938310
C        3.70843709       7.88712720       3.32356937      -0.00449373      -0.00276763      -0.00447185
C        2.46349323       9.93272075       3.79608659       0.00664778       0.00226695      -0.00938030
C        9.85915138       1.39667132       4.01054424       0.00257121      -0.00684139       0.00704765
C        8.63474167       3.54581767       4.03938556       0.00165745      -0.00410255       0.00585971
C        7.42080586       5.69464160       3.83823602       0.00729598       0.00212962       0.00626356
C        6.18465841       7.84611249       3.61562223      -0.00248868       0.00099482       0.00199559
C        4.93438056       9.96758277       3.79579837      -0.00030847      -0.00701552      -0.00700917
Pd       2.40154157       4.94085522       3.11688295      -0.00386093      -0.01094365       0.00273568
