49
Lattice="12.336457 0.0 0.0 -6.168228499999997 10.683685154694365 0.0 0.0 0.0 15.0" Properties=species:S:1:pos:R:3:forces:R:3 energy=-436.3609561936437 free_energy=-436.3609561936437 stress="-0.007022501485639847 -0.00023580337589137524 5.881454866786614e-06 -0.00023580337589137524 0.003873888271219383 -1.2740129688728444e-05 5.881454866786614e-06 -1.2740129688728444e-05 4.167027083553176e-06" pbc="T T T"
C       -0.00544260       0.01064268       3.82937526       0.00065249       0.00100823       0.00411575
C       -1.25285954       2.11462580       3.94962460      -0.01082849       0.00121570       0.00058365
C       -2.48428783       4.26259450       4.09684408       0.00590399       0.00474919       0.00074959
C       -3.69935776       6.42214095       4.04051439       0.00566675       0.00781715       0.00787817
C       -4.92311020       8.57711026       3.90445948      -0.00360643      -0.00511658      -0.00271576
C        2.45986862       0.04824059       3.81105265       0.00250177       0.00321985       0.00647718
C        1.19558638       2.19978875       3.68169454      -0.00277537       0.00263098       0.00292722
C       -0.05075476       4.25333849       3.96776942       0.00805700      -0.00061531       0.00447856
C       -1.27280322       6.42471244       4.14558672      -0.00086962       0.00435790       0.00662131
C       -2.47810102       8.57637211       4.02371279       0.00017774       0.00056707       0.00235026
C        4.93098479       0.00747873       3.80457984      -0.00581620      -0.00314208      -0.01258109
C        3.70219434       2.09910691       3.32871990       0.00525778       0.00032768       0.00939949
N        1.07177681       6.41718051       3.79569808       0.00074615       0.00262664       0.00458540
C       -0.02010573       8.53595718       3.94947764      -0.00752959       0.00588876      -0.00211293
C        7.40328239      -0.04035995       3.81412709      -0.00288684       0.00160590      -0.00353197
C        6.18973601       2.11734441       3.60416566      -0.00325434      -0.00524373      -0.00104140
C        5.11138021       4.31466261       3.16002502       0.00710525       0.00594520       0.00677487
C        3.83174612       6.40277510       3.30143645       0.00337553      -0.01677979       0.01002791
C        2.45221173       8.46657209       3.70644598       0.00558486       0.00012727       0.00635876
C        9.85655762      -0.04440827       3.82437352       0.00233882      -0.00077811       0.01150594
C        8.63029735       2.10902876       3.90329032       0.00166609      -0.00048770      -0.00409433
C        7.43244864       4.26999767       3.81867047      -0.00429521      -0.00057485      -0.00315147
C        6.23865586       6.43928113       3.67961624      -0.00442061      -0.00546503       0.01205010
C        4.94799420       8.53091099       3.71019488      -0.00171928      -0.00413124       0.00150614
C       -0.01617359       1.43738299       3.83415849      -0.00899307       0.00222962       0.00153889
C       -1.26760652       3.53525273       4.05713659       0.00298250       0.00260476      -0.00029867
C       -2.48639204       5.69439440       4.13508892       0.00512654       0.00763051       0.00069611
C       -3.70253940       7.85659846       4.01229959       0.00222804       0.00244107      -0.00435354
C       -4.93117132      10.00367954       3.86060416       0.00172605      -0.00358782       0.00349753
C        2.45818384       1.47545486       3.59876850       0.00159654       0.00330303      -0.01322898
N        1.08902122       3.57232229       3.65011498       0.00078177      -0.00086699       0.00480821
C       -0.06173932       5.70968052       4.03032843      -0.00030842       0.00131826      -0.00383910
C       -1.25151875       7.84976072       4.07001161      -0.00430214       0.00178212      -0.00035145
C       -2.47782157      10.00405995       3.88934818      -0.00142023      -0.00097423      -0.00501231
C        4.94235965       1.42022954       3.57307081       0.00032238      -0.00496132      -0.00353448
P        3.80201563       3.53860114       2.27574841       0.00025530      -0.00267788       0.00311677
C        1.19585174       7.77878608       3.82051699      -0.00157578       0.00538548      -0.00320705
C       -0.00675350       9.95689970       3.86366220      -0.00708016       0.00390233      -0.01137481
C        7.40320993       1.39446719       3.78691304       0.00118934      -0.00090848      -0.01372529
C        6.23432545       3.55064743       3.52760571      -0.00606613      -0.00502288      -0.00439025
C        5.05656132       5.72606566       3.33916608       0.00478974      -0.00266531       0.00212140
C        3.71031516       7.77060854       3.57492122       0.00240130      -0.01335060       0.00014334
C        2.45810495       9.90069326       3.78894256       0.00160161       0.00436686       0.00385061
C        9.85477437       1.38636215       3.91545666      -0.00312342      -0.00263864      -0.00480352
C        8.63295237       3.54257379       3.97221977       0.00369939       0.00214176      -0.00741576
C        7.43207185       5.70327248       3.86326525       0.00095055       0.00291921       0.00699183
C        6.19268508       7.85272553       3.77798014      -0.00595188      -0.00525460      -0.00183734
C        4.93196244       9.94956009       3.80017827       0.00168420       0.00096811      -0.00655455
Pd       2.41681590       5.05337565       3.08575799       0.00645373       0.00216257      -0.01199896
