49
Lattice="12.336457 0.0 0.0 -6.168228499999997 10.683685154694365 0.0 0.0 0.0 15.0" Properties=species:S:1:pos:R:3:forces:R:3 energy=-433.174507790023 free_energy=-433.174507790023 stress="-0.006347750540808825 -0.0027361973719804986 6.119842379923086e-06 -0.0027361973719804986 0.0025697688618229785 9.590022211802852e-06 6.119842379923086e-06 9.590022211802852e-06 3.438784911081007e-06" pbc="T T T"
C       -0.00612350       0.01202973       3.89100327       0.00146425       0.00039925      -0.00120289
C       -1.27110418       2.11316806       3.95563312      -0.00049203      -0.00559130      -0.00303005
C       -2.50299404       4.25922142       3.94502260       0.00958937       0.00590661      -0.00113864
C       -3.69599797       6.41953792       3.87276953      -0.00752112      -0.00230828       0.00069065
C       -4.92147492       8.57312911       3.85614358      -0.00038396      -0.00121070      -0.00764335
C        2.47139815       0.02909533       3.84476205       0.00666732       0.00150901      -0.00047971
C        1.21449486       2.17330677       3.89225012      -0.01064467       0.01199911       0.00086878
C       -0.06663052       4.25459717       4.07766938      -0.00792456      -0.00295007       0.01379541
C       -1.27122106       6.41808578       4.00002559       0.00245745       0.00984364      -0.00027689
C       -2.46813025       8.56372582       3.89582096       0.00348390      -0.00691310      -0.00140735
C        4.93710337      -0.00440689       3.70561416       0.00468011      -0.00186777       0.00330572
C        3.67374898       2.09265883       3.37064782       0.00276961      -0.01013040       0.00477804
C        1.15403938       6.36871939       4.03171929      -0.00583767      -0.00554641       0.00274037
C        0.00479676       8.51517144       3.85937740       0.00003845       0.00458312      -0.00203496
C        7.40228017      -0.03715728       3.71160276      -0.00631208      -0.01359897       0.00351402
C        6.15974414       2.13665572       3.48827655       0.00566296       0.00067866      -0.00153309
C        5.04611465       4.37148872       3.13372202      -0.00199083       0.00765999       0.00685306
O        3.85181181       6.46361760       3.35600293       0.00960777       0.00870911       0.00555612
C        2.49935779       8.46385069       3.75699287       0.00120910       0.00028365       0.00305434
C        9.85312913      -0.03609203       3.80781505       0.00082657       0.00594579       0.00077842
C        8.61276962       2.11553406       3.76892021      -0.00517114      -0.00019499       0.00390824
C        7.40560514       4.27988797       3.65720700      -0.00222191      -0.00217775      -0.01169754
C        6.23128872       6.45454128       3.58511801      -0.00137076      -0.00536971      -0.00256468
C        4.95751014       8.54847643       3.73675842       0.00023310      -0.00852180      -0.00133137
C       -0.02508225       1.43185980       3.93920678      -0.00100268       0.00175670      -0.01170395
C       -1.29127552       3.53004530       4.01682496       0.00074292      -0.00899165       0.00181358
C       -2.48719049       5.69271952       3.95693727       0.00159497       0.01243740      -0.00398100
C       -3.69117345       7.85077358       3.88864905      -0.00258462      -0.00360457      -0.00224599
C       -4.92849622       9.99991900       3.89036451       0.00458843       0.00309387      -0.00809082
C        2.46490970       1.46055180       3.73512044      -0.00722977       0.00692104       0.00213492
C        1.13538066       3.55293662       4.04823131      -0.01342759       0.01181495       0.00168403
C       -0.05433680       5.68739655       4.05695226      -0.00201199      -0.00088921       0.01155533
C       -1.23919070       7.83713708       3.92551571       0.00451981       0.00612283       0.00828991
C       -2.46603910       9.98827041       3.82069268       0.00783393      -0.00674436       0.00128391
C        4.93143440       1.42038050       3.50612064       0.00935299      -0.00414898       0.00013936
S        3.61684742       3.59439955       2.48727124       0.00105863       0.01456788       0.00523817
C        1.24498453       7.75087354       3.87513195      -0.00216272       0.00327065       0.00322574
C        0.00238192       9.94251988       3.75124947      -0.00520544      -0.00451661       0.00136725
C        7.38252198       1.40493068       3.65091600      -0.00367462      -0.01206635       0.00639801
C        6.18639523       3.57614029       3.41741346      -0.00337397       0.00421372      -0.00067128
C        5.06957501       5.76539248       3.28322204       0.00528065       0.00838822      -0.00597697
C        3.75478748       7.83175721       3.64734158       0.00182512      -0.00876228      -0.00606421
C        2.46899658       9.90736449       3.75435851      -0.00026607       0.00047371       0.00754193
C        9.83643720       1.39394942       3.85560839      -0.00218558       0.00462756      -0.00313164
C        8.61470217       3.54640643       3.80393052       0.00597886       0.00524646      -0.00466920
C        7.42906100       5.70393549       3.71574548      -0.00610074      -0.00741523      -0.00785671
C        6.20260930       7.86765404       3.73673439       0.00054663      -0.00869286      -0.00227447
C        4.93037129       9.96656670       3.82971956       0.00012256      -0.00215476      -0.00708002
Pd       2.51726559       4.92582572       4.16058663       0.00696105      -0.00608482      -0.00242850
