49
Lattice="12.336457 0.0 0.0 -6.168228499999997 10.683685154694365 0.0 0.0 0.0 15.0" Properties=species:S:1:pos:R:3:forces:R:3 energy=-429.90539269003557 free_energy=-429.90539269003557 stress="-0.009122673197178528 0.0031375991644712327 3.2339453654558725e-06 0.0031375991644712327 -0.001999966632394014 3.031520059672557e-06 3.2339453654558725e-06 3.031520059672557e-06 2.0098806459681867e-07" pbc="T T T"
C        0.00028205       0.00216812       3.82766182       0.00596941       0.00417615      -0.00445303
C       -1.23036235       2.13858265       3.74867705      -0.00277039      -0.00913790      -0.00016766
C       -2.47681511       4.28113278       3.97110024      -0.00025618       0.00419319       0.00314961
C       -3.72030319       6.42145568       4.04311866       0.00075150      -0.01101512       0.00029596
C       -4.95399638       8.55188391       3.90849031      -0.00164561       0.00444293      -0.00174011
C        2.46423980       0.03236984       3.86877581       0.00377141      -0.00156693      -0.00121738
C        1.23613202       2.08287236       3.42422715       0.00518356      -0.00225462       0.00011486
C       -0.15640968       4.34978375       3.35903633       0.00123785       0.00346479       0.01369596
C       -1.30575644       6.45241864       3.86125533      -0.01009810       0.00072254       0.00207677
C       -2.49397295       8.57429374       3.98873376      -0.00044656      -0.00380728      -0.00119492
C        4.93427421       0.00476537       3.92074066      -0.00088870       0.00418225       0.00909135
C        3.74586077       2.17471395       3.71909811      -0.00506119      -0.00286906      -0.00875189
N        1.06967606       6.43530481       3.61512542       0.00561960       0.00718397       0.00117571
C       -0.02380898       8.54310428       3.85569383       0.00116872      -0.00582818      -0.00914880
C        7.41281986      -0.03032244       3.93898960      -0.00248678      -0.00423281      -0.00054071
C        6.20209660       2.10365659       3.94056114       0.00781269      -0.00298447      -0.00729164
C        5.04754851       4.20970884       3.59923077       0.00223361      -0.00421566       0.00861787
S        3.79757501       6.40322452       2.51816854      -0.00627694       0.00972448      -0.00594353
C        2.45820030       8.50719304       3.67598921      -0.00052501       0.00561782       0.00277258
C        9.87094954      -0.02099695       3.87266552       0.00036305      -0.00782674      -0.00677011
C        8.65608408       2.11786962       3.99754336       0.00214286       0.01554306       0.00513132
C        7.43293440       4.25984999       4.00998033      -0.00351115       0.00300833      -0.01208672
C        6.19447792       6.39477345       3.74467990       0.00323495      -0.00013195       0.00790500
C        4.93471501       8.53751747       3.68729885      -0.01118593       0.00162053       0.00123842
C       -0.00018271       1.42912288       3.68436420       0.00318645      -0.00077320      -0.00614390
C       -1.26121074       3.57229800       3.72691578       0.00144856      -0.00382078       0.01279820
C       -2.49807929       5.70711672       3.99785273      -0.00361329      -0.00492324      -0.01292484
C       -3.72155481       7.84877010       3.99993771      -0.00224914      -0.00740692      -0.00186399
C       -4.93736407       9.98795763       3.87684256       0.00350279       0.00646808       0.00006565
C        2.47545687       1.45961293       3.68364248       0.00035736      -0.00436258       0.00016921
S        1.13949885       3.55718979       2.50520762       0.01179280      -0.00786989      -0.00410279
C       -0.11564575       5.75730423       3.57209235      -0.00240964       0.00957660       0.00885614
C       -1.26852320       7.86372103       3.92576507      -0.00222504      -0.00417410       0.00237607
C       -2.47889386       9.99753389       3.94248022       0.00199934      -0.00024736       0.00124000
C        4.95770294       1.42391644       3.86748438       0.00025449       0.00389355      -0.00177031
N        3.86259514       3.53091600       3.63500053      -0.00574251      -0.00016798      -0.00361354
C        1.18751598       7.79165795       3.70439990       0.00733708       0.00845879      -0.00486148
C       -0.00000843       9.96213200       3.91714634      -0.00416653      -0.00719960       0.00860741
C        7.42800324       1.39275874       3.99125036       0.00814681       0.00209821       0.00383410
C        6.23904440       3.51508296       3.88360849       0.00416221      -0.00550395       0.00203369
C        5.08805458       5.61622296       3.38383835       0.00310836      -0.00157836       0.00756977
C        3.69905547       7.88316542       3.42644472      -0.01144870       0.00093874      -0.00523089
C        2.46925522       9.93467712       3.86163831      -0.00156279      -0.00120144       0.00546158
C        9.88854017       1.41518301       3.90228984      -0.00630674      -0.00707525      -0.00099873
C        8.65544837       3.54515870       4.04345231      -0.00336914       0.01776851      -0.00516894
C        7.41136373       5.68576828       3.98189420       0.00252514      -0.00522508       0.00772966
C        6.16487380       7.82834983       3.75756764      -0.00753550       0.00452893       0.00297054
C        4.93317251       9.96463805       3.82700638       0.00481658      -0.00001027      -0.00603974
Pd       2.46283384       4.98097046       3.75975537       0.00365437      -0.00020073      -0.00695179
