49
Lattice="12.336457 0.0 0.0 -6.168228499999997 10.683685154694365 0.0 0.0 0.0 15.0" Properties=species:S:1:pos:R:3:forces:R:3 energy=-433.0624311576885 free_energy=-433.0624311576885 stress="-0.005629900931435375 -0.002292584753135106 -4.723152822782921e-06 -0.002292584753135106 0.0034866392521580637 -6.4334269147677084e-06 -4.723152822782921e-06 -6.4334269147677084e-06 5.838202806250722e-07" pbc="T T T"
C       -0.00657824       0.00741304       3.91688395      -0.00950648       0.00659518      -0.00152600
C       -1.26614780       2.11359111       3.97063971      -0.00273715       0.00052617       0.00773078
C       -2.49708643       4.26283546       3.98765154       0.00305325       0.00302646       0.00375513
C       -3.69589554       6.41833046       3.93528327       0.00209562      -0.00145085      -0.00051644
C       -4.92421862       8.57070655       3.91150422       0.00299360       0.00290768      -0.00503718
C        2.46366525       0.03716186       3.85730517       0.01503708      -0.00530294      -0.00299966
C        1.19207743       2.17767821       3.85099071       0.01024996      -0.00055175      -0.00520985
C       -0.06286362       4.24691493       4.03216246      -0.00083013      -0.00097866      -0.00335953
C       -1.26393406       6.41589051       4.02573771      -0.00115178       0.00504927       0.01011608
C       -2.46560965       8.56550476       3.93895238      -0.00103383      -0.00302642      -0.00387404
C        4.93500666       0.00025078       3.72194545       0.00354010      -0.00062065       0.00227459
C        3.67568717       2.10192453       3.36956982      -0.00288442       0.00720094       0.00170090
N        1.11770352       6.38901638       3.90972593       0.00591633      -0.00651530       0.01533555
C        0.00297693       8.51918502       3.85505370      -0.00419295      -0.01049719       0.00802435
C        7.40481507      -0.03891546       3.73132721      -0.00202201       0.00143792       0.01049948
C        6.17036116       2.13521422       3.51141377      -0.01013604       0.00333828      -0.00513343
C        5.05950423       4.37199560       3.10803388       0.00168146       0.00176676      -0.00439112
O        3.86709861       6.46038296       3.30099240       0.00687570       0.01157720      -0.00081881
C        2.48946459       8.45005876       3.74906156       0.00084152      -0.00503098       0.00416644
C        9.85200940      -0.04252053       3.84424542      -0.00873186       0.00023843      -0.00455163
C        8.61636130       2.11463338       3.80844792       0.00354394       0.00190106      -0.00088390
C        7.41033310       4.27812591       3.69338750       0.00133940      -0.00066023       0.00382767
C        6.23457663       6.45462485       3.62286757      -0.00662195      -0.00403498      -0.01812561
C        4.94911522       8.54036646       3.78830648      -0.00253041      -0.00155101       0.00637411
C       -0.02698202       1.42928679       3.93450772       0.00255029       0.00679877      -0.00215127
C       -1.28275751       3.53490441       4.03115774      -0.00173675      -0.00107824      -0.00421629
C       -2.48195248       5.69075750       4.00801417       0.00357103       0.00384136       0.00052315
C       -3.69253047       7.84997235       3.94721728       0.00318920      -0.00322270      -0.00901553
C       -4.92892833      10.00022346       3.92074963       0.00115056       0.00728775      -0.00092898
C        2.45334830       1.46658859       3.70484422       0.00920149      -0.00814960       0.00516530
N        1.09487589       3.54001024       3.92003651      -0.00395952       0.00107063       0.00151647
C       -0.05063431       5.69737597       4.01944918      -0.00061050       0.00348393       0.00310031
C       -1.23736756       7.83771408       3.95193022      -0.00954790      -0.00072920       0.00049555
C       -2.46949696       9.99431905       3.84685502       0.01255539      -0.00668865      -0.00398017
C        4.93098698       1.42147883       3.51764817      -0.00808489       0.00431601       0.00804079
P        3.63846569       3.58319168       2.37826466      -0.00456049      -0.01523793       0.00400543
C        1.21946967       7.75533643       3.82787884       0.00316651      -0.00771353       0.00809801
C        0.00085105       9.94884251       3.76159145       0.00022775      -0.00756822       0.00327621
C        7.39073570       1.40241531       3.68196738      -0.00384859       0.00616722      -0.00095594
C        6.20096810       3.57553501       3.42794423       0.00034154       0.00128651      -0.00260992
C        5.09323218       5.76784851       3.25341326      -0.00228789       0.00047851       0.00277010
C        3.75129408       7.82816112       3.66756256       0.00239661      -0.00337985      -0.00214435
C        2.46583754       9.89933049       3.77692103      -0.00318336      -0.00186292      -0.00840281
C        9.84212425       1.39392180       3.89084803       0.00040966      -0.00061812      -0.00233327
C        8.61805250       3.54681801       3.84725052       0.00559522       0.00220894       0.00155376
C        7.43144498       5.70256454       3.76744093      -0.00275964       0.00057569      -0.00461982
C        6.20053715       7.86230802       3.79511649       0.00126016       0.00116568      -0.01881439
C        4.92815917       9.96106012       3.87257274      -0.01320632       0.00093941      -0.00375786
Pd       2.52923745       4.93821458       3.76204787       0.00338148       0.01128416       0.00800765
