49
Lattice="12.336457 0.0 0.0 -6.168228499999997 10.683685154694365 0.0 0.0 0.0 15.0" Properties=species:S:1:pos:R:3:forces:R:3 energy=-430.26833302672435 free_energy=-430.26833302672435 stress="-0.003787012204210602 -1.4606929262630717e-06 7.469233849485427e-06 -1.4606929262630717e-06 0.0017686564294638824 -5.7592309319682064e-06 7.469233849485427e-06 -5.7592309319682064e-06 -1.8982914148280354e-06" pbc="T T T"
C       -0.01002491       0.00930987       3.91737906       0.00591367       0.00126558       0.00388147
C       -1.25137317       2.12641713       4.05189873       0.00262861      -0.00534064      -0.00875119
C       -2.48008621       4.27013335       4.06064945      -0.00294654       0.00281866      -0.00365855
C       -3.70062618       6.41608785       3.92422789      -0.00636836      -0.00321596       0.00137897
C       -4.94827645       8.55489201       3.82573154      -0.00165347      -0.00559363      -0.00156290
C        2.45272643       0.02607977       3.89450031       0.00230804       0.00120535       0.00618958
C        1.20681479       2.18735824       3.89562315      -0.00682224       0.00144376      -0.00762162
C       -0.03474575       4.25499800       4.08763879       0.00196662      -0.00383585       0.01300603
C       -1.26149901       6.42021820       4.10526032       0.00573738       0.00247127      -0.00104414
C       -2.48365732       8.55887706       3.99903363      -0.00633187       0.00102226      -0.00425262
C        4.92458401      -0.00037843       3.85291013       0.00491427      -0.00036079       0.00295481
C        3.68272283       2.07385449       3.40914877      -0.00374340       0.00080652       0.00860842
N        1.13155447       6.41453346       3.97220380      -0.00793729       0.00053953       0.00022641
C       -0.01355939       8.52868089       3.98385506      -0.00243563      -0.00847368      -0.00329033
C        7.39099326      -0.02004002       3.89816618      -0.00187206       0.00127828       0.01227728
C        6.17563942       2.12015813       3.59859497       0.00044671       0.00483639      -0.00811143
C        5.15230317       4.28619678       2.91545419       0.00976751       0.00655788      -0.00667213
S        3.67424170       6.48122528       2.38615854      -0.00542232      -0.01051558       0.00462866
C        2.45425724       8.50670239       3.75961752      -0.00024310       0.00171084       0.00196954
C        9.85450279      -0.02169720       3.92428989      -0.00337015       0.00230813      -0.00023747
C        8.62453157       2.12349353       3.92810465       0.00248943       0.00153719      -0.00010117
C        7.43609195       4.26948183       3.69516426      -0.00240698      -0.00806496      -0.00134441
C        6.23902596       6.42967453       3.40926955       0.01156555      -0.00245569      -0.00928670
C        4.93221713       8.54935688       3.61912152       0.00375696       0.00747792       0.00965649
C       -0.01398057       1.43803625       3.98475337       0.00364268      -0.00036813      -0.00736539
C       -1.26131806       3.54635609       4.10596332       0.00157397      -0.00409764      -0.00370741
C       -2.48021006       5.69620657       4.05999457      -0.00041894       0.00743586      -0.00176805
C       -3.71160313       7.84332308       3.92854092      -0.00485841      -0.00287208      -0.00331172
C       -4.94601633       9.98646393       3.89882220       0.00332997      -0.00257849       0.00471784
C        2.45438849       1.45907314       3.75846284      -0.00533162       0.00340249       0.00782465
N        1.13176915       3.55158341       3.97146798      -0.01156011       0.00160938       0.00335392
C       -0.03496728       5.71138867       4.08799885       0.00427660       0.00098020       0.00846258
C       -1.25085225       7.84030600       4.05158173      -0.00600259      -0.00034364      -0.00804672
C       -2.48204241       9.98802045       3.92428804       0.00238098      -0.00038025       0.00202352
C        4.93263634       1.41680451       3.62071136       0.00210725       0.00388153      -0.00122348
S        3.67441499       3.48568771       2.38773906      -0.00130078      -0.00072031      -0.00273789
C        1.20660435       7.77866409       3.89535278      -0.00199057       0.00118313      -0.00301593
C       -0.00952131       9.95737065       3.91711152       0.00145307      -0.00771519       0.00484746
C        7.38823422       1.41160502       3.82559058       0.00250801       0.00613916      -0.00479137
C        6.24018324       3.53709654       3.40823134      -0.00319143      -0.00051964      -0.00280525
C        5.15207889       5.68049192       2.91469103       0.00811850      -0.00648606      -0.00074109
C        3.68206226       7.89192824       3.40910057       0.00422585       0.00333907       0.00658344
C        2.45305549       9.93994669       3.89564601      -0.00256040       0.00171798      -0.00144575
C        9.85232568       1.40779233       3.99814736       0.00144173      -0.00475882       0.00184456
C        8.63580805       3.55082358       3.92496705      -0.00600203       0.00311234      -0.00429188
C        7.43558610       5.69811445       3.69546985       0.00425340      -0.00691672      -0.00233995
C        6.17520388       7.84636942       3.59870961       0.00327057      -0.00094630      -0.01014668
C        4.92445093       9.96651456       3.85188761       0.00137293       0.00873609       0.00675805
Pd       2.58074432       4.98296779       3.72548812      -0.00067994       0.00774326       0.00247952
