49
Lattice="12.336457 0.0 0.0 -6.168228499999997 10.683685154694365 0.0 0.0 0.0 15.0" Properties=species:S:1:pos:R:3:forces:R:3 energy=-429.9551837550491 free_energy=-429.9551837550491 stress="-0.004196545997700446 -9.330621982536007e-06 -4.3524412020832364e-06 -9.330621982536007e-06 0.0021298375376365224 3.148696657257066e-06 -4.3524412020832364e-06 3.148696657257066e-06 -8.85289469398211e-06" pbc="T T T"
C        0.00219448       0.01642605       3.89020256       0.00388623      -0.00280063      -0.00559149
C       -1.24456667       2.12464763       4.06375853      -0.00234369      -0.00753053       0.00313439
C       -2.47773995       4.27345155       4.20212548       0.00614911      -0.00031297      -0.00570382
C       -3.70053428       6.42589945       4.12010715      -0.00665011       0.00738533       0.00276248
C       -4.93634524       8.56552071       3.88997789      -0.00578140       0.00408686       0.00650327
C        2.46683488       0.06122598       3.82491218      -0.00108230      -0.00894446      -0.00249394
C        1.19902310       2.18706491       3.70208037       0.00198210       0.00278040       0.00100306
C       -0.08997172       4.23530560       3.68515725      -0.00942226       0.00603429      -0.00476765
C       -1.27077976       6.40931390       3.82290729       0.00119277       0.00031403      -0.00050231
C       -2.46605207       8.56543898       3.88674516       0.00809383       0.00116728       0.01515311
C        4.93128395       0.01607702       3.89103894      -0.00010274       0.00464349      -0.01154999
C        3.73410294       2.18781634       3.70619133       0.00067380      -0.00687989       0.00022229
S        0.98578169       6.40086972       2.39347462       0.00679461      -0.00461311      -0.00481027
C       -0.00960802       8.55411701       3.63091744       0.00148572       0.00096244      -0.00562451
C        7.40586004      -0.01345616       3.91729649      -0.00309034      -0.00391285       0.01143102
C        6.17788728       2.12434102       4.06703001       0.00660597      -0.00140413       0.00480722
C        5.02270593       4.23609938       3.69669107       0.00303871       0.00320167      -0.01013676
S        3.95009316       6.40006687       2.40274536      -0.01312144      -0.00436406      -0.01202212
C        2.46680228       8.56008218       3.40121904       0.00111409       0.00917763       0.00570594
C        9.86403874      -0.01373531       3.91766135       0.00230041       0.00269942       0.01220631
C        8.63514722       2.12161334       4.18769963      -0.00363540      -0.00453578      -0.01206151
C        7.41174170       4.27385508       4.20501232      -0.00037738      -0.01002809       0.00026679
C        6.20479263       6.40974852       3.83143147       0.00140180       0.00416597       0.00313904
C        4.94353924       8.55404501       3.63677074      -0.00332755       0.00147917      -0.00767792
C       -0.01020115       1.43877497       3.91345815       0.00007760      -0.00203633      -0.00853248
C       -1.26837315       3.54182150       4.07338417       0.00333804      -0.00345896      -0.00697017
C       -2.47942004       5.70061660       4.11577381      -0.00025715       0.00496025       0.00242374
C       -3.70096622       7.85060654       3.97739435      -0.00195559       0.00955230      -0.00540477
C       -4.92886989      10.00510515       3.85752417       0.00020199      -0.00400339       0.00672419
C        2.46673471       1.49617412       3.72355682      -0.00057498      -0.00968914      -0.00005143
N        1.05512253       3.52703592       3.44315305      -0.00277972       0.00227923      -0.00237206
C       -0.16666660       5.62851280       3.44470461       0.00834559       0.00735953       0.01601300
C       -1.24515258       7.84267050       3.75854563       0.00551220      -0.00286790      -0.00039307
C       -2.47397176      10.00493445       3.85802792       0.00180906      -0.00064494      -0.00269472
C        4.94326627       1.43861316       3.91599120       0.00828774       0.00376196      -0.00379753
N        3.87777647       3.52878107       3.45223907      -0.00412598      -0.00669325      -0.01126649
C        1.20087118       7.91210552       3.25617521       0.00346047       0.01540527      -0.00330955
C       -0.00074567       9.97636614       3.83891955      -0.00489260       0.00062061      -0.00301482
C        7.40704225       1.40633705       4.09751460      -0.00032720      -0.00824200       0.01195494
C        6.20214154       3.54170726       4.07928354      -0.00465937      -0.00041075      -0.00100767
C        5.09879028       5.62934540       3.45820072      -0.00053961       0.00835119       0.01048397
C        3.73332931       7.91232476       3.26152496      -0.00482565       0.00693971      -0.00713258
C        2.46663945       9.96151561       3.77832731       0.00155807       0.00581281       0.01088716
C        9.86303726       1.40627347       4.09587012      -0.00413621      -0.00368017       0.01712894
C        8.63513068       3.55113359       4.26246821       0.00477072      -0.00639510      -0.01003658
C        7.41432708       5.70116963       4.11991523      -0.00456927      -0.00522079       0.00327733
C        6.17909442       7.84261730       3.76462068      -0.00358526       0.00480223       0.00215220
C        4.93442510       9.97643539       3.84117789       0.00337998       0.00141085      -0.00567314
Pd       2.46780030       4.68173647       2.59381492       0.00070261      -0.01068469       0.00721896
