49
Lattice="12.336457 0.0 0.0 -6.168228499999997 10.683685154694365 0.0 0.0 0.0 15.0" Properties=species:S:1:pos:R:3:forces:R:3 energy=-425.44265984101315 free_energy=-425.44265984101315 stress="-0.006899598615846317 0.004083348816638268 5.388983211580496e-06 0.004083348816638268 -0.001463010915362547 2.1103539890140465e-05 5.388983211580496e-06 2.1103539890140465e-05 -8.404595771714891e-07" pbc="T T T"
C        0.00667603       0.00351084       3.78857302       0.00246427      -0.01316081      -0.00463707
C       -1.21815692       2.14888288       3.69262142       0.00683250       0.00083819       0.00469581
C       -2.46011056       4.28443148       3.94013856       0.00040613      -0.00326865       0.00316651
C       -3.71575673       6.41714259       4.06133652      -0.00016266       0.00599187      -0.00246514
C       -4.94889089       8.54992459       3.92235018      -0.00769495       0.00270881       0.00336180
C        2.47245213       0.03279225       3.89682145      -0.00083176       0.00177728      -0.01209734
C        1.25488535       2.09898220       3.40482556      -0.00935664       0.00059607       0.01008935
C       -0.15152688       4.37438563       3.26345567      -0.00149517       0.00908842      -0.00295280
C       -1.29526451       6.45037652       3.85477392      -0.00133452      -0.00463452      -0.01038686
C       -2.48665971       8.56638453       4.02618959      -0.00021135      -0.00031237      -0.00586191
C        4.93827647      -0.00069887       3.99787925      -0.00585882      -0.00588016       0.00287679
C        3.76947840       2.10716703       3.78734531       0.00502385      -0.00432503      -0.00738759
O        1.01030348       6.51287965       3.21320524      -0.00170538       0.00762526      -0.00689925
C       -0.02351786       8.55089113       3.86240322      -0.00177373       0.00140384       0.00436109
C        7.41982348      -0.02853781       3.95266088       0.00276401       0.00011061       0.00066590
C        6.21500212       2.10105835       4.03526494      -0.00212496      -0.00142807       0.00777424
C        5.08259862       4.20048717       3.69449073      -0.00301183       0.00581922       0.00393283
P        3.74958568       6.31935735       2.57871841       0.01009059       0.00283985       0.00106451
C        2.43313831       8.51329079       3.61696745       0.00383830      -0.01233998      -0.01523633
C        9.87635169      -0.01672766       3.82398856      -0.00107226       0.00148232       0.00398896
C        8.66894050       2.12267710       3.99928192       0.00563389      -0.00058643      -0.01071240
C        7.44248698       4.26171507       4.06531617      -0.00340147      -0.00828624       0.01345527
C        6.19362278       6.38241493       3.79622281       0.00188638       0.00470197       0.00784701
C        4.92814364       8.53291434       3.66910301      -0.00744702       0.00566814       0.00710504
C        0.01846139       1.43661634       3.63576002      -0.00017757      -0.01233804       0.00486794
C       -1.25084919       3.58380010       3.65866248       0.00254195       0.00349697      -0.00691195
C       -2.49293499       5.70416529       3.99668199      -0.00178536      -0.00210595       0.00098639
C       -3.72041019       7.84552044       4.02555003      -0.00405348       0.00827362      -0.00318861
C       -4.93129642       9.98623414       3.87592402       0.00263837      -0.00329818      -0.00463726
C        2.50355008       1.46510980       3.70922368      -0.00092431       0.00228262      -0.00863495
S        1.18235413       3.55737056       2.45433015      -0.00392128       0.01657448       0.00138622
C       -0.17360216       5.76296433       3.43295372       0.00415555       0.00675709      -0.00337590
C       -1.27056363       7.86616086       3.94650896      -0.00015399      -0.00491772      -0.00258468
C       -2.47536317       9.99838012       3.99353548      -0.00588111      -0.00179927       0.00800635
C        4.96177951       1.41982506       3.97031649       0.00189742      -0.00846991       0.00562620
O        3.87535017       3.49362679       3.63912963       0.00259125       0.00156309       0.00751450
C        1.16050091       7.86715230       3.59959260      -0.00066417      -0.00129238       0.01039279
C        0.00583214       9.96879580       3.96377143      -0.00274396       0.00146482       0.00625463
C        7.43367830       1.40013572       4.03094649       0.00378756       0.00345518       0.00510659
C        6.23706322       3.51305547       4.00129672      -0.00749047      -0.00134452      -0.00124800
C        5.05328952       5.58636162       3.51050686       0.00282764       0.00685417       0.01342315
C        3.69155856       7.86560726       3.43825680       0.00613617      -0.00334066      -0.01284312
C        2.46720965       9.94009980       3.82583723       0.00142942      -0.00934599      -0.01286706
C        9.89911057       1.42048009       3.86293489       0.00686101       0.00290999      -0.00631236
C        8.66601787       3.54937843       4.04997748      -0.00015122      -0.00623212      -0.01026353
C        7.40881750       5.68266098       4.01965018       0.00301589      -0.00334396       0.00517850
C        6.16602940       7.81861718       3.78028455      -0.00937604       0.00689667       0.00149698
C        4.93893257       9.96616024       3.77674448      -0.00331425       0.00092696       0.00262292
Pd       2.36099597       4.99456834       3.81240944       0.01129758      -0.00005656       0.00425585
