49
Lattice="12.336457 0.0 0.0 -6.168228499999997 10.683685154694365 0.0 0.0 0.0 15.0" Properties=species:S:1:pos:R:3:forces:R:3 energy=-423.61714679441025 free_energy=-423.61714679441025 stress="-0.004016467922173617 -0.00046422673110953797 -5.67429966109529e-06 -0.00046422673110953797 -0.010297017361366834 1.855036771343514e-05 -5.67429966109529e-06 1.855036771343514e-05 -4.9546201934082596e-06" pbc="T T T"
C        0.00128524      -0.02312347       3.71405226       0.00219256       0.00652344       0.00082522
C       -1.22577648       2.12651013       3.70765913       0.00714451       0.01036400       0.00983699
C       -2.46593831       4.27119588       3.59425626      -0.00895978      -0.00485861      -0.00096076
C       -3.69712559       6.40041214       3.60082587      -0.00391949      -0.00041172       0.00519820
C       -4.94318077       8.51673708       3.71061465       0.00505958       0.00774215      -0.01141110
C        2.47067734      -0.06097345       3.56769529      -0.00150781       0.00209711       0.00113830
C        1.27583305       2.04231115       3.84538059      -0.00190949      -0.01229561       0.00945567
C       -0.07412831       4.26717522       4.06235586       0.00376479      -0.00557032      -0.00113827
C       -1.25537935       6.42139154       3.85473132       0.00159098       0.00806201       0.01124660
C       -2.46048661       8.52752155       3.68232578       0.00105652       0.00314367       0.00638227
C        4.93495852      -0.00965105       3.48994512      -0.00607861      -0.00967537      -0.00187507
C        3.67403128       2.03847814       3.18310927      -0.00405341      -0.00501740       0.00365568
P        1.31866023       6.37235030       4.79773867      -0.00127080       0.01179836      -0.00243904
C       -0.01861870       8.60017549       3.96686128       0.00977630       0.00168367       0.00203300
C        7.39480766       0.03475541       3.62578478      -0.00496320      -0.00912408       0.00044478
C        6.16493607       2.13336583       3.22801323       0.00241797       0.00398682      -0.00934608
C        4.98959906       4.30510555       3.12519544      -0.00425682       0.00342133      -0.01389258
P        3.62202057       6.23684747       4.49372705       0.00350378       0.00499398      -0.00537482
C        2.46389287       8.67320290       4.16948657       0.00096978      -0.00763406      -0.01594201
C        9.87574880       0.02413010       3.71649319       0.00498715       0.00890730      -0.00256216
C        8.64284203       2.14335163       3.45314324      -0.00863731       0.00142171       0.00780662
C        7.41436369       4.27324631       3.36073717      -0.00526825       0.00639080      -0.00269036
C        6.18034714       6.40058183       3.65043533      -0.00381363      -0.01203838      -0.00202395
C        4.93931654       8.55964129       3.94488218       0.00557728      -0.01373285      -0.00100027
C        0.00828545       1.40104782       3.76300361       0.00011577       0.00404051       0.00205082
C       -1.25124183       3.54095551       3.75645220       0.00258610       0.00594316       0.00193074
C       -2.46744165       5.69575791       3.65291933      -0.00179014      -0.00279697      -0.00445179
C       -3.70028124       7.81732291       3.66168042       0.00120526       0.00257855      -0.00170320
C       -4.93893280       9.93289832       3.67965994       0.00116182       0.01025672      -0.00234838
C        2.47757319       1.35148459       3.52845259      -0.00321363      -0.00565685       0.00484168
P        1.37476695       3.54576222       4.69584297       0.00318930      -0.00937491      -0.00194588
C       -0.07912839       5.66532641       4.08713420      -0.00302120       0.00913075       0.00199047
C       -1.23094318       7.84209717       3.84826762       0.00914283       0.01083705       0.00365049
C       -2.45791824       9.94152510       3.56692366      -0.00654111      -0.00197991      -0.00058347
C        4.93076011       1.40917296       3.26297846      -0.00199789      -0.00571798       0.00215161
S        3.49237600       3.64064215       2.57050717       0.00970400       0.01494632      -0.00375357
C        1.22064053       8.01865577       4.33353013       0.00512920      -0.00200365       0.00220526
C       -0.00560214       9.99790316       3.68054329      -0.00171742      -0.00636887       0.01052593
C        7.39637400       1.44018485       3.40429692      -0.00420469      -0.00543759      -0.00262095
C        6.18150957       3.55346123       3.18532026       0.00438631       0.00668756      -0.00270100
C        4.97378606       5.64286268       3.57406976      -0.00113969      -0.00654719       0.00641222
C        3.69238622       7.95147480       4.24523018      -0.00129688      -0.01251695      -0.01147150
C        2.46340462      10.04133882       3.82119260       0.00078687      -0.00147962       0.00139649
C        9.87789722       1.43440644       3.59430895       0.00379405       0.01432394       0.00770558
C        8.64647763       3.56329252       3.43704352      -0.01387802      -0.00189363      -0.00111718
C        7.41011502       5.69095250       3.51226460      -0.00508899       0.00104534      -0.00880980
C        6.15794043       7.81655334       3.80509115       0.00762313      -0.00937097      -0.00728663
C        4.93538037       9.97665068       3.78587894       0.00564064      -0.00161614       0.01136561
Pd       2.54652342       4.99208029       5.95667757      -0.00397820      -0.00720663       0.00519955
