49
Lattice="12.336457 0.0 0.0 -6.168228499999997 10.683685154694365 0.0 0.0 0.0 15.0" Properties=species:S:1:pos:R:3:forces:R:3 energy=-433.7624729397636 free_energy=-433.7624729397636 stress="-0.003805277119772738 0.00471168412628806 3.2930766349906707e-06 0.00471168412628806 0.0047538277305885016 1.3412005853140022e-06 3.2930766349906707e-06 1.3412005853140022e-06 -2.1484878933696514e-06" pbc="T T T"
C       -0.00254071       0.02210791       3.78780993       0.00059535      -0.00689705       0.00479381
C       -1.22655619       2.14573857       3.67848161      -0.00498346      -0.00423717       0.00434919
C       -2.45980511       4.28061143       3.50643111      -0.00273364      -0.00095265       0.00482891
C       -3.71601169       6.42149037       3.51721637      -0.00192235      -0.00032446      -0.00220821
C       -4.95635204       8.56506800       3.68829241       0.00830476       0.00355079       0.00782617
C        2.46397895       0.06132092       3.78822901       0.00322963       0.00544861       0.00401480
C        1.24341617       2.22899768       3.93847665      -0.00082230      -0.00444123       0.00400797
C       -0.02191194       4.32690244       3.79498183      -0.00206236      -0.00603981       0.00315937
C       -1.27503501       6.44400226       3.59045482       0.00113709       0.00137776       0.00656245
C       -2.49642217       8.57380898       3.63006930      -0.00367743       0.00230094       0.00277850
C        4.92939021       0.00359647       3.68283718       0.00043104      -0.00094201      -0.00090347
C        3.76691342       2.12426196       3.88258354       0.00268329       0.00679883      -0.01250400
O        1.03207603       6.47773674       4.11962748       0.00318628      -0.00329065       0.00025843
C       -0.03299065       8.54685276       3.71640603       0.00021348      -0.00684492      -0.00608838
C        7.41089791      -0.03576131       3.67002990      -0.00159215       0.00770579      -0.00662388
C        6.20611903       2.09846768       3.56944895       0.00584514       0.00213388       0.00153959
C        5.04968065       4.21202906       3.71976161       0.00008770       0.00495793      -0.00474981
B        3.72958594       6.30092537       4.15831305      -0.00075220       0.00339391       0.00935094
C        2.42756296       8.48866382       3.88396621      -0.00303959       0.00213807       0.00473576
C        9.86415785      -0.02447934       3.73003400      -0.00270245       0.00124155       0.00708584
C        8.65623710       2.11744516       3.54241820       0.00751596      -0.00305311       0.00563679
C        7.43152547       4.26143808       3.46500905       0.00320087      -0.00551766      -0.00591360
C        6.17420103       6.39028804       3.64803913      -0.00301257       0.00459275       0.00312922
C        4.90889028       8.52354523       3.83354027      -0.00025418       0.00169750      -0.00877606
C        0.01101800       1.45875426       3.80157669      -0.00209397      -0.00943089      -0.01196423
C       -1.23908810       3.57453922       3.61720304      -0.00218715      -0.00327904      -0.01169572
C       -2.48654443       5.70720596       3.50854742      -0.00014231       0.00285921      -0.00305493
C       -3.72899922       7.85298532       3.60058259       0.00240605      -0.00309533       0.00938790
C       -4.93860666      10.00399247       3.76585997       0.00807076      -0.00083278      -0.00020174
C        2.49886646       1.50350299       3.90652206       0.00533582       0.00491477      -0.00734899
C        1.15946754       3.63108331       4.08426711      -0.00748005      -0.01178872       0.00723110
C       -0.09212337       5.74008319       3.76584229      -0.00085725      -0.00491990       0.00305864
C       -1.27657081       7.86368751       3.62995670      -0.00381807       0.00207544      -0.00464994
C       -2.48812714      10.00976683       3.70611521      -0.00173267       0.00348357      -0.00032061
C        4.96027026       1.42064775       3.69068787       0.00380779       0.00417695      -0.01139615
O        3.93096788       3.49589735       4.15640979      -0.01391078       0.01148506      -0.00529531
C        1.15977242       7.83865186       3.87761060       0.00161583      -0.00399529      -0.00582106
C       -0.00372584       9.96560130       3.68007845       0.00044581      -0.00371184      -0.00085293
C        7.42327710       1.39381720       3.57267101       0.00709796       0.00647823       0.00166682
C        6.22377692       3.51178168       3.51426762       0.00083841      -0.00090924      -0.00124933
C        4.99621382       5.60272024       3.78207903      -0.00340773       0.00198052       0.00432543
C        3.67045302       7.80216893       3.95280006      -0.00097327      -0.00003277       0.00243617
C        2.45811827       9.92536990       3.75407735      -0.00316670       0.00564697      -0.00208354
C        9.87787324       1.40677556       3.63621252       0.00155045      -0.00242360       0.00168979
C        8.65577943       3.54803062       3.47497989       0.00370333      -0.00720894       0.00674838
C        7.40411447       5.68833282       3.51191333      -0.00560148      -0.00112689      -0.00240293
C        6.15085867       7.82414598       3.73058029       0.00361065       0.00845964      -0.00120691
C        4.93013110       9.96473263       3.78542694      -0.00492852       0.00116865       0.00351947
Pt       2.51321281       4.88921596       4.90599409       0.00294116      -0.00477135       0.00319030
