49
Lattice="12.336457 0.0 0.0 -6.168228499999997 10.683685154694365 0.0 0.0 0.0 15.0" Properties=species:S:1:pos:R:3:forces:R:3 energy=-437.05518575255417 free_energy=-437.05518575255417 stress="-0.008411715892749774 0.0007016791141585452 5.8987262416304565e-06 0.0007016791141585452 -0.0012223510912848523 4.295588091830303e-06 5.8987262416304565e-06 4.295588091830303e-06 1.290506940721416e-06" pbc="T T T"
C       -0.00441117       0.01918898       3.88589702      -0.00371187      -0.00977741      -0.00269330
C       -1.25131414       2.11955056       4.03413537      -0.00159193       0.00177774      -0.00613719
C       -2.49206540       4.26579382       4.17574000       0.00145634       0.00639798       0.00140520
C       -3.70843698       6.42140659       4.08667179       0.00140435       0.00185744       0.00415190
C       -4.93648115       8.56912647       3.92913637      -0.00244148       0.00217465      -0.00045781
C        2.45983632       0.03393824       3.81836775       0.00361510      -0.00535138      -0.00225613
C        1.21159836       2.18325730       3.66527191       0.00375839      -0.00248621       0.00137898
C       -0.07596934       4.26543522       3.95164123      -0.00249194       0.00108340       0.00912005
C       -1.28005775       6.43206774       4.14056686       0.00261108      -0.00087069       0.00719194
C       -2.48676261       8.57330614       4.04377667      -0.00477040      -0.00143839      -0.00253273
C        4.93223844      -0.00368307       3.81155110       0.00417606       0.01214563      -0.00690431
C        3.71346087       2.05571319       3.26916542      -0.00320892       0.00248984      -0.01124083
C        1.08866736       6.39810783       3.63480490       0.01249834      -0.01107700      -0.00972389
C       -0.01948267       8.53448709       3.91760777      -0.00451329      -0.00304032      -0.00354626
C        7.39931727      -0.02633695       3.86217082       0.00020205      -0.00554399      -0.00167322
C        6.19882140       2.10848141       3.60364564       0.00285773       0.00030483       0.00679431
C        5.16144941       4.28675757       3.03915170       0.00604128       0.00991516       0.00972699
B        3.78306709       6.41355491       3.21536755       0.00048416      -0.00517327      -0.00347377
C        2.45645364       8.51898655       3.69426615       0.00050490      -0.00247622       0.00375744
C        9.85891063      -0.02125321       3.90933735      -0.00189219       0.00487311       0.00034381
C        8.62843113       2.11472532       3.99000799       0.00302446      -0.00128538       0.00600403
C        7.43529041       4.26534835       3.84466091      -0.00505244       0.00116221       0.00373825
C        6.23236812       6.42441415       3.65390420      -0.00781106       0.00556009      -0.00120603
C        4.94642755       8.55854138       3.71923185       0.00352764      -0.00390996       0.00350437
C       -0.01260203       1.44188205       3.88253384      -0.00189672      -0.00904336      -0.00662348
C       -1.27815633       3.53785168       4.12503130      -0.00767408       0.00236466      -0.00046591
C       -2.49306872       5.70090300       4.18599338       0.00651659       0.00643130      -0.00301850
C       -3.71097797       7.85383705       4.04510093      -0.00340702      -0.00117503      -0.00214920
C       -4.93569686       9.99862339       3.89187105      -0.00062153      -0.00354619       0.00374869
C        2.46514954       1.45017575       3.57072571       0.00395232      -0.00797943      -0.01425838
C        1.08609769       3.58253113       3.59033594      -0.01044871       0.00034973       0.00774316
C       -0.07829016       5.70676212       3.96536817       0.00990080      -0.00099772       0.00170639
C       -1.25726504       7.85240575       4.05887090      -0.00886193      -0.00355349       0.00330343
C       -2.47964698       9.99355445       3.90115480       0.00674527       0.00323652      -0.00900787
C        4.95140928       1.40119961       3.55460423       0.00262855       0.01126389      -0.00857959
P        3.82472936       3.47388087       2.17686775       0.00425592      -0.00064136       0.00158290
C        1.20975191       7.79410450       3.74476833       0.00087917      -0.00757628      -0.00054198
C       -0.00798788       9.95511109       3.87612515      -0.00209473       0.00053418      -0.00166107
C        7.40366096       1.40089876       3.84147904       0.00150988      -0.00690634       0.00991916
C        6.26059910       3.53388312       3.49046193       0.00138256       0.00115652      -0.00394180
C        5.10512035       5.68225312       3.24839975      -0.00237032       0.00457851       0.00018636
C        3.70521407       7.86911183       3.55192309       0.00459458      -0.00948174       0.01369563
C        2.45762772       9.94126726       3.84256565      -0.00039684       0.00195233       0.00297731
C        9.85333983       1.39879892       4.01816364       0.00146535       0.00349305      -0.00928284
C        8.63026903       3.54439670       4.05059981       0.00322202       0.00156656       0.00357630
C        7.43119152       5.69769379       3.88820427      -0.00936291       0.00401862       0.00651900
C        6.18424760       7.84972391       3.77289656      -0.00121269       0.00241222       0.00499111
C        4.93527598       9.97480564       3.86244302      -0.00458084       0.00014275      -0.00900742
Pt       2.37604453       5.03197805       2.92215302      -0.00280104       0.01008825       0.00331679
