49
Lattice="12.336457 0.0 0.0 -6.168228499999997 10.683685154694365 0.0 0.0 0.0 15.0" Properties=species:S:1:pos:R:3:forces:R:3 energy=-435.34819332427605 free_energy=-435.34819332427605 stress="-0.002565770125462352 -0.004490643183878539 -6.653346824368738e-06 -0.004490643183878539 0.003525393428836526 -3.9694653668519904e-06 -6.653346824368738e-06 -3.9694653668519904e-06 1.4037160055212992e-06" pbc="T T T"
C       -0.00647067      -0.01175375       3.64548654      -0.00134568       0.00399607       0.00504841
C       -1.27381615       2.09721897       3.54936679      -0.00398359      -0.00245886      -0.00792051
C       -2.48478461       4.25556479       3.46352737       0.00043881      -0.00389127      -0.00315232
C       -3.68136971       6.41354849       3.47829447       0.00761980      -0.00236124      -0.00255477
C       -4.91171190       8.56293510       3.57930916       0.00438538       0.00977167      -0.00385571
C        2.45758460       0.03343579       3.71123245      -0.00410853      -0.00030874       0.00748465
C        1.16569964       2.12386181       3.70376493       0.00291020      -0.00799368      -0.01038527
C       -0.06243527       4.19432821       3.57266766       0.00094682       0.00631842      -0.00848614
C       -1.22515995       6.37567830       3.59911899      -0.00125773       0.00198217       0.00633367
C       -2.45154382       8.54935087       3.63688535      -0.00099020      -0.00183214       0.01003142
C        4.91947990       0.01186892       3.80417164      -0.00637448       0.00340245       0.00109255
C        3.65104290       2.17871610       3.97688499       0.00071630       0.00645267       0.00557314
B        1.19799937       6.31496334       4.15995734       0.00116202       0.00144202       0.00173575
C        0.00395371       8.52542650       3.83973275       0.00175610      -0.00518976      -0.00060625
C        7.39038955      -0.02150465       3.80005895       0.00861065       0.00283876       0.01243528
C        6.14333619       2.14023873       3.77712292      -0.00496420       0.00579654       0.00354245
C        4.99403222       4.33195512       3.88512472      -0.00513820      -0.00000979      -0.00044956
N        3.89153675       6.43708939       4.19824779      -0.01108438      -0.00919227       0.00078947
C        2.47778511       8.49743347       3.96979698       0.00523217      -0.00554639      -0.00231652
C        9.84903884      -0.03586174       3.72057488       0.00900657      -0.00184158      -0.00443764
C        8.60637067       2.11530964       3.60695368      -0.00082129      -0.00142364      -0.00646142
C        7.40413584       4.27522236       3.54431468      -0.00298575      -0.00545285       0.01136968
C        6.21940765       6.44652669       3.58896430      -0.00644815       0.00248402      -0.00982761
C        4.95420063       8.53098865       3.74896098      -0.00445595       0.00087636       0.00229895
C       -0.03197555       1.40928538       3.62200570      -0.00227020      -0.00165136      -0.00488215
C       -1.27012899       3.51156014       3.47969011       0.00225540       0.00015024      -0.00984611
C       -2.46296390       5.68022039       3.47715507       0.00475708      -0.00358444       0.00472290
C       -3.68024995       7.84211607       3.54419208       0.00304577      -0.00009295       0.00233289
C       -4.92772273       9.99008429       3.63814344      -0.00393557       0.00633727       0.00518729
C        2.42680483       1.47188748       3.81510475       0.00589565      -0.00221623       0.00001640
O        1.12381825       3.49158286       3.63789422      -0.00869307      -0.01009673      -0.00728473
C       -0.03701143       5.59646002       3.69566593       0.00103756       0.00877617      -0.00091773
C       -1.22049421       7.81242757       3.69520140      -0.00220118      -0.00235713       0.00234872
C       -2.47344924       9.98621821       3.72299971      -0.00696270      -0.00116857       0.00732439
C        4.89323952       1.45592321       3.87012186      -0.00409588       0.00815867       0.00388298
B        3.70089978       3.68813611       4.27243528       0.01002782       0.00101673      -0.00424691
C        1.24167656       7.81790729       3.99243353       0.00487003      -0.00408933      -0.00771511
C       -0.01351682       9.96517664       3.81974444       0.00173621       0.00154916       0.00301942
C        7.37565184       1.40956695       3.71914160      -0.00176444       0.00584479       0.00720769
C        6.17008158       3.56939148       3.71114586      -0.00596518      -0.00147782       0.00560616
C        5.02257984       5.74986835       3.83903667      -0.00917699      -0.00225999      -0.00389701
C        3.74755883       7.79024881       3.97457437      -0.00453743      -0.01134921       0.00067687
C        2.46002210       9.93204651       3.83101491       0.01310345      -0.00172545       0.00196573
C        9.83955363       1.39228769       3.61264421      -0.00094375      -0.00386964      -0.01015860
C        8.61772869       3.54513405       3.51377282      -0.00079307      -0.00311316       0.00329108
C        7.42587676       5.70345977       3.50049658       0.00223301      -0.00199524       0.00069263
C        6.19560526       7.85407371       3.62219076      -0.00004610       0.01014924      -0.00216322
C        4.92721697       9.94873543       3.69659584       0.00438128       0.00246368       0.00059398
Pt       2.59789024       5.22220967       5.09079811       0.00921562       0.00874238      -0.00503928
