49
Lattice="12.336457 0.0 0.0 -6.168228499999997 10.683685154694365 0.0 0.0 0.0 15.0" Properties=species:S:1:pos:R:3:forces:R:3 energy=-435.13410603200737 free_energy=-435.13410603200737 stress="-0.005692202063451492 0.001291384267616204 -1.4626390868233184e-07 0.001291384267616204 0.0025029147159738004 1.943502889032064e-06 -1.4626390868233184e-07 1.943502889032064e-06 1.0253310488586368e-06" pbc="T T T"
C        0.00710895       0.00169574       3.78922599      -0.00042623      -0.00250702      -0.00491051
C       -1.23869679       2.11860175       3.79470666      -0.00193512       0.00050564      -0.00600992
C       -2.50028238       4.26690860       3.58424583       0.00280089      -0.00117474       0.00367021
C       -3.72128718       6.42033366       3.48920412      -0.00167046      -0.00520828       0.00155866
C       -4.93442249       8.56355916       3.61268813       0.00930754       0.00049470       0.00125480
C        2.48163195       0.04260594       3.72435264      -0.01133755      -0.00504883      -0.01095799
C        1.25575137       2.15079967       4.00663669      -0.00231057      -0.00793286       0.00393949
C       -0.12384810       4.29335838       3.98903361       0.00060297      -0.00133249       0.00029594
C       -1.30224965       6.43158946       3.72844118       0.00450093       0.00236014      -0.00070955
C       -2.47901705       8.56767528       3.62910317       0.00282186       0.00864959      -0.00075846
C        4.93855260       0.00428371       3.65763944      -0.00012539       0.00781002       0.00394439
C        3.75451313       2.14058470       3.71530060      -0.00333509      -0.00382907      -0.00921149
B        1.13406440       6.40724102       4.32494777      -0.00914149      -0.00838126       0.00578477
C       -0.01209173       8.54926957       3.82186202       0.00561639      -0.00471807       0.00352123
C        7.41942236      -0.03180618       3.69543374      -0.00023600       0.00188721       0.00902403
C        6.19133154       2.11455212       3.53161975       0.00577041       0.00049476       0.00111577
C        4.99907846       4.25688212       3.54044996      -0.00066160      -0.00203344      -0.00580160
N        3.82246901       6.36789879       4.00722105      -0.00176009      -0.00260043       0.00493666
C        2.48386590       8.49643201       3.93412817      -0.00385460       0.00053427      -0.00287546
C        9.87660154      -0.03250931       3.76264651       0.00515048       0.00121527      -0.00464951
C        8.64717539       2.11274667       3.58778488      -0.00256980      -0.00092287      -0.00593839
C        7.40294781       4.26766123       3.44143073      -0.00156934      -0.00151828       0.00053727
C        6.17314021       6.40982817       3.52017470      -0.00165998       0.01295066      -0.00075689
C        4.94225575       8.51419522       3.76837290      -0.00127010       0.00099382      -0.00104353
C        0.01714710       1.43535598       3.88090723      -0.00357679      -0.00311744       0.00633314
C       -1.28423499       3.54151646       3.76820368       0.00242921       0.00018302       0.00362295
C       -2.51147101       5.70013773       3.56300207       0.00269411      -0.00122187       0.01379779
C       -3.70990177       7.85010873       3.55723613       0.00741137      -0.00210382      -0.00097358
C       -4.92289435       9.99442569       3.71641081      -0.00482218      -0.00504781      -0.00374203
C        2.50273735       1.47885384       3.83042572      -0.00539973      -0.00985319      -0.00376597
B        1.19808719       3.63299286       4.33063550      -0.00446267       0.00030882      -0.00680715
C       -0.14617781       5.68700260       3.97387320       0.00047344      -0.00104658      -0.00258326
C       -1.25875811       7.85482997       3.72466842       0.00276685       0.00417040       0.00343386
C       -2.46911894       9.99833291       3.66367797      -0.00408929       0.00971869      -0.00114676
C        4.95295543       1.43028963       3.61820252       0.00399687       0.00671496       0.00243800
O        3.82094179       3.52486530       3.65046016      -0.00330374      -0.00331376       0.00357289
C        1.22492981       7.86148046       4.01638973       0.00177769      -0.01014222       0.01074630
C        0.00228248       9.96606105       3.70846826       0.00046952      -0.00153550       0.00739177
C        7.41523195       1.39811487       3.58525878       0.00051572      -0.00029584       0.00097944
C        6.18320088       3.54013985       3.46930721       0.00135331      -0.00306241       0.00152395
C        4.96141582       5.67526098       3.63483803       0.00177511       0.00173046      -0.00013850
C        3.72833867       7.74690175       3.91962062      -0.00584476      -0.00077974      -0.00753009
C        2.48486989       9.92599608       3.78801143       0.00211249       0.00544913       0.00387231
C        9.87548152       1.39696683       3.70346267      -0.00241047       0.00092184       0.00005936
C        8.62800249       3.54396713       3.50957801       0.00003448      -0.00116425      -0.00087587
C        7.39002443       5.69289149       3.44439828      -0.00724682       0.00049270      -0.00400093
C        6.17088414       7.83239800       3.62504907       0.00543338       0.01287798      -0.00434160
C        4.94205130       9.94654071       3.78080865       0.00381021      -0.00150825      -0.00478133
Pt       2.46335305       5.08873072       4.83517521       0.01139464       0.01093625      -0.00304464
