49
Lattice="12.336457 0.0 0.0 -6.168228499999997 10.683685154694365 0.0 0.0 0.0 15.0" Properties=species:S:1:pos:R:3:forces:R:3 energy=-436.83008629886353 free_energy=-436.83008629886353 stress="-0.010650700898985505 0.001630403140715308 -3.715295452672051e-06 0.001630403140715308 -0.001974829157635439 3.45997497519113e-06 -3.715295452672051e-06 3.45997497519113e-06 -3.518817650400318e-06" pbc="T T T"
C       -0.00079107       0.01027022       3.77011271       0.00714206      -0.00779070      -0.01146897
C       -1.25431583       2.12219349       3.50556658       0.00284917       0.00074232      -0.01167206
C       -2.49595052       4.27625587       3.69059416       0.00610731      -0.00044526       0.00700178
C       -3.69774544       6.42374047       3.96208636       0.00084576      -0.00138428       0.01552053
C       -4.93051242       8.57267304       3.99109359      -0.00408165       0.00432810       0.00275253
C        2.46623149       0.03500214       3.80609711       0.00621310       0.00400860       0.00382533
C        1.23590279       2.07906604       3.28959937      -0.00849783      -0.00567327       0.00681199
C       -0.19239632       4.31996778       2.98798340      -0.00240064       0.00276390      -0.00121283
C       -1.31493431       6.44973428       3.52763915      -0.00055539       0.00829930       0.00615021
C       -2.48442598       8.57618457       3.84825023      -0.00833397       0.00335127      -0.00205964
C        4.93991846       0.00853978       3.85767652      -0.00081123       0.00728900       0.00352114
C        3.72433113       2.17325650       3.77458111       0.00287279      -0.00301158      -0.00400579
C        1.09435677       6.40380984       3.37702038      -0.00635488       0.00049111      -0.00011734
C       -0.02236166       8.54285418       3.69384514       0.00162328       0.00150433       0.00894865
C        7.40894140      -0.02797841       3.84936605      -0.00485988       0.00226261      -0.01544859
C        6.20231979       2.10318746       4.01836263      -0.00043328      -0.00043368       0.00985364
C        5.03567817       4.23636564       4.12326783      -0.00137719      -0.00435915       0.00056914
B        3.77637854       6.37518615       3.92214644       0.01083873      -0.00668722      -0.00063881
C        2.45670294       8.51231750       3.75963452       0.00335613      -0.00183841       0.00627258
C        9.86709632      -0.01953764       3.79938422       0.00707677       0.00382054      -0.00008133
C        8.64884139       2.11572323       3.87641301      -0.00001969      -0.00077364      -0.00991783
C        7.44999145       4.25945087       4.11447081      -0.00575215      -0.00507740       0.00902016
C        6.22534880       6.42126040       4.17498578      -0.00023948       0.00132458       0.00343092
C        4.94643947       8.55544080       3.96023669      -0.00453332      -0.00176487      -0.00133882
C       -0.01178755       1.41712161       3.50699058      -0.00702493      -0.00978653      -0.01173147
C       -1.30620584       3.55368627       3.37331801       0.00390880       0.00169245      -0.00295677
C       -2.50243017       5.70801993       3.72608081       0.00564402       0.00179783       0.01023860
C       -3.70381187       7.85613494       3.94957209      -0.00690543       0.00115879       0.00534489
C       -4.93296816       9.99754497       3.86278923       0.00776720      -0.00031726       0.00017332
C        2.47021969       1.45595979       3.62090209       0.00157632      -0.00023606      -0.00472633
P        1.18491349       3.49839429       2.20677794      -0.00420581      -0.00422502      -0.00285885
C       -0.13399029       5.73896544       3.21478712      -0.00184190       0.00536484       0.00739528
C       -1.26742810       7.85958009       3.69525468      -0.00348164       0.00764548       0.00195955
C       -2.47418943       9.99910310       3.85490077       0.00184533       0.00545895      -0.00116085
C        4.95593258       1.42657029       3.90467997       0.00184783       0.00503455      -0.01141769
C        3.83027401       3.57333190       3.82700998       0.00152176      -0.01047316       0.01401938
C        1.20976742       7.79215509       3.61200396       0.00290225       0.00095340      -0.00561853
C       -0.00181151       9.95813084       3.81586901      -0.00542899       0.00154199       0.00271879
C        7.42689995       1.39153434       3.93958699      -0.00002165       0.00087434      -0.00477789
C        6.24469213       3.51501794       4.15510399      -0.00736998      -0.00335555      -0.00643728
C        5.05728417       5.65153735       4.17673671       0.00365325      -0.00467741      -0.00071995
C        3.70121152       7.86188898       3.89129066      -0.00154600      -0.01315467       0.00188291
C        2.46537715       9.94052050       3.80593222       0.00100168       0.00456021      -0.00998304
C        9.87176602       1.40775515       3.73126475       0.00629429       0.00493533       0.00221833
C        8.65555736       3.54689989       3.92283045      -0.00150054      -0.00138403      -0.00864863
C        7.44475700       5.69509708       4.12790630      -0.00085134      -0.00404109       0.00991422
C        6.18417075       7.85157146       4.06340007      -0.00565979       0.00413250      -0.00461881
C        4.94068120       9.97477492       3.85214237       0.00685929      -0.00302514      -0.01048388
Pt       2.48346642       4.98228876       3.43717505       0.00034150       0.00857907       0.00455811
