49
Lattice="12.336457 0.0 0.0 -6.168228499999997 10.683685154694365 0.0 0.0 0.0 15.0" Properties=species:S:1:pos:R:3:forces:R:3 energy=-437.02720541346895 free_energy=-437.02720541346895 stress="-0.009135997252903759 -0.0010304694793895487 -4.494494490825127e-06 -0.0010304694793895487 -0.0010173943259903892 1.3127856209016916e-05 -4.494494490825127e-06 1.3127856209016916e-05 4.6888564227377294e-07" pbc="T T T"
C       -0.00453923       0.01249746       3.86549301      -0.00155668      -0.01044075       0.00029802
C       -1.25927615       2.10894564       4.09734753       0.00498836       0.00237038      -0.00369455
C       -2.50272157       4.26819238       4.22844515      -0.00212164      -0.00699276       0.00082573
C       -3.71085810       6.42578131       4.05610096       0.00040582       0.00197511      -0.00637780
C       -4.92835760       8.57074390       3.81762387      -0.00069631       0.01262664      -0.00209476
C        2.46741149       0.04994054       3.79525627       0.00088258       0.00267054      -0.00719345
C        1.20348522       2.16697371       3.73020169      -0.00366693      -0.00367074      -0.00118220
C       -0.10586849       4.24197079       3.93164007       0.00890421       0.00025993       0.01077967
C       -1.27991220       6.42202426       4.01627950       0.00237628      -0.00135995       0.01038705
C       -2.47412878       8.57324404       3.92829465       0.00568162      -0.00158111       0.00691860
C        4.93643915       0.01308521       3.83496388      -0.00610140      -0.00313346       0.00072226
C        3.72070992       2.17393626       3.57582897      -0.00607496       0.00327941       0.00338683
B        1.15518375       6.33894773       3.42836195      -0.00366587       0.01190371      -0.00578120
C       -0.00540784       8.54100520       3.77349007       0.00425336       0.00500103      -0.00116866
C        7.40465747      -0.02002277       3.90054564       0.00074349       0.00185796      -0.00486444
C        6.18580390       2.11908909       3.87639185      -0.00526748       0.00709870       0.00525132
C        5.06610173       4.23970614       3.38266536       0.00454955      -0.00146307       0.00108307
P        3.82904171       6.44744519       2.23345153       0.00838213       0.01770600       0.00242204
C        2.47132951       8.54746070       3.52702188       0.00311680      -0.01061595      -0.00629873
C        9.86362025      -0.02014296       3.90856519      -0.00065087      -0.00038128       0.01280061
C        8.62678340       2.11393475       4.12538534      -0.00201905      -0.00200554       0.00279753
C        7.41756965       4.27061162       3.99951277       0.01129037      -0.00875636      -0.00350749
C        6.23578758       6.41784632       3.57090357      -0.00538335       0.00133993      -0.00448412
C        4.95438931       8.56532082       3.54758002      -0.00469969       0.00030898      -0.00006772
C       -0.02260703       1.42798808       3.92457860       0.00253621      -0.01208779       0.00095746
C       -1.29581368       3.52601163       4.17770468      -0.00174205      -0.00041902      -0.01003559
C       -2.50002034       5.70290060       4.15836329       0.00246298      -0.00270682       0.00732643
C       -3.70299359       7.85610386       3.94894318      -0.00113030       0.00585659      -0.00104694
C       -4.92884729      10.00297015       3.82622040       0.00340988       0.00690914      -0.01371961
C        2.46455468       1.47532718       3.67126575      -0.00669364       0.00092000      -0.00424849
C        1.05420732       3.54777071       3.57830056       0.00577617       0.00142378      -0.00505266
C       -0.11170081       5.65679002       3.86885947      -0.00233165       0.00015689       0.00550655
C       -1.24893992       7.84885746       3.90926003       0.00825416       0.00187108       0.00184902
C       -2.47256323      10.00197778       3.84452213      -0.00397118      -0.00386373      -0.00006875
C        4.94985581       1.43156064       3.76645181      -0.00606332      -0.00120452      -0.01411513
C        3.85343907       3.54460394       3.28837427       0.00404733       0.00440321       0.00485518
C        1.22776554       7.84432345       3.56439782       0.00071607       0.00594384      -0.00876490
C       -0.00244439       9.96729588       3.84377119      -0.00193391       0.00428971       0.00059423
C        7.40666048       1.39957959       4.00327933      -0.00610051       0.00591141       0.00223713
C        6.22793599       3.53561361       3.79027952       0.00664826       0.00210068       0.01594111
C        5.13614368       5.64857304       3.15309176      -0.00530137      -0.00555309       0.00119229
C        3.72273395       7.91430385       3.25805451       0.00032420      -0.00708264      -0.01365936
C        2.46798929       9.95509537       3.80534798       0.00307880      -0.01118869      -0.00166861
C        9.85140086       1.39312451       4.08888174       0.00319795       0.00765560       0.01193812
C        8.62069599       3.54658542       4.17794638       0.00441598      -0.01169079      -0.00572655
C        7.41993957       5.70101742       3.92438134       0.00050253      -0.00440391      -0.01170763
C        6.19704935       7.85433199       3.61901998      -0.00686299       0.00853714       0.00451992
C        4.93607171       9.97299813       3.80274660      -0.00561846      -0.00429192       0.01042983
Pt       2.35963621       4.83430750       2.80932654      -0.01129145      -0.00948350       0.01150934
