50
Lattice="12.336457 0.0 0.0 -6.168228499999997 10.683685154694365 0.0 0.0 0.0 15.0" Properties=species:S:1:pos:R:3:forces:R:3 energy=-440.2730172082875 free_energy=-440.2730172082875 stress="-0.004852746641698601 0.0007427381648434801 2.3461346208485535e-06 0.0007427381648434801 -0.0064653608291720815 -1.3218379305961936e-05 2.3461346208485535e-06 -1.3218379305961936e-05 5.4558371853267015e-06" pbc="T T T"
C       -0.02109864      -0.01021367       3.95274993       0.00254258      -0.00069603       0.00251571
C       -1.26554367       2.11809137       4.03647222      -0.00208164       0.00104154       0.00450124
C       -2.49836002       4.26289602       3.97103673       0.00340240       0.00009604      -0.00782689
C       -3.72113775       6.40128370       3.87371430       0.00043375      -0.00032976       0.00219579
C       -4.95404769       8.53689749       3.87914580      -0.00257954      -0.00317089      -0.00051802
C        2.44628182      -0.01528712       3.86726778       0.00058190      -0.00201303       0.00314739
C        1.21153016       2.12183526       4.02965157      -0.00074737      -0.00269402       0.00085288
C       -0.04860250       4.24602972       3.99388323      -0.00076428      -0.00005905       0.00067689
C       -1.26057121       6.39378881       3.70199595       0.00452732      -0.00393232      -0.00784659
C       -2.48547962       8.53187876       3.72331550       0.00193042       0.00561154      -0.00091464
C        4.90966087      -0.01627106       3.67143430       0.00336377       0.00104414      -0.00054265
C        3.68024523       2.10347342       3.80423970       0.00173792      -0.00251847      -0.00311461
B        2.47795049       4.34529034       4.04638962      -0.00219870       0.00509722       0.00493094
P        1.36437879       6.18021466       2.78364557       0.00976061      -0.01079244       0.00471388
C       -0.03374554       8.54591740       3.41263217      -0.00504329       0.00171560       0.00510282
C        7.37040972       0.00537810       3.61133774      -0.00020083       0.00242221       0.00128463
C        6.15127903       2.11113890       3.72341411      -0.00407844       0.00060493       0.00601260
C        4.93865768       4.21191638       3.70752865      -0.00102263       0.00269431       0.00239222
S        3.92552542       6.44965694       2.28562390      -0.00708102      -0.01142624       0.00186459
C        2.42685143       8.60873496       3.32333642       0.00040910       0.00036488      -0.00158998
C        9.84682750       0.00352837       3.79503818       0.00120538      -0.00141115       0.00024312
C        8.61150670       2.12611067       3.86408497      -0.00096409       0.00112792      -0.00025475
C        7.39093837       4.25951783       3.84501463      -0.00031009      -0.00319138      -0.00325939
C        6.15625925       6.41479378       3.83546081      -0.00299093       0.00190425       0.00722642
C        4.92863831       8.54757787       3.74800855       0.00164822       0.00310012      -0.00211666
C       -0.02791308       1.40639285       4.02794523      -0.00111610      -0.00004601       0.00517766
C       -1.28117351       3.53886689       4.05337719       0.00116150       0.00155502      -0.00440028
C       -2.49501290       5.68625027       3.87436783       0.00409295      -0.00117321      -0.00248449
C       -3.72187688       7.82389180       3.83616805       0.00154090       0.00242302      -0.00441655
C       -4.95762302       9.95833992       3.91115676       0.00062084      -0.00452015       0.00382710
C        2.44418070       1.40375432       3.91239188       0.00105526      -0.00259154      -0.00340323
C        1.18100905       3.54231539       4.05675967      -0.00583488      -0.00320042      -0.00198406
C       -0.06537865       5.63371805       3.67435293       0.00484231      -0.00239982      -0.00831871
C       -1.25764668       7.82032082       3.58115044      -0.00247489      -0.00305550      -0.00210703
C       -2.49178138       9.95576651       3.74425974       0.00357134       0.00562515       0.00338533
C        4.91719396       1.40048693       3.72094951       0.00007159      -0.00185593      -0.00150834
C        3.73069664       3.51970095       3.79840557       0.00073281      -0.00036470       0.00263189
C        1.22323660       7.90745279       3.19471461      -0.00305724       0.00847091      -0.00044637
C       -0.02752856       9.97057607       3.54987281       0.00024442       0.00080247       0.00288573
C        7.38144923       1.41496948       3.73846490      -0.00280760       0.00338222       0.00084215
C        6.17223214       3.53269859       3.74053422      -0.00310267      -0.00062669      -0.00027546
C        4.90565032       5.66797252       3.71056663       0.00311913       0.00213621       0.00252652
C        3.67429996       7.86973305       3.45028692       0.00319312       0.00188969       0.00133937
C        2.44676332      10.00297755       3.57190358       0.00087738       0.00115259      -0.00516781
C        9.84222249       1.41424417       3.91920340      -0.00121451      -0.00059331       0.00091953
C        8.61255827       3.54839380       3.91299101       0.00282503       0.00034415      -0.00159755
C        7.37704452       5.69057465       3.87791115      -0.00323851      -0.00121589      -0.00106672
C        6.13479760       7.82110070       3.83207923      -0.00418129       0.00075594       0.00189850
C        4.91245409       9.96274692       3.85030348       0.00344252       0.00114921      -0.00277350
Pt       3.14007085       6.19728207       4.68412022      -0.00584392       0.00736671      -0.00516066
