49
Lattice="12.336457 0.0 0.0 -6.168228499999997 10.683685154694365 0.0 0.0 0.0 15.0" Properties=species:S:1:pos:R:3:forces:R:3 energy=-430.1433926672454 free_energy=-430.1433926672454 stress="-0.005088146877872036 -0.004485361658511858 6.80819499856028e-07 -0.004485361658511858 -0.0019332907159590686 -7.89177797835508e-06 6.80819499856028e-07 -7.89177797835508e-06 6.425114386855434e-07" pbc="T T T"
C       -0.00140927      -0.01530804       3.86556837      -0.00455476      -0.00161093       0.00178507
C       -1.26664563       2.10687592       3.90786495      -0.01005991       0.00508992      -0.00940953
C       -2.49956586       4.25988797       3.69919408      -0.00487530       0.00564558       0.00418315
C       -3.68181961       6.41464217       3.57560074       0.01090588       0.01155415       0.00117579
C       -4.90860389       8.55492692       3.67314581      -0.00545016      -0.00507078      -0.00131003
C        2.47875360      -0.02433852       3.90788562       0.00496999       0.00208296      -0.00700182
C        1.22207733       2.07755181       4.16212017      -0.00055812       0.00711023      -0.00854943
C       -0.12060199       4.26554792       4.11637096       0.00672338       0.01084253       0.01268918
C       -1.25496734       6.40846120       3.83628263      -0.00382454      -0.00541561      -0.00274696
C       -2.44323596       8.54286627       3.77039326       0.00395056      -0.00789376       0.00098980
C        4.94213853      -0.00171876       3.74794220       0.00178127      -0.00102173       0.00242124
C        3.65599297       2.09369020       3.69211765       0.00534837       0.01742938      -0.00434898
B        1.23989032       6.34127126       4.29448627      -0.00046244       0.00071425       0.00704387
C        0.03134875       8.52584540       3.87229612      -0.00492378      -0.01005919       0.00190362
C        7.40523322      -0.01529515       3.69183400       0.00223380       0.00670324      -0.00448659
C        6.14433278       2.15004964       3.49213214      -0.00915634      -0.00240579       0.00155637
C        4.99915552       4.38811316       3.23048154      -0.00430834      -0.00519941       0.00849471
O        3.82871341       6.45932538       3.55740522       0.01352415      -0.00452109      -0.00302682
C        2.51019425       8.50265577       3.80092270       0.00527265      -0.00383467      -0.00955771
C        9.86393008      -0.02219374       3.73493263      -0.00115101      -0.00830939      -0.00329502
C        8.61808043       2.12554421       3.61572449       0.00010249      -0.00843642       0.01349134
C        7.40515863       4.28454183       3.41791466      -0.00392218       0.00152692       0.00200624
C        6.22890612       6.46383302       3.36830540       0.00010022       0.00450969      -0.00428256
C        4.96363891       8.54831285       3.62386578      -0.00449451       0.00420199       0.01203430
C       -0.01685116       1.40465928       4.01035767      -0.00913774       0.00205538      -0.00229537
C       -1.29432356       3.52713782       3.90769054      -0.00122688       0.01261248       0.00524344
C       -2.47690109       5.68831097       3.68548899       0.00365150       0.00274577       0.00141431
C       -3.67281281       7.83770313       3.66878562       0.00283487       0.00522224      -0.01312318
C       -4.92506013       9.96626969       3.84000435       0.00055818      -0.00575975       0.00366767
C        2.45865215       1.39890199       3.98650410       0.00335661       0.01106386      -0.01022455
B        1.17273052       3.54666678       4.46926295       0.01747304       0.00388551       0.00751734
C       -0.08817957       5.65766253       4.04828876      -0.00033306       0.00572724       0.00687002
C       -1.21381559       7.82884656       3.83051409      -0.00372906      -0.01371582      -0.00017551
C       -2.45075583       9.96620707       3.81510661       0.00630650      -0.00597163       0.00659140
C        4.91625325       1.43836564       3.62654098      -0.00583220       0.00353263      -0.00493262
S        3.41953465       3.71214011       3.12281436       0.00855979      -0.01006367       0.00554621
C        1.27565291       7.81905139       3.97378197       0.00280909      -0.00295403      -0.00445441
C        0.00991341       9.96073550       3.76172066       0.00241434      -0.00279850      -0.00812288
C        7.37973773       1.42182443       3.58285019      -0.00267773       0.00363198      -0.00197024
C        6.16192738       3.58361737       3.34808104      -0.00762764      -0.00468212       0.00242646
C        5.03326450       5.77871284       3.29433264       0.00403592      -0.00383255      -0.01478736
C        3.76210209       7.83858280       3.66543795       0.00613652      -0.00541151      -0.00392097
C        2.47810266       9.94002527       3.72406905       0.00048104      -0.00217014      -0.00629637
C        9.84863466       1.40640299       3.74768956      -0.00123634      -0.01028874      -0.00485081
C        8.62024131       3.55172525       3.56216525      -0.00355677      -0.00667154       0.00554189
C        7.43275012       5.70659318       3.42474005       0.00534798       0.01066611       0.00444028
C        6.20965589       7.86786361       3.53462498      -0.01111105       0.00074279       0.01520228
C        4.93689684       9.96469482       3.74697311      -0.00405677       0.00166487      -0.00030806
Pt       2.53934768       4.93075942       4.92210672      -0.01061154      -0.00286291      -0.00075821
