49
Lattice="12.336457 0.0 0.0 -6.168228499999997 10.683685154694365 0.0 0.0 0.0 15.0" Properties=species:S:1:pos:R:3:forces:R:3 energy=-430.2748569513949 free_energy=-430.2748569513949 stress="-0.008070211055320216 0.005234182745570253 -8.189279381035185e-06 0.005234182745570253 -0.0033555522336033575 -1.6253834119251387e-06 -8.189279381035185e-06 -1.6253834119251387e-06 3.154081095827014e-06" pbc="T T T"
C       -0.00663807      -0.00633536       3.78733780       0.00031398      -0.00188865      -0.00053362
C       -1.21495067       2.15117662       3.82412214       0.00077676      -0.00016218       0.00301025
C       -2.43996060       4.28397655       3.59373322      -0.00683603       0.00562745       0.00450081
C       -3.69282630       6.41714006       3.44204873       0.00215080       0.00641534       0.00624808
C       -4.96089982       8.54540464       3.54272029      -0.00477926       0.00340654      -0.00232535
C        2.45520869      -0.00513671       3.79899264      -0.00162817      -0.00015161       0.00038519
C        1.24459291       2.12483324       4.05046402       0.00377309      -0.00123104       0.00004146
C       -0.03721393       4.36856105       3.93509889       0.00086854       0.00588207       0.00235447
C       -1.26421799       6.45436729       3.61635966      -0.00709617      -0.01099854       0.00663337
C       -2.48978546       8.56268640       3.59234344      -0.00098397      -0.00227730       0.00125716
C        4.93277414      -0.00190041       3.77119409      -0.00493111       0.00442220      -0.00654794
C        3.72301076       2.08726724       4.00952843      -0.00606262       0.00576168       0.00674815
O        1.01947673       6.52210006       4.25447480       0.00743911       0.00271304      -0.00062750
C       -0.03165030       8.55873290       3.74279948      -0.00583972      -0.00875236       0.00086885
C        7.40688308      -0.01068721       3.80475771       0.00281983       0.00183639       0.00173263
C        6.20979696       2.11070602       3.76740762      -0.00174118      -0.00393642       0.00573177
C        5.06847478       4.25999977       3.68207816      -0.00352006      -0.00178000      -0.01354540
S        3.45794675       6.19921026       3.17084310      -0.00777899       0.00530561      -0.00693492
C        2.41688487       8.52470034       3.84447520       0.00745529      -0.00694007       0.00159452
C        9.87163916      -0.01187620       3.80482249      -0.00401627      -0.00188685       0.00059810
C        8.66625704       2.12929858       3.70606338       0.00890513       0.00216789      -0.00953835
C        7.46281195       4.26108456       3.50718779       0.00140971      -0.00939249       0.00004192
C        6.19795213       6.40666945       3.35261853       0.00869206      -0.00149521       0.00389117
C        4.89989530       8.51824696       3.60611984      -0.00083802       0.00889889      -0.00937329
C        0.00894181       1.42821442       3.90170299       0.00303288      -0.00372339       0.00263836
C       -1.21701762       3.58716059       3.77216835      -0.00484017       0.00726149       0.00258481
C       -2.46472332       5.70573502       3.52026058      -0.00781346       0.00142418       0.00583950
C       -3.71998587       7.84318902       3.50049467      -0.00267988       0.00527195       0.01186844
C       -4.94789124       9.96840284       3.71059932      -0.00077981      -0.00133919      -0.00220656
C        2.47204651       1.41594077       3.98074790       0.00047658       0.00049847      -0.00245289
B        1.22451723       3.62441349       4.26251386       0.00790474       0.00245817       0.00346691
C       -0.08396906       5.77125958       3.87452970       0.00355577       0.00377464       0.00385454
C       -1.26845413       7.86489383       3.62713771      -0.00707917      -0.01531020       0.00525085
C       -2.48211551       9.98178966       3.71812839      -0.00323918       0.00107320      -0.00954110
C        4.95768658       1.41237988       3.85260821      -0.00754343       0.00505497       0.00667034
B        3.83085737       3.57069668       4.19114604      -0.00646588       0.00227648      -0.00290522
C        1.15155527       7.86370654       3.89527047       0.00380899       0.00198398      -0.00391051
C       -0.00329972       9.98044365       3.75919507      -0.00321882      -0.00150789       0.00528667
C        7.43135475       1.41110182       3.75430215       0.00662846       0.00485939      -0.00514620
C        6.25769025       3.52437371       3.64747124      -0.00326098      -0.00722089      -0.00368930
C        5.04759250       5.61515829       3.37078839       0.00547177       0.00189133      -0.00228533
C        3.64498048       7.85441185       3.62602991       0.00968178      -0.00785351       0.01318178
C        2.45835502       9.95628700       3.83648025       0.00112265      -0.00684647       0.00258876
C        9.89117136       1.42312588       3.77784638       0.00297334      -0.00273041      -0.00202179
C        8.67990779       3.55192881       3.58532957       0.00201929      -0.00066625      -0.00029566
C        7.43768925       5.68522489       3.40609348       0.01050535      -0.00580682      -0.00069453
C        6.14628679       7.82736417       3.46703833      -0.00279592       0.00583102      -0.00835543
C        4.92652459       9.95835679       3.74591917      -0.00389085       0.00845370      -0.00818449
Pt       2.60223014       4.90276388       4.96332601       0.00787322      -0.00065228      -0.00775349
