50
Lattice="12.336457 0.0 0.0 -6.168228499999997 10.683685154694365 0.0 0.0 0.0 15.0" Properties=species:S:1:pos:R:3:forces:R:3 energy=-449.5919419961752 free_energy=-449.5919419961752 stress="-0.0026550673125829744 5.693266512590672e-06 2.3961894155625936e-06 5.693266512590672e-06 -0.0007040174848069543 -1.6310993847093823e-05 2.3961894155625936e-06 -1.6310993847093823e-05 -2.0032358458241546e-06" pbc="T T T"
C       -0.00450404      -0.00493370       3.58252152       0.00716929       0.00271703       0.00110560
C       -1.24011765       2.13376041       3.63820507       0.01066394       0.00274105       0.00284964
C       -2.46932467       4.27118320       3.62318000      -0.00096844       0.00177119      -0.00566502
C       -3.70186849       6.40873858       3.55322445       0.00065640      -0.00453470      -0.00111387
C       -4.93481449       8.54805346       3.54593132      -0.00756897      -0.00350442      -0.00296046
C        2.46636392       0.00524638       3.58574336      -0.00421537      -0.00668955      -0.00448449
C        1.22159448       2.12445666       3.75289052       0.00548043      -0.00625108       0.01199550
C       -0.00938644       4.28276591       3.87679966      -0.00284605       0.00176731       0.00077704
C       -1.24043053       6.41597041       3.67071551       0.00328611      -0.00188582      -0.00024170
C       -2.46883424       8.54801804       3.54449567       0.00517881      -0.00478432      -0.00093201
C        4.93678699      -0.00498658       3.58327861       0.00046568       0.00701229      -0.00196843
C        3.71092291       2.12434117       3.75371272      -0.00177461      -0.00316168       0.01332973
B        2.46613901       4.14784389       4.38957215      -0.00214743       0.01327329       0.00660487
N        1.08585904       6.49059599       4.23795090      -0.01117329       0.00673248      -0.01335321
C       -0.00904855       8.53968254       3.67488726       0.00899247      -0.00114425      -0.00846428
C        7.40522769      -0.01646544       3.63690309       0.00012633      -0.00160912      -0.00004134
C        6.17305369       2.13372128       3.64100527      -0.00896169       0.00254707       0.00529734
C        4.94176687       4.28295847       3.87879478       0.01181951      -0.00714934       0.00222929
N        3.84723863       6.49069061       4.23878470      -0.00317006       0.00377590      -0.00721604
C        2.46644095       8.50782357       3.86788563      -0.00359840      -0.01124089      -0.00765177
C        9.86372204      -0.01665547       3.63573884       0.00370569      -0.00215973       0.00098443
C        8.63523832       2.12934586       3.60042491      -0.01285761       0.00929716       0.00963863
C        7.40219767       4.27096363       3.62537298      -0.00028053       0.00421779      -0.00593517
C        6.17338506       6.41602581       3.67328787      -0.00060671      -0.00303330      -0.00290793
C        4.94163547       8.53952723       3.67587567      -0.00270514       0.00171444      -0.00765316
C       -0.01062331       1.41507693       3.63675812       0.01134838      -0.00032062       0.00293833
C       -1.23891083       3.56505583       3.69578163       0.00137821       0.00336267      -0.00511099
C       -2.46786900       5.69614479       3.59752952       0.00151509      -0.00127968       0.01182334
C       -3.70177872       7.83375432       3.53388246      -0.00388511      -0.00232770       0.00035912
C       -4.93628402       9.97336299       3.55927273      -0.00387019      -0.00380419      -0.00324105
C        2.46624234       1.42443190       3.70514447       0.00161616      -0.00613755      -0.00460428
C        1.17522851       3.52703271       3.96044013      -0.00986339      -0.00836524       0.01074296
C       -0.01497745       5.72454154       3.91240401      -0.00170338       0.00466881      -0.00707477
C       -1.23922866       7.83241517       3.61630361       0.01090711      -0.00371616       0.00501538
C       -2.46758609       9.97324151       3.55919218       0.00062726      -0.00144312      -0.00439053
C        4.94320588       1.41496025       3.63823297      -0.00428442       0.00517232       0.00474721
C        3.75730881       3.52690302       3.96172641       0.00973441      -0.00654251       0.00869793
C        1.20230607       7.82923657       3.90955378      -0.00244221      -0.00374732      -0.00764441
C        0.00241860       9.96255899       3.61357307       0.00154968       0.00200809      -0.00068047
C        7.40476280       1.41427888       3.60875775      -0.01403006       0.00410555       0.00542531
C        6.17153941       3.56507914       3.69928712       0.00575781      -0.00073005      -0.01172419
C        4.94789647       5.72460032       3.91399828       0.00128731       0.00227725      -0.00548852
C        3.73051694       7.82893553       3.90989680      -0.00150205       0.00372361      -0.00673416
C        2.46623980       9.93946237       3.70113803       0.00083866      -0.01158463       0.00744665
C        9.86527527       1.41398701       3.60590274      -0.00189273       0.00728495       0.01416877
C        8.63483230       3.55586165       3.59984189      -0.00420779       0.00815944      -0.01272722
C        7.40065471       5.69603679       3.59926381       0.00112116      -0.00256440       0.01229280
C        6.17198598       7.83246290       3.61878016      -0.00573517      -0.00374259       0.00059010
C        4.92984043       9.96239228       3.61370318       0.00950765       0.00177932      -0.00568832
Pt       2.46603931       5.77422063       5.45311192       0.00155724       0.01334493       0.00663782
