49
Lattice="12.336457 0.0 0.0 -6.168228499999997 10.683685154694365 0.0 0.0 0.0 15.0" Properties=species:S:1:pos:R:3:forces:R:3 energy=-439.43572631991697 free_energy=-439.43572631991697 stress="-0.012106316968732614 -0.00015658004572643774 -2.092209122413343e-07 -0.00015658004572643774 0.002463234063513208 3.687063239082295e-07 -2.092209122413343e-07 3.687063239082295e-07 7.161439602877776e-07" pbc="T T T"
C       -0.00615664       0.01055163       3.75319071      -0.00237901       0.00863560       0.00487525
C       -1.26192688       2.11235941       3.74238362      -0.01715883      -0.00316680      -0.00707934
C       -2.49616876       4.27013813       3.72584808      -0.00752257      -0.00651124       0.00308484
C       -3.70542423       6.42746927       3.73342885       0.00615344       0.00390145      -0.00416507
C       -4.93111886       8.57970150       3.74986909      -0.00150331       0.00803459      -0.00429149
C        2.46763882       0.06059797       3.75929270       0.00731243      -0.01352841      -0.01210612
C        1.20985985       2.17774129       3.76946578       0.00706176      -0.00472422      -0.00318827
C       -0.09938676       4.28592176       3.75155141       0.00375639       0.00816956      -0.00025103
C       -1.29059480       6.44132314       3.72955225      -0.00125445       0.00847763       0.00185991
C       -2.47859332       8.58297081       3.73464659      -0.00447883       0.00160064       0.01709242
C        4.94214443       0.00882787       3.74847143       0.00003949       0.00545727       0.01374952
C        3.72579695       2.18801883       3.77690717      -0.00624430      -0.00157275      -0.01148492
N        1.09989382       6.38792963       3.77070209      -0.00234957      -0.00449137      -0.01003327
C       -0.00437662       8.52228077       3.74511935       0.00512613      -0.01484053       0.00710371
C        7.41547088      -0.05090105       3.74998091      -0.00211372       0.00841600       0.00148882
C        6.19677855       2.11421020       3.75435430       0.01081310      -0.00488216      -0.00128459
C        5.02651380       4.29518379       3.77397605      -0.00060518       0.00306690       0.00314710
O        3.83121250       6.38963500       3.80333471       0.00197304      -0.00403812       0.00119917
C        2.48185171       8.44219946       3.76563412       0.00125701       0.00076992      -0.00346290
C        9.85889214      -0.05120004       3.75045344       0.00184584      -0.00018234      -0.00096259
C        8.63531917       2.10600312       3.73771049       0.00408911      -0.00071331       0.00291183
C        7.42307230       4.27153883       3.74171419      -0.00055377       0.00407602      -0.00153578
C        6.21120508       6.43845681       3.75660414      -0.00381741       0.00527223      -0.00369589
C        4.93995036       8.52620267       3.75974246       0.00088748      -0.00572955       0.00596082
C       -0.02232383       1.42944561       3.75354207      -0.00635134       0.00540304       0.01138611
C       -1.29206299       3.54069927       3.73503729      -0.00170672       0.00093842       0.00502378
C       -2.49550278       5.70245892       3.72503576       0.00546134      -0.00402639       0.00286997
C       -3.70246696       7.86206584       3.73947772      -0.00080678       0.00214086      -0.01009808
C       -4.92899033      10.01104597       3.75484518       0.00610828       0.00194299      -0.00041375
C        2.46781000       1.48979488       3.77193398      -0.00000930      -0.01744833      -0.00375095
C        1.11039523       3.59102816       3.77706602       0.00417781      -0.00203536      -0.00978006
C       -0.09159236       5.72428132       3.74761161      -0.00108911       0.01277178       0.00236320
C       -1.25678234       7.85681320       3.73337395      -0.00198765       0.00706797       0.00171706
C       -2.47298206      10.01028924       3.74632488       0.00517095      -0.00401604       0.00687362
C        4.95825811       1.42805626       3.76118051       0.00059434       0.00753868       0.00025424
C        3.81575338       3.59266657       3.78822884      -0.00090584      -0.00064851       0.00214993
C        1.20709156       7.76021182       3.76156602       0.00676043      -0.01277041      -0.00312604
C        0.00460241       9.94878848       3.74695039      -0.00173157      -0.01030934       0.00066078
C        7.41794633       1.38196952       3.74650792       0.01432676      -0.00020470      -0.00229562
C        6.22367754       3.54240198       3.75607230       0.00157521       0.00038429       0.00096235
C        5.05006140       5.70207026       3.77451876      -0.00166436       0.00395291       0.00607218
C        3.73546437       7.81019338       3.77227328      -0.00141245      -0.00081810      -0.00828592
C        2.47159815       9.88849910       3.75569992      -0.00067849       0.00336966      -0.00679556
C        9.85478547       1.38424627       3.74109608      -0.01008868       0.00194490       0.00231998
C        8.63430641       3.54196667       3.73162022      -0.00478611      -0.00589270       0.00178119
C        7.42383069       5.70056940       3.74279030      -0.00542853       0.00741604      -0.00430543
C        6.19075014       7.85905544       3.75521755      -0.00016852       0.00162942       0.00434810
C        4.93181558       9.95376425       3.75307692      -0.00309787      -0.00383811       0.00336172
Pt       2.45009668       4.92900647       3.79973816      -0.00259609       0.00401001      -0.00222494
