49
Lattice="12.336457 0.0 0.0 -6.168228499999997 10.683685154694365 0.0 0.0 0.0 15.0" Properties=species:S:1:pos:R:3:forces:R:3 energy=-427.17673550351014 free_energy=-427.17673550351014 stress="-0.008690923296374956 -0.0047027178357961765 1.2212747496800582e-06 -0.0047027178357961765 -0.004558563863317054 1.933830795772538e-05 1.2212747496800582e-06 1.933830795772538e-05 1.9331222078531557e-06" pbc="T T T"
C        0.00454190      -0.00198722       3.91096758      -0.00079879      -0.00094730       0.01418568
C       -1.27764351       2.11372978       4.09770000      -0.00189951      -0.00554620       0.01745483
C       -2.51335378       4.25976708       3.80717373       0.00175348       0.00093410      -0.01008996
C       -3.68776066       6.41691403       3.55585881      -0.00025993       0.00255793       0.00616378
C       -4.90184789       8.56736205       3.65394803       0.00465257      -0.00389696       0.00055599
C        2.47926453      -0.01748722       3.88284772       0.00290945      -0.00319292       0.01026361
C        1.22520915       2.05518279       4.38923871      -0.00274154       0.00991545      -0.00089926
C       -0.16512518       4.30078614       4.38659406      -0.00118064      -0.00625174      -0.01155280
C       -1.26377736       6.39691907       3.70284487       0.00381277      -0.00008425       0.00259428
C       -2.44224767       8.53944755       3.63994405       0.00813569      -0.00754417       0.00369620
C        4.93678134      -0.00517365       3.67499233      -0.00069892       0.00478926      -0.00175640
C        3.65596347       2.08748142       3.69648153      -0.00251476       0.00390681      -0.01035381
S        1.33664085       6.16993990       3.11666168       0.00604173      -0.00256810       0.00286269
C        0.01556754       8.52385345       3.59863301      -0.00560499       0.00590166      -0.00662825
C        7.39727958      -0.00812494       3.65915467      -0.00655750       0.00893253      -0.00547435
C        6.14505581       2.13861962       3.48496410      -0.00119659       0.00843645      -0.00155063
C        5.00590081       4.34708882       3.27339881       0.00460384       0.01149446       0.00381933
C        3.87567101       6.45295081       3.84085818      -0.00827553      -0.01157255       0.00025143
C        2.48236213       8.53432120       3.70447260      -0.00454843      -0.00125116      -0.00653957
C        9.86481774      -0.00587533       3.80303603      -0.00766354       0.00318414       0.01030868
C        8.61341184       2.12629411       3.69654020       0.00247707      -0.00374281       0.00748496
C        7.41101825       4.27721969       3.45106905       0.00307694      -0.00553054       0.00593421
C        6.24154598       6.45952428       3.43195171       0.00159320      -0.00198379      -0.01060750
C        4.97313950       8.56696200       3.68791600      -0.00031981      -0.00146172       0.00111476
C       -0.01837877       1.40741720       4.15646378      -0.00164201       0.00071544      -0.00219792
C       -1.32966480       3.53686082       4.12878119      -0.00375122      -0.00358541       0.00553992
C       -2.49174642       5.68283445       3.68828906       0.00156478       0.00666189      -0.00056614
C       -3.67864726       7.84129285       3.60208661       0.00594121      -0.00123780       0.00820768
C       -4.92337417       9.97449864       3.82816465       0.00200327      -0.00458858      -0.00001004
C        2.45928627       1.40301553       4.05502086      -0.00185538       0.00717896       0.00271024
P        1.13509373       3.56017941       5.38536323       0.00714551      -0.01564630      -0.00512461
C       -0.10875957       5.60754332       3.88272147      -0.00290079      -0.00038670       0.00171395
C       -1.21664596       7.81566137       3.60503095       0.00559605      -0.00463778      -0.00343351
C       -2.45587998       9.96676012       3.72649420       0.00558777      -0.00656972       0.00524841
C        4.91406356       1.43346435       3.60596941       0.00072234       0.00716556      -0.00822933
S        3.44076260       3.67176642       3.00755172       0.00424170       0.00148935      -0.00741926
C        1.26879328       7.85579620       3.54860178      -0.00818244       0.00328149      -0.00242218
C        0.00476942       9.96155912       3.63927737      -0.00544626       0.00758900       0.00052638
C        7.37870243       1.42391685       3.60073091      -0.00210709       0.00689234       0.00131642
C        6.17133088       3.56296070       3.35684992      -0.00027893       0.00526206       0.00561091
C        5.01549673       5.74709966       3.45726316       0.00046747       0.00299822      -0.00405779
C        3.74174869       7.82833633       3.73358628      -0.00344172      -0.01311176      -0.01371238
C        2.46792192       9.96808464       3.72636596      -0.00793447       0.00512845      -0.00295808
C        9.84697328       1.41451887       3.86413891       0.00093702      -0.00117007       0.00319961
C        8.61320174       3.54900307       3.63819698       0.00467136      -0.00554514       0.00390111
C        7.43331829       5.70596545       3.44693283       0.00229111      -0.00332177      -0.00159843
C        6.20901811       7.86885151       3.58247264       0.00262962      -0.00133355       0.00180887
C        4.94502744       9.98014425       3.79664718      -0.00486575       0.00468386      -0.00594937
Pt       2.64256647       5.11530254       4.74447104       0.00381056      -0.00239064      -0.00334238
