49
Lattice="12.336457 0.0 0.0 -6.168228499999997 10.683685154694365 0.0 0.0 0.0 15.0" Properties=species:S:1:pos:R:3:forces:R:3 energy=-438.41789271595866 free_energy=-438.41789271595866 stress="-0.008762810917276202 -0.0008577173468698477 4.801435228204061e-06 -0.0008577173468698477 0.0021978557927919804 -1.8151229435999762e-06 4.801435228204061e-06 -1.8151229435999762e-06 9.315390541714866e-07" pbc="T T T"
C       -0.00580142       0.01524584       3.82393510      -0.00151636      -0.00262585      -0.00839831
C       -1.26347051       2.11142766       3.93542451      -0.00226072      -0.00284282       0.00156899
C       -2.50300134       4.25913150       4.11416073       0.00562525       0.00253887       0.00294269
C       -3.70760864       6.42498678       4.08339874      -0.00499977      -0.00236493      -0.00417490
C       -4.92529360       8.58019013       3.92434377       0.00215091       0.00132001       0.00467575
C        2.46354527       0.03841151       3.79581170       0.00555188       0.00043329       0.00204890
C        1.20990480       2.18518116       3.64747721      -0.00291071       0.00302915      -0.00569933
C       -0.08592312       4.26515963       3.96205340      -0.00101526       0.00070290      -0.00165793
C       -1.29229900       6.43074770       4.17418175       0.00468994       0.00357791      -0.00586613
C       -2.48123014       8.57751166       4.03594979      -0.00131324      -0.00216656       0.00159062
C        4.93514870      -0.00448745       3.77179971      -0.00053024       0.00644676       0.00523573
C        3.70808991       2.07083214       3.28607938       0.00325610      -0.00902869      -0.00797255
C        1.08972094       6.38783812       3.78398664      -0.00224993      -0.00018980      -0.01432840
C       -0.01464335       8.53042358       3.93436699      -0.00073603      -0.00010843       0.00222689
C        7.40551016      -0.04381769       3.78708841      -0.00324553      -0.00453003      -0.00140710
C        6.18680471       2.11756453       3.57615538       0.00069586       0.00472972      -0.00216568
C        5.10708625       4.34201950       3.14753512      -0.00325557       0.00079345       0.00835419
N        3.87877961       6.42433818       3.35503492       0.01181871       0.00576003      -0.00490046
C        2.47776590       8.46689565       3.70684963       0.00055013      -0.00115221       0.01008066
C        9.85716828      -0.04099014       3.81653163      -0.00210153       0.00015678      -0.00777864
C        8.62325978       2.10842174       3.89230878      -0.00441915      -0.00338828       0.00367614
C        7.41874516       4.27309094       3.83441581      -0.00022213      -0.00313023       0.00186015
C        6.24051391       6.45040384       3.69888602       0.00025514       0.00204545      -0.00223927
C        4.95486669       8.53872891       3.72023304      -0.00329643      -0.00138134       0.00461214
C       -0.01813664       1.43759814       3.81081058       0.00013677      -0.00090124       0.00012734
C       -1.28994004       3.52988921       4.05518536       0.00262958      -0.00357602       0.00829151
C       -2.50118639       5.69662064       4.17033809       0.00110167       0.00562819       0.00078569
C       -3.70456277       7.85907446       4.04375404      -0.00119157      -0.00370992      -0.00607705
C       -4.93186777      10.00507613       3.86256885       0.00266917       0.00131368       0.00086494
C        2.46196339       1.45590153       3.56705572       0.00335590       0.00368785       0.00270299
C        1.11367641       3.60566038       3.61857469      -0.01365182       0.00312234      -0.00754022
C       -0.09117468       5.69985457       4.03853252       0.00398573       0.00255735      -0.00663289
C       -1.25571664       7.85245132       4.07870542      -0.00070880       0.00199570       0.00543791
C       -2.47529876       9.99711861       3.87668587       0.00330817      -0.00267469       0.00122293
C        4.94804588       1.40515951       3.53040863       0.00286051       0.00687660       0.00758947
P        3.78257603       3.53576317       2.26059571       0.00201305      -0.00393448      -0.00249844
C        1.21988785       7.77625162       3.81352893       0.00013190       0.00081814       0.00687534
C       -0.00349828       9.94832118       3.83730717      -0.00473722      -0.00030806      -0.00319353
C        7.39931998       1.39311416       3.76082396      -0.00334865      -0.00407781      -0.00506184
C        6.22171475       3.56069493       3.52009914      -0.00085219       0.00128869      -0.00474051
C        5.07114739       5.75539868       3.35188612       0.00033049      -0.00290271       0.01833392
C        3.73969983       7.77499798       3.59224512       0.00068973      -0.00120617      -0.00353521
C        2.46738426       9.90147212       3.77502962      -0.00005604      -0.00031044      -0.00026890
C        9.84675719       1.38641940       3.90357938      -0.00357129      -0.00262718       0.00113638
C        8.61899558       3.54176246       3.98011460       0.00297389      -0.00027253       0.00390189
C        7.42697949       5.70419103       3.89705795      -0.00476523      -0.00262458      -0.00101814
C        6.19442194       7.86104864       3.79352399       0.00066209       0.00324437       0.00250982
C        4.93332527       9.95792453       3.79832478      -0.00403576      -0.00263379      -0.00172268
Pt       2.42524112       5.02752930       3.20997517       0.00954859       0.00260157       0.00022512
