49
Lattice="12.336457 0.0 0.0 -6.168228499999997 10.683685154694365 0.0 0.0 0.0 15.0" Properties=species:S:1:pos:R:3:forces:R:3 energy=-432.15722615868066 free_energy=-432.15722615868066 stress="-0.005262322748181375 -0.0007500249863729609 1.161064647169236e-06 -0.0007500249863729609 0.0061573036059046436 1.6837530671876313e-06 1.161064647169236e-06 1.6837530671876313e-06 1.5689390864233854e-06" pbc="T T T"
C       -0.00520470       0.00804740       3.65003577       0.00131030       0.00477299      -0.00220859
C       -1.26247865       2.11512357       3.51492440       0.00739243       0.00137828       0.00531450
C       -2.48511418       4.26444285       3.40205775      -0.00086647      -0.00760448       0.00377551
C       -3.69021090       6.41991564       3.49404366      -0.00633562       0.00018256       0.01195612
C       -4.91988403       8.57571910       3.61052465      -0.00426029       0.00331854       0.00181106
C        2.45726692       0.05110560       3.68777516       0.00199454       0.00009503      -0.00585827
C        1.18355003       2.15789134       3.74038226      -0.00438968       0.00271634       0.00393687
C       -0.08946363       4.27570324       3.35861865      -0.00415297       0.00069122       0.00295025
C       -1.25798753       6.41549225       3.34537274      -0.00233501      -0.00001276      -0.00771173
C       -2.46626855       8.56740243       3.51718321      -0.00352251       0.00171789       0.00330141
C        4.93245431      -0.00081929       3.76885714       0.00483150      -0.00676716       0.00199831
C        3.68892086       2.09475876       4.20268956       0.00382742      -0.00375659      -0.00287301
O        1.12814388       6.38132050       3.52408328       0.01351253      -0.00539728       0.00048766
C       -0.00567787       8.51289071       3.60947030      -0.00001163       0.01196388      -0.00604459
C        7.40110811      -0.04834920       3.75086328       0.00426153       0.00626644      -0.01034982
C        6.18967086       2.11619076       3.98109209      -0.00110295      -0.00151992       0.00845156
C        5.14031494       4.33796992       4.42957977      -0.01742068       0.00087933       0.00346427
C        3.82940693       6.39503621       4.24592216       0.00407202       0.00305761       0.00448250
C        2.44321795       8.45138008       3.80032917      -0.00193304      -0.00460685      -0.00149790
C        9.85230156      -0.04735908       3.68328610      -0.00179030      -0.00392128       0.00579574
C        8.62559088       2.10863525       3.64616186       0.00165540      -0.00308958      -0.00438869
C        7.44041294       4.27087322       3.75452598       0.00342571      -0.00047783       0.00718553
C        6.25404137       6.44441811       3.87154028       0.00658024       0.00341332       0.00497227
C        4.94364407       8.52980937       3.80073823       0.00429596      -0.00150309      -0.00602971
C       -0.01263864       1.44287218       3.61926670       0.00335783       0.00326561       0.00019146
C       -1.26884465       3.53601287       3.38071765       0.00221286      -0.00250830       0.00370731
C       -2.47775673       5.68978825       3.37578524      -0.00824773      -0.00489805      -0.00558397
C       -3.69689282       7.85438282       3.51519779      -0.00674967       0.00280282       0.01424110
C       -4.93121030      10.00678506       3.63182524      -0.00077955       0.00405467      -0.00732409
C        2.43777322       1.48648978       3.87247561      -0.00301438      -0.00018011      -0.00404116
O        1.10180437       3.57705730       3.64772759      -0.01155369      -0.00152501      -0.01073336
C       -0.08556217       5.67078136       3.33048183      -0.00134216      -0.00008338       0.00507663
C       -1.24812099       7.84064839       3.46892021       0.00000578       0.00631793       0.00160167
C       -2.47677975      10.00133671       3.65176858       0.00275078      -0.00198395      -0.00493894
C        4.93004732       1.42052575       3.99901691       0.00274037      -0.01249687      -0.00063901
P        3.72142487       3.61004029       5.19652583       0.00295611      -0.00290292       0.00158071
C        1.20136502       7.79718141       3.68133969      -0.00115123       0.00406543      -0.01333753
C       -0.00437708       9.94550946       3.71581486       0.00711065       0.00900584      -0.00583512
C        7.39933241       1.39364568       3.78881666      -0.00143753       0.00424612       0.00048689
C        6.24752847       3.55313004       4.06570377      -0.00134348       0.00223735       0.00689337
C        5.08432106       5.73911081       4.22168760       0.00215479       0.00800911       0.00246569
C        3.71948383       7.77689203       3.94572354       0.00455460       0.00128652       0.00331521
C        2.45487673       9.89556937       3.73687261      -0.00357781      -0.00521049       0.00429511
C        9.85569351       1.39008833       3.59668311       0.00435985      -0.00175177      -0.01123702
C        8.63457441       3.54222336       3.57578586       0.00074423      -0.00451410       0.00643174
C        7.44478625       5.70269537       3.68984147       0.00087659      -0.00101132       0.00891674
C        6.20020504       7.85757324       3.74589035       0.00277857      -0.00345699       0.00114184
C        4.93168840       9.95091302       3.69573779       0.00218290      -0.00127929      -0.00522744
Pt       2.38691597       5.09969752       4.41505563      -0.00862711      -0.00328546      -0.01436906
