49
Lattice="12.336457 0.0 0.0 -6.168228499999997 10.683685154694365 0.0 0.0 0.0 15.0" Properties=species:S:1:pos:R:3:forces:R:3 energy=-438.500699901075 free_energy=-438.500699901075 stress="-0.011952982745811585 0.00034660890274846684 -3.000163549025669e-07 0.00034660890274846684 0.004194555293068681 -2.866879199997801e-07 -3.000163549025669e-07 -2.866879199997801e-07 7.178488346208417e-07" pbc="T T T"
C        0.00269804       0.01601865       3.75064480       0.00157965       0.00725277       0.00834391
C       -1.25492393       2.11164382       3.73711569      -0.00394020      -0.00689032       0.00099770
C       -2.48830052       4.26868498       3.72169733       0.00464540      -0.00252120      -0.00556328
C       -3.70145855       6.42672760       3.73112240       0.00462599      -0.00066044      -0.00459298
C       -4.92125348       8.58456674       3.74857905      -0.00465807       0.00284760      -0.00051849
C        2.46158461       0.08262648       3.75444459       0.00018976      -0.00379562      -0.00818543
C        1.19819338       2.16426789       3.76286487      -0.00109241       0.00140409      -0.00562495
C       -0.11835521       4.28345001       3.73020267       0.00107555       0.00029295       0.00109774
C       -1.29301588       6.43043827       3.71994391      -0.00291017       0.00053757       0.00143855
C       -2.48341109       8.58549749       3.73474059       0.00229061       0.00376433       0.00601368
C        4.93136526       0.01457358       3.74700599       0.00247173       0.01026865       0.00643715
C        3.73229398       2.20589599       3.77299545      -0.00415235      -0.00097120      -0.00213574
N        1.07832272       6.38622428       3.77034249      -0.01485336       0.00677850      -0.00169136
C       -0.02232683       8.52799277       3.74755136      -0.00074882      -0.01048403       0.00017306
C        7.40791490      -0.05219699       3.74927791      -0.01007326       0.00261435       0.00943714
C        6.19528607       2.10625471       3.75126188       0.00447195      -0.00495429       0.00609314
C        5.03194307       4.24014925       3.78454454       0.00472748       0.00037628      -0.00465946
C        3.83253732       6.37920924       3.80570084       0.00200529       0.00235247      -0.00895012
C        2.45268078       8.45641447       3.77603322       0.00078044       0.00679952      -0.00587506
C        9.86061829      -0.05123215       3.75610823       0.00239610      -0.00330762      -0.00503794
C        8.63831788       2.10111989       3.73939196       0.00505411       0.00415260      -0.00795765
C        7.43355611       4.26298568       3.74238005      -0.00865830      -0.00530811       0.00586239
C        6.22983694       6.42794498       3.76535745       0.00400763      -0.00013941       0.00226504
C        4.95462347       8.53602082       3.77000559       0.00162494      -0.00319886       0.00711474
C       -0.00333280       1.44714240       3.74782930      -0.00130111       0.00456461       0.00989078
C       -1.27373926       3.53637119       3.72440564       0.00230074      -0.00692429      -0.00240942
C       -2.49187637       5.69542113       3.71991784       0.00481605      -0.00369238      -0.00448198
C       -3.70277605       7.86251640       3.73641935      -0.00048967       0.00417617      -0.00035399
C       -4.92533591      10.02132227       3.75023094      -0.00146081       0.00099011       0.00804814
C        2.45056383       1.53189629       3.76671470      -0.00516219      -0.00616742      -0.00841814
O        1.09578288       3.58979261       3.77835137       0.00129063       0.00031027      -0.00166526
C       -0.10220043       5.68933093       3.72975612      -0.00728074       0.00339505       0.01066657
C       -1.26279955       7.85366499       3.73226295      -0.00085369      -0.00358852      -0.00266335
C       -2.48243852      10.02021535       3.74575452       0.00629597       0.00555431      -0.00122556
C        4.94243797       1.44093867       3.75632441       0.00006079       0.00720734       0.00689114
N        3.84521012       3.57620355       3.79300379       0.00831201      -0.00200119      -0.00538114
C        1.19090588       7.75532488       3.76696252       0.00031442       0.00215039      -0.01287337
C       -0.00470820       9.95124773       3.74642533      -0.00717306      -0.00964098       0.00732073
C        7.41545794       1.37832958       3.74391576       0.00728737       0.00165309       0.00802439
C        6.23080841       3.52203867       3.75942263      -0.00377329      -0.00829759      -0.00335239
C        5.03468167       5.67912736       3.78891820       0.00354858       0.00190678       0.00171146
C        3.71938777       7.78189679       3.78691534      -0.00156156       0.00174437      -0.00126389
C        2.46160808       9.89007734       3.76173426      -0.00505469       0.00684206      -0.00830029
C        9.86699785       1.38369938       3.74290876      -0.00190441      -0.00320437      -0.00136449
C        8.64217416       3.53689693       3.73161957      -0.00116680       0.00438397       0.00035000
C        7.43075148       5.69730950       3.74415054       0.00096160      -0.00420771       0.00318571
C        6.19593403       7.85505463       3.76195848      -0.00028041      -0.00198728      -0.00341153
C        4.93969459       9.95507468       3.75784894       0.00449492      -0.00152078       0.00469959
Pt       2.50547643       5.03237740       3.81165545       0.00691965      -0.00085662       0.00189452
