49
Lattice="12.336457 0.0 0.0 -6.168228499999997 10.683685154694365 0.0 0.0 0.0 15.0" Properties=species:S:1:pos:R:3:forces:R:3 energy=-432.7604562028109 free_energy=-432.7604562028109 stress="-0.007557565838907746 -0.0013772369529890015 5.077713575497772e-06 -0.0013772369529890015 -0.0007906012409148378 -1.3185516960865087e-07 5.077713575497772e-06 -1.3185516960865087e-07 -1.5414057806065045e-07" pbc="T T T"
C       -0.00791605      -0.00708193       3.80319808       0.01088841       0.00174682      -0.00353636
C       -1.26792556       2.11280348       4.08021976      -0.00389803      -0.00105771      -0.00433595
C       -2.51451169       4.26918610       3.96681467       0.00250846      -0.00348679      -0.00118816
C       -3.69403320       6.41948790       3.67760422       0.00113863       0.01023281       0.00417209
C       -4.91979502       8.56436264       3.60775365      -0.00295574       0.00009689      -0.00039730
C        2.46858240      -0.00931856       3.74938409       0.00104587       0.00101761       0.00002977
C        1.23922131       2.06715903       4.14857413      -0.00222269      -0.00472047       0.00225502
C       -0.18933684       4.32268569       4.57785808      -0.00335262       0.00956255       0.00032404
C       -1.31875305       6.44401341       4.12767173       0.00282051      -0.00447726      -0.00352475
C       -2.47170577       8.55769591       3.78154565      -0.00128080      -0.00266993      -0.00009209
C        4.94143440      -0.00915698       3.67148367      -0.00162117      -0.00792001      -0.01711031
C        3.67884021       2.07451770       3.44584688       0.01124014      -0.00294587      -0.00267594
C        1.11236254       6.40737753       4.29110386      -0.00620284      -0.00937591      -0.00370514
C       -0.00628882       8.53375411       3.90578582      -0.00002808      -0.00284846       0.00394325
C        7.40688389      -0.03721720       3.68874810      -0.00187163       0.01003408       0.00178755
C        6.17497815       2.12417552       3.41834286       0.00202630      -0.00206051       0.00323659
C        5.06348030       4.34441209       3.04465375      -0.00081166       0.00008242      -0.00597233
N        3.88114376       6.42439268       3.42030775       0.00391201      -0.00027198      -0.00403290
C        2.47936806       8.46713237       3.76438601      -0.00506119       0.00003644       0.00707169
C        9.85911290      -0.03446927       3.75153321       0.00367166      -0.00183882       0.00953400
C        8.62772359       2.11669207       3.71647384      -0.00138793      -0.00435257       0.00055191
C        7.43414705       4.27444597       3.46075081      -0.00941478      -0.00059987       0.00417872
C        6.25589047       6.45931771       3.29133964       0.00121278       0.00368458      -0.00401701
C        4.95562961       8.54451839       3.53789712       0.00314596       0.00810006       0.00662343
C       -0.01566367       1.40755792       4.03783620      -0.00343870      -0.00047155      -0.00839153
C       -1.31550570       3.54486006       4.24069610       0.00526292       0.00079186       0.00087438
C       -2.50822410       5.70060664       3.93601832       0.00155748       0.00095815       0.00325613
C       -3.69411242       7.84550206       3.68247766      -0.00243863       0.00658992      -0.00022652
C       -4.93720471       9.97765262       3.72948992       0.00581402      -0.00340160      -0.00415230
C        2.46231184       1.41036493       3.80301996       0.00692514       0.00424129       0.00908200
P        1.33595480       3.58006728       5.09837056      -0.00237669       0.00392147      -0.00075374
C       -0.13414619       5.73547302       4.41364315      -0.00285517      -0.00031530      -0.00231262
C       -1.25494210       7.84984181       3.94008890       0.00047679      -0.00471655       0.00027552
C       -2.46297022       9.97487819       3.72242934      -0.00392254      -0.00471974      -0.00373297
C        4.93741151       1.41805345       3.49362935       0.00790595      -0.00682083      -0.00555315
S        3.56018744       3.59806331       2.62008377      -0.00417639      -0.00203946      -0.00001104
C        1.23040903       7.78597174       3.98553366      -0.00354900      -0.00905888       0.00749491
C        0.00338197       9.94786687       3.74233968       0.00062841       0.00264186       0.00271626
C        7.39720404       1.40175102       3.59161349      -0.00089719       0.00466091       0.00222484
C        6.20876043       3.55763276       3.27752552      -0.00777980      -0.00407798       0.00292521
C        5.05307406       5.75643799       3.15560080       0.00377395      -0.00161031      -0.00106409
C        3.73820793       7.78399476       3.56929989       0.00169107       0.00155590       0.00455348
C        2.46937776       9.90829537       3.72574727      -0.00302535       0.00514325       0.00591058
C        9.85543313       1.39912437       3.85451626      -0.00343278      -0.00520296       0.00401674
C        8.62990276       3.54933070       3.70896416      -0.00373859      -0.00561572      -0.00274065
C        7.44636694       5.70419037       3.44793068       0.00003734       0.00681405      -0.00234236
C        6.19793674       7.86394474       3.45843975      -0.00219494       0.00453920      -0.00338987
C        4.93236450       9.95735862       3.70028018       0.01094352       0.00835084       0.00359227
Pt       2.55334490       5.08884216       4.08986767      -0.00469237       0.00187405      -0.00537129
