49
Lattice="12.336457 0.0 0.0 -6.168228499999997 10.683685154694365 0.0 0.0 0.0 15.0" Properties=species:S:1:pos:R:3:forces:R:3 energy=-438.40035955790853 free_energy=-438.40035955790853 stress="-0.008689942039976821 0.0006056132911596178 -6.33612793087674e-06 0.0006056132911596178 0.0027864928346971875 1.1839706240772172e-06 -6.33612793087674e-06 1.1839706240772172e-06 2.267655407823424e-06" pbc="T T T"
C       -0.00856524       0.01186951       3.84953746       0.00116611      -0.00292976       0.00991621
C       -1.25568199       2.11511951       4.07282278       0.00070978      -0.00506657       0.00772257
C       -2.49253834       4.27003528       4.16296845      -0.00568310       0.00575546      -0.00153203
C       -3.70848424       6.42486085       3.98201404      -0.00318660       0.00667323       0.00053308
C       -4.93465097       8.57324736       3.77254296      -0.00062572      -0.00092474      -0.00551659
C        2.46300794       0.05700747       3.79347402       0.00240583       0.00072635      -0.00435231
C        1.21200720       2.18221730       3.81259014       0.00294901       0.00191901       0.00089690
C       -0.07585388       4.27836117       4.02915183      -0.00082882       0.00051661      -0.00131174
C       -1.28520815       6.44231560       4.09080153      -0.00619114      -0.00629101       0.00778198
C       -2.48600299       8.58013138       3.93585214      -0.00404222      -0.00068437      -0.00480705
C        4.93394669       0.01040832       3.81102076       0.00589326       0.00683981       0.00455182
C        3.72103451       2.17898556       3.56495209      -0.00843489       0.00921975       0.00067967
N        1.06375071       6.38949745       3.65786719       0.01784500      -0.00229089       0.00216958
C       -0.01854381       8.52553587       3.85586248      -0.00491421      -0.00241925      -0.00296070
C        7.40505358      -0.04212734       3.88120778       0.00005614       0.00633346      -0.00385028
C        6.19847961       2.10668831       3.76811942       0.00012234      -0.00765210       0.00171891
C        5.08446355       4.23393428       3.28250041       0.00358170       0.00244475       0.00768976
P        3.78498446       6.43328158       2.25709803      -0.01456979      -0.00668239      -0.00053890
C        2.45468152       8.48854753       3.60563753       0.00243236      -0.00042399      -0.00527883
C        9.85774046      -0.03864951       3.89663847      -0.00738294      -0.00728031       0.00102820
C        8.63244710       2.10618941       4.03301388       0.00920135      -0.00274432      -0.00691167
C        7.43716974       4.26159236       3.85458991       0.00437735      -0.00380455      -0.00733015
C        6.25011533       6.41711519       3.47080724       0.00259293       0.00232799       0.01379118
C        4.94318758       8.55125737       3.54761442       0.00136411       0.00243155      -0.00294905
C       -0.02122194       1.43056799       3.93699832       0.00201534      -0.00234010       0.00565217
C       -1.28175715       3.54211257       4.15816329      -0.00547541       0.00270101       0.00077516
C       -2.49513079       5.70575535       4.12561558      -0.01009028       0.00278891       0.00428874
C       -3.70974757       7.85806212       3.90852310      -0.00421650       0.00251890       0.00419435
C       -4.93362493      10.00651126       3.80681771       0.00248122      -0.00377378      -0.00829707
C        2.46822293       1.48738248       3.70621421      -0.00304381       0.00224846      -0.00179660
C        1.08780424       3.57754513       3.77308585       0.00889200       0.00079520      -0.01181845
C       -0.07999181       5.72347470       3.98563231       0.00233217      -0.00019756       0.00363979
C       -1.25940695       7.85572089       3.97861351      -0.00704006      -0.00685165      -0.00523091
C       -2.47886253      10.00711403       3.83908529       0.00587174       0.00421832       0.00066378
C        4.95243179       1.42704673       3.70548839      -0.00603582       0.00625024      -0.00005608
C        3.83349836       3.57339062       3.29003817      -0.00589701       0.01085805       0.00040253
C        1.19013954       7.76327975       3.69258575       0.00375120       0.00004014      -0.00101889
C       -0.00547942       9.95140791       3.84889588       0.00390593       0.00151645       0.00284805
C        7.41289376       1.38494240       3.91773397       0.00558333       0.00133645      -0.00172527
C        6.24956780       3.52204771       3.64379431       0.00614863      -0.00911234       0.00239744
C        5.14618506       5.64556726       3.07672571      -0.00292742       0.00645724       0.01129401
C        3.69996582       7.87887354       3.31444462       0.00370058      -0.00833809      -0.00281420
C        2.45895313       9.91445197       3.82686617      -0.00689503      -0.00076946       0.00091574
C        9.85418843       1.38623017       4.03874033       0.00214831      -0.00827780      -0.00569153
C        8.63465423       3.54172731       4.06048068       0.00288892      -0.00170853      -0.00220936
C        7.43555498       5.69504026       3.80050340       0.00488688       0.00028320      -0.00571502
C        6.19303132       7.85227038       3.56827582       0.00025337       0.00185704       0.00564069
C        4.93115227       9.96214144       3.79161461      -0.00353969       0.00166329       0.00548398
Pt       2.41783240       4.92846333       3.17109763       0.00146358      -0.00015731      -0.01296359
