49
Lattice="12.336457 0.0 0.0 -6.168228499999997 10.683685154694365 0.0 0.0 0.0 15.0" Properties=species:S:1:pos:R:3:forces:R:3 energy=-438.38461396871224 free_energy=-438.38461396871224 stress="-0.012670480007333817 -0.000955470673052783 -1.0362872659347584e-07 -0.000955470673052783 0.0034394079803197167 -1.8523483837092708e-07 -1.0362872659347584e-07 -1.8523483837092708e-07 -5.817210926655992e-07" pbc="T T T"
C        0.00132248       0.01632513       3.75236596      -0.00492686       0.00222262       0.00420882
C       -1.26460214       2.10633734       3.73777068       0.00603078       0.00690365      -0.00219671
C       -2.50261670       4.26270480       3.72027970       0.00167158       0.00458111       0.00459137
C       -3.70353881       6.42633425       3.72773417       0.00018238      -0.01027495      -0.00433930
C       -4.92599546       8.58292283       3.74723841      -0.00095114      -0.00329542      -0.00315625
C        2.46816390       0.08088879       3.75895072      -0.00259438       0.00111385      -0.00541098
C        1.19998414       2.19817268       3.76937748      -0.00524769      -0.00355772      -0.00144067
C       -0.10350020       4.24331372       3.74899075      -0.00692718      -0.00370965       0.00191025
C       -1.29653722       6.42848133       3.72976892      -0.00240278       0.00102878      -0.00325518
C       -2.48200288       8.58701189       3.73578273       0.00770057      -0.00119063       0.00334625
C        4.93275742       0.01702707       3.74931642       0.00403735       0.00183016       0.00695389
C        3.72727960       2.21229837       3.77493891       0.00486339      -0.00394391      -0.00655403
C        1.10541935       6.36991494       3.78326717      -0.01159997      -0.00520136      -0.01464927
C       -0.01503746       8.52990937       3.74949202       0.00241212       0.00827610       0.00121005
C        7.41120940      -0.05151976       3.75230809      -0.00147639      -0.01268059      -0.01079001
C        6.18728531       2.11511114       3.75146006      -0.00288773      -0.00415962      -0.00161175
C        5.02358718       4.27796171       3.76752013       0.01024823       0.00068924       0.00175118
O        3.87389136       6.40872019       3.84156528       0.00549025       0.00770100       0.01088168
C        2.49675236       8.45257152       3.77171772      -0.00204782       0.00331644      -0.00698611
C        9.86094281      -0.05123801       3.74792748       0.00681361      -0.00424410       0.00353734
C        8.63046359       2.10184907       3.73407109      -0.00489681       0.00138725       0.00543928
C        7.41972464       4.26901685       3.73560689      -0.00701955       0.00648010      -0.00873584
C        6.21962219       6.43066408       3.74728151       0.00441077       0.00821325      -0.00510590
C        4.95488064       8.53426809       3.75799760      -0.00004422      -0.00008156       0.00601458
C       -0.01600539       1.43815405       3.75235103      -0.00238453       0.00523207       0.00142316
C       -1.30022946       3.52260620       3.72911126      -0.00264985       0.00128649       0.00022704
C       -2.49703717       5.69733418       3.72090557       0.00234394      -0.00306504       0.00152047
C       -3.69982240       7.86300821       3.73541738       0.00206984      -0.00382669       0.00067298
C       -4.92327440      10.02019962       3.75540451      -0.00966750       0.00410775      -0.00961756
C        2.46621479       1.52161715       3.77151489       0.00029497       0.00145977      -0.00486755
N        1.07470142       3.56636640       3.77960459      -0.00159943       0.00097847      -0.01863640
C       -0.09573153       5.68138535       3.75085213      -0.01428052      -0.00867940      -0.00094541
C       -1.26093636       7.85381528       3.73434579       0.00745930       0.00020236       0.01147541
C       -2.47671266      10.01885722       3.74720418       0.00423648       0.00288828       0.00722920
C        4.94326138       1.44330980       3.75899327       0.00172140      -0.00475279       0.00334941
N        3.83583452       3.58285822       3.78833970       0.01183702       0.00061715       0.00400978
C        1.21804222       7.76376862       3.76931154      -0.00524017       0.00384737       0.00159445
C       -0.00406398       9.95206972       3.74809652      -0.00066693       0.00292767       0.01482740
C        7.40890398       1.38099566       3.74569653      -0.00697648      -0.00858068      -0.00469314
C        6.21626227       3.53826067       3.74942161       0.00255277      -0.00437462      -0.00226548
C        5.06560187       5.68420292       3.77006458       0.00704646       0.00565826       0.00851035
C        3.75257180       7.82015209       3.77755159      -0.00020860       0.00510091       0.00227327
C        2.47479578       9.89099224       3.75682083       0.00219699      -0.00284802      -0.00200673
C        9.85270336       1.38192903       3.73715246       0.00623411      -0.00341826       0.00188507
C        8.62874212       3.53581988       3.72651564      -0.00619223       0.01146127      -0.00085303
C        7.42788385       5.69476727       3.73493215      -0.00075630       0.00153036      -0.01118747
C        6.19904160       7.85859854       3.75155053      -0.00012381       0.00037899      -0.00347101
C        4.93720699       9.95975538       3.75051203       0.00674719      -0.00652401       0.00553508
Pt       2.42998323       4.95867799       3.82031932      -0.00483263      -0.00301168       0.01839801
