49
Lattice="12.336457 0.0 0.0 -6.168228499999997 10.683685154694365 0.0 0.0 0.0 15.0" Properties=species:S:1:pos:R:3:forces:R:3 energy=-429.0651657127437 free_energy=-429.0651657127437 stress="-0.008243324014495158 0.0022318078766588234 -4.738357286292407e-06 0.0022318078766588234 -0.010254618575812443 -1.6271429865445073e-05 -4.738357286292407e-06 -1.6271429865445073e-05 2.4953122308432448e-06" pbc="T T T"
C       -0.00828473      -0.03320217       3.77568942       0.00303862       0.00665323      -0.00669165
C       -1.22386018       2.12489100       3.66598264       0.00120040       0.00192126      -0.00367382
C       -2.45860168       4.26577293       3.70613338       0.00279526      -0.00788459      -0.00463360
C       -3.70418996       6.39494038       3.69818725      -0.00539548       0.00917071      -0.00178724
C       -4.95245100       8.51395180       3.72972136       0.00072772      -0.00414609      -0.00313962
C        2.44526861      -0.07342919       4.01680937       0.00163909      -0.00069837      -0.00788214
C        1.26332629       2.03941979       3.63290609      -0.00522410       0.00373901      -0.00734768
C       -0.02393351       4.31378178       3.53869456      -0.00151875      -0.00885224       0.00175469
C       -1.27215697       6.42075853       3.83803356      -0.00795623      -0.00637283       0.01258112
C       -2.49107124       8.52341242       3.96456543       0.00707983       0.01483920      -0.00172746
C        4.92845952      -0.02731889       4.08662070      -0.00229973       0.00640473       0.00103458
C        3.68609539       2.01493713       4.11493958      -0.00933626      -0.01268229       0.00058452
C        1.13897080       6.46380532       3.97596927       0.00846067      -0.01044755       0.00119817
C       -0.02888892       8.55525181       4.00195037      -0.00042227       0.00466985       0.01444791
C        7.39910672       0.00260709       3.98604210      -0.00578949       0.00373195      -0.00630297
C        6.17180753       2.12495903       3.89134414       0.00427021      -0.00755085      -0.00261045
C        5.04933249       4.26933955       3.28106665       0.00254025       0.00302040      -0.00687121
P        3.44207997       6.32520306       2.69775499      -0.00729540      -0.00479984       0.01308107
C        2.45719419       8.56509410       3.82129641       0.00574075       0.00062097       0.01035990
C        9.87135164      -0.00179998       3.80873934      -0.00221421       0.01152876      -0.00121926
C        8.64413392       2.12754162       3.80554169       0.00510605       0.00331750       0.00048429
C        7.43299897       4.25446595       3.60005350       0.00462758       0.00072472       0.00416168
C        6.21901995       6.40984143       3.29786241      -0.00250281      -0.00603761       0.00065756
C        4.92745434       8.53664010       3.56326349       0.00446129      -0.00604791      -0.00337341
C        0.00244722       1.39466542       3.69287686      -0.00061621       0.00892525      -0.00100592
C       -1.22152433       3.55562837       3.63310086       0.00016452      -0.00829566      -0.00584130
C       -2.47750305       5.68740370       3.75453083      -0.01015848      -0.00498695       0.00014594
C       -3.71553346       7.81199941       3.80065336       0.00567391       0.01079451       0.00013059
C       -4.95479431       9.92434807       3.85889053       0.00296809      -0.00263298      -0.01071806
C        2.44802795       1.33577358       3.98083850      -0.00682996      -0.00533402      -0.01262232
P        1.46510829       3.60663252       2.82919573      -0.00451490      -0.00953134       0.00475837
C       -0.04131006       5.71234621       3.77551158      -0.00396716      -0.01150370       0.01410583
C       -1.25624033       7.83090606       3.96240641      -0.00084205       0.00276248       0.00191256
C       -2.47886779       9.93444043       4.05948839       0.00452072       0.01141721       0.00366738
C        4.94755631       1.39411160       4.06051061      -0.00315773      -0.00235329      -0.00498165
P        3.55102391       3.71302976       3.98699850      -0.00278179       0.00763551      -0.00616573
C        1.21275321       7.86177433       3.93327414       0.00396833      -0.00145336       0.01392828
C       -0.00773718       9.96887921       4.04393547      -0.00694136       0.00739123      -0.00910359
C        7.40382495       1.42225575       3.91513190       0.00612633       0.00008814       0.00072923
C        6.21126089       3.52140001       3.59361143       0.00631905      -0.00387371      -0.00067505
C        5.05745457       5.65701435       3.03626951      -0.00069749       0.00038942      -0.01220605
C        3.66356624       7.88456177       3.52309062       0.00436652      -0.00988958       0.00704834
C        2.46468801       9.98772405       3.89894716      -0.00209019       0.00767766       0.00263178
C        9.87976364       1.42166424       3.77545867       0.00187871       0.00993037      -0.00514598
C        8.65415322       3.54772910       3.71616270       0.00468602      -0.00058165       0.00084946
C        7.42881765       5.67807044       3.51665049      -0.00330622       0.00238665       0.00262902
C        6.16690521       7.82178427       3.49801416       0.00069008      -0.01094558       0.00174619
C        4.92813898       9.95709879       3.72811755       0.00057761       0.00474684       0.00620790
Pt       2.63225141       5.43644311       4.88188596       0.00223063       0.00241442       0.00488982
