49
Lattice="12.336457 0.0 0.0 -6.168228499999997 10.683685154694365 0.0 0.0 0.0 15.0" Properties=species:S:1:pos:R:3:forces:R:3 energy=-428.11042635382285 free_energy=-428.11042635382285 stress="-0.004777204580889897 -0.001550734387874912 -1.0970595805364663e-05 -0.001550734387874912 -0.002569510820672774 1.8920674273960954e-05 -1.0970595805364663e-05 1.8920674273960954e-05 4.139698588712813e-06" pbc="T T T"
C        0.00355518      -0.01904137       3.74226571       0.00303462       0.01114623      -0.00501319
C       -1.25121430       2.11091044       3.51119735      -0.00620988       0.00013812      -0.00315490
C       -2.49669442       4.26175121       3.64770098       0.00001924       0.00040063      -0.00235281
C       -3.67846502       6.41110345       3.89870465      -0.00186675      -0.00375608       0.00507749
C       -4.90637379       8.54969606       3.91287247      -0.00054522      -0.00343932       0.00369234
C        2.47822241      -0.02313636       3.77365971      -0.00656580      -0.00360894       0.00161950
C        1.23891261       2.04399039       3.35169342       0.00519589       0.00422507       0.00171290
C       -0.21802733       4.28372083       2.84936614       0.00409932      -0.00251729      -0.00639559
C       -1.30277195       6.42411232       3.30783345      -0.00143742      -0.00095397      -0.00342288
C       -2.44504117       8.53988886       3.71775725       0.00896392       0.00153369       0.00752454
C        4.94681287      -0.00799328       3.88890934      -0.00170798       0.00854043       0.00303873
C        3.67647157       2.07540245       4.07851114      -0.00221856       0.01250808       0.00562119
S        1.21072416       6.53167735       2.18881295      -0.01604235       0.01029653      -0.00300245
C        0.00302497       8.55647796       3.50381209       0.00418499      -0.00226907      -0.00126643
C        7.41205652      -0.01514048       3.87945190      -0.00595840      -0.00064669       0.00199370
C        6.18368520       2.12274976       4.20497487       0.00815697       0.00203825      -0.00728114
C        5.06590725       4.33493496       4.56245074      -0.00524792      -0.01060580      -0.00128772
C        3.81282313       6.40413258       4.07265744       0.00331299       0.00325194       0.00921092
C        2.47597249       8.51596441       3.66507983      -0.00785445      -0.00049723      -0.00772419
C        9.87552814      -0.02070134       3.82205492      -0.00127724      -0.00965415      -0.00541748
C        8.64192434       2.12260515       3.92256639      -0.00018028       0.00024067       0.00135375
C        7.44796374       4.27325602       4.18051775       0.00052320      -0.00283910       0.00133840
C        6.25123098       6.44785327       4.24188861       0.00732739      -0.00178653       0.00861367
C        4.95678516       8.53593418       3.94360442      -0.00272537      -0.00035103      -0.00699131
C       -0.01034105       1.39769477       3.51789969       0.00019058       0.01304175       0.00911489
C       -1.31048766       3.52849551       3.33131646       0.00016466       0.00209945      -0.00296924
C       -2.48848971       5.69061284       3.63644815      -0.00225526      -0.00168571      -0.00286688
C       -3.67803061       7.83353617       3.84992079       0.00385472      -0.00215089      -0.00629970
C       -4.92389531       9.96231650       3.79576705      -0.00462483      -0.00058023      -0.00601505
C        2.46922277       1.40022837       3.73107293       0.00096376      -0.00134181      -0.00459865
S        1.26164683       3.47119730       2.35751382      -0.00083565      -0.00225361       0.00260503
C       -0.21825680       5.67737407       2.81655097       0.00781475       0.00251760       0.01047218
C       -1.23278529       7.84137526       3.48531253       0.00812716      -0.00132984      -0.00239781
C       -2.44823812       9.96343560       3.80324170      -0.00156509       0.00405665       0.00028140
C        4.93728967       1.41546450       4.09341465       0.00284068       0.01303077      -0.01099056
P        3.46492703       3.65613002       4.87261984      -0.00011262      -0.01421098      -0.00730460
C        1.25305012       7.91137488       3.27239999      -0.00280449      -0.01353314       0.00863346
C        0.00941945       9.96601250       3.78715732      -0.00442868      -0.00076974      -0.00045237
C        7.40904621       1.41186810       4.02945301       0.00310114      -0.00089700      -0.00118529
C        6.22385743       3.55365270       4.36791012       0.00340411      -0.00213999      -0.00259804
C        5.03404289       5.74212054       4.38096213       0.00747201      -0.00583978       0.00405064
C        3.72126773       7.79677195       3.87523456      -0.00789558       0.00596014      -0.00179400
C        2.47455581       9.94774157       3.81513899      -0.00822774      -0.00267980      -0.00239213
C        9.87375314       1.40937397       3.75990876      -0.00302057      -0.00737506       0.01565226
C        8.64345950       3.55022913       3.94093149      -0.00200146       0.00009024      -0.00351521
C        7.45503779       5.70298250       4.14501909       0.00241761      -0.00547267       0.00304661
C        6.20488128       7.84999814       4.04329227      -0.00119470      -0.00287346       0.00223495
C        4.94256927       9.95210282       3.83225400       0.00699773       0.00257098       0.00684057
Pt       2.42687816       5.08631060       3.54563574       0.00663686       0.01037171      -0.00503948
