50
Lattice="12.336457 0.0 0.0 -6.168228499999997 10.683685154694365 0.0 0.0 0.0 15.0" Properties=species:S:1:pos:R:3:forces:R:3 energy=-450.6513078177488 free_energy=-450.6513078177488 stress="-0.002465512690794805 -1.1911309857118319e-06 -1.6502622892510743e-08 -1.1911309857118319e-06 -0.00238326472085694 1.1002905282206085e-05 -1.6502622892510743e-08 1.1002905282206085e-05 -1.0001985022349564e-06" pbc="T T T"
C       -0.00085462      -0.00475903       3.58443006      -0.00350463       0.00390778      -0.00334664
C       -1.23286149       2.13730071       3.67583707       0.00106430       0.00084326       0.00554266
C       -2.46459151       4.26940982       3.67390047       0.00438524       0.00364674       0.00587166
C       -3.70191550       6.40528301       3.59089849      -0.00171008      -0.01189849      -0.01516179
C       -4.93498108       8.54160834       3.55222630      -0.00346473      -0.00179004       0.00012156
C        2.46644626      -0.01020237       3.56414913       0.00089738      -0.00018747       0.00086344
C        1.22939601       2.11278191       3.71629654      -0.00399729      -0.00283246      -0.00265618
C        0.01131291       4.28639921       3.89731096      -0.00693477      -0.00502366       0.00132307
C       -1.24523116       6.41314371       3.67878300      -0.00129700       0.00444145      -0.00417863
C       -2.46838123       8.54147355       3.55269548      -0.00166537       0.00316613      -0.00114884
C        4.93351195      -0.00476416       3.58634470       0.00681100       0.00698262      -0.01070551
C        3.70384909       2.11294024       3.71869332      -0.00027262      -0.00560589      -0.00202883
C        2.46581732       4.12820650       4.21968666       0.00290024       0.00090519       0.00614347
N        1.07385510       6.50431935       4.16507658       0.00665167      -0.00620414       0.00247625
C       -0.01203454       8.54799541       3.66062518      -0.00298701       0.00214425      -0.00179865
C        7.40352769      -0.00852986       3.65691110      -0.00198462      -0.00547086       0.00666048
C        6.16596938       2.13753254       3.67663451      -0.00350351       0.00002352       0.01103425
C        4.92116974       4.28655814       3.90123623       0.00833834      -0.00421715       0.00278429
N        3.85890520       6.50518365       4.16982766       0.00176654      -0.00686821      -0.00845133
C        2.46631326       8.51135185       3.85231617       0.00094614       0.00175373       0.00002873
C        9.86564474      -0.00905952       3.65799797       0.00473356       0.00208063       0.00121715
C        8.63500233       2.13247111       3.65251332      -0.00505002       0.00647957       0.00658477
C        7.39703748       4.26938076       3.67429122      -0.00163217       0.00547850       0.01366987
C        6.17774457       6.41319475       3.68165780       0.00416953       0.00497677      -0.00888607
C        4.94504834       8.54777942       3.66143978       0.00043795       0.00446084      -0.00249536
C       -0.00383321       1.41697740       3.64314367      -0.00322175       0.00033445       0.00605614
C       -1.22522778       3.56629144       3.73882485      -0.00398393      -0.00415852       0.00518461
C       -2.47007393       5.69186792       3.63619521       0.00306291       0.00040645       0.00515723
C       -3.70168817       7.82811096       3.55246835      -0.00325705      -0.00927040      -0.00284623
C       -4.93645948       9.96663788       3.55298501      -0.00435089       0.00309970      -0.01039628
C        2.46667829       1.41045076       3.65849023      -0.00190613      -0.00257651      -0.00297921
C        1.22628241       3.53602253       3.94514403      -0.00381495      -0.00302779       0.00321281
C       -0.02164715       5.71538651       3.89965682      -0.00371748      -0.00147897      -0.00079078
C       -1.23767974       7.82982058       3.62129235      -0.00219311       0.00390792      -0.01896537
C       -2.46725041       9.96649722       3.55300118       0.00761754       0.00659091      -0.00192744
C        4.93696572       1.41700202       3.64573438       0.00159813       0.00160817       0.00183555
C        3.70631290       3.53606235       3.94861128       0.00535880      -0.00547574      -0.00245846
C        1.20275383       7.84359301       3.87465926      -0.00199150       0.00108572      -0.00146864
C       -0.00040127       9.97104594       3.61827588      -0.00072030      -0.00048266       0.00557593
C        7.40110428       1.42086714       3.64883543      -0.00785158      -0.00184508       0.00497191
C        6.15777556       3.56637369       3.74104860       0.00381585      -0.00020903       0.00182981
C        4.95404280       5.71567242       3.90421942       0.01113046       0.00046821      -0.00317443
C        3.73010073       7.84391039       3.87708688       0.00317223      -0.00112573      -0.00505171
C        2.46618129       9.95032335       3.71283778       0.00377035       0.00021276       0.00716279
C        9.86871282       1.42036146       3.64939894       0.00050841       0.00425532       0.00293192
C        8.63454730       3.55655474       3.65465111       0.00109537       0.00992343       0.00436112
C        7.40257627       5.69194648       3.63786289      -0.00335052      -0.00157990       0.00149816
C        6.17069177       7.82975456       3.62080423      -0.00202429       0.00224507      -0.00645213
C        4.93316975       9.97071594       3.61832501       0.00186850       0.00187458       0.00446931
Pt       2.46494437       5.74546023       5.33532676      -0.00571315      -0.00597496      -0.00120043
