50
Lattice="12.336457 0.0 0.0 -6.168228499999997 10.683685154694365 0.0 0.0 0.0 15.0" Properties=species:S:1:pos:R:3:forces:R:3 energy=-443.0568466475792 free_energy=-443.0568466475792 stress="-0.0005704769325547539 0.0047185451199230465 2.3168096415988935e-06 0.0047185451199230465 -0.0032579994905144478 -1.814600635211878e-05 2.3168096415988935e-06 -1.814600635211878e-05 2.118775761067371e-06" pbc="T T T"
C       -0.01771032      -0.00688250       3.79353564       0.01458618       0.00164925       0.00039267
C       -1.21871173       2.15640364       3.84434105      -0.01304503      -0.00076966      -0.00532827
C       -2.44358856       4.27794771       3.84246655       0.00368008       0.00001176      -0.00517726
C       -3.71798964       6.39900177       3.79307238      -0.00402628       0.00349950       0.00210068
C       -4.97467035       8.52570106       3.76434255       0.00208181      -0.00658162       0.00137198
C        2.43936083      -0.02410018       3.74346412      -0.00441130       0.00676624       0.00139541
C        1.23818585       2.13705782       3.86778411      -0.00657497       0.00288643       0.00975397
C        0.04410408       4.33006351       3.96095994       0.01135710       0.00297058      -0.00007660
C       -1.24244818       6.42074737       3.80869195      -0.00157563      -0.00117084       0.00558049
C       -2.49965228       8.53354169       3.71869927      -0.00081000       0.00861998       0.00132259
C        4.91302576      -0.01545450       3.65247880      -0.00442752      -0.00266249      -0.00880435
C        3.69263888       2.08765469       3.71428758       0.00286231       0.00384291      -0.00268783
C        2.53973803       4.20765670       4.08058994       0.00243878      -0.01024846      -0.00900816
O        1.14837204       6.52019833       3.95579542      -0.00142009      -0.00232476      -0.00895089
C       -0.04655693       8.54900532       3.62686667       0.00281332      -0.01241474      -0.00765221
C        7.38532089      -0.00486642       3.63916477      -0.00616288      -0.00271263      -0.00084447
C        6.17354128       2.10663990       3.67753992       0.00425103      -0.00161623      -0.00131435
C        4.94693551       4.19705272       3.70579690      -0.00020145       0.00716046       0.00527327
S        3.64250022       6.31213765       2.53552541       0.00446200      -0.01708255      -0.00449079
C        2.39682819       8.54534315       3.58859806      -0.00242300       0.00573207       0.00047068
C        9.85766433       0.00698440       3.71959526       0.00370435      -0.00393783       0.00506053
C        8.64509514       2.13534601       3.74724457      -0.00302273      -0.00634065       0.00807520
C        7.41636788       4.25523883       3.76071390       0.00331745      -0.00668532      -0.00156549
C        6.14541905       6.39234420       3.74645865      -0.00549072      -0.00176062       0.00401775
C        4.89982389       8.52457945       3.70012132       0.00288637       0.00783003       0.00471362
C        0.00192160       1.42755676       3.84024868      -0.00870384       0.00291767      -0.00073082
C       -1.19702664       3.59049855       3.88702907       0.00596987       0.00303645      -0.00227526
C       -2.47012923       5.69558085       3.82143932      -0.00422776       0.00196424       0.00728622
C       -3.73856865       7.81915114       3.76495723       0.00263777       0.00375999      -0.00465527
C       -4.96596828       9.95185608       3.77119718       0.00773323      -0.00699820      -0.00142295
C        2.44981961       1.40022003       3.77437770      -0.00340826       0.00864868       0.00045788
C        1.28329584       3.58892635       3.98414495       0.00757014       0.00108966       0.00918483
C       -0.01886712       5.73463884       3.91096781       0.00659740       0.00280446      -0.00563060
C       -1.27386969       7.83340939       3.70827360      -0.00334245      -0.00115602      -0.00025889
C       -2.49617730       9.95787079       3.69556299      -0.00832728       0.00803240      -0.00732784
C        4.93056153       1.39903004       3.66195494       0.00361705      -0.00122397       0.00766714
C        3.71689047       3.50742691       3.78659853      -0.00034288       0.00496444       0.00511875
C        1.16949382       7.88620187       3.63517222       0.00217601      -0.00619490       0.00086973
C       -0.02110612       9.97330722       3.62060641      -0.00470258      -0.00906614      -0.00776575
C        7.40658376       1.41599833       3.68436891       0.00076526      -0.00371397       0.00035081
C        6.19097802       3.52416457       3.70559511      -0.00250335       0.00059126      -0.00817013
C        4.92169170       5.62342194       3.66844539      -0.00005320       0.00131189       0.00285106
C        3.63981320       7.83188663       3.55531848      -0.00328271       0.00894437       0.01071850
C        2.44452487       9.97899188       3.63602196      -0.00211384       0.00241400       0.01139123
C        9.87908845       1.43470472       3.77215956      -0.00915496      -0.00820827       0.00398318
C        8.65363793       3.55659904       3.78962702       0.00601531      -0.00614737      -0.01691254
C        7.38552280       5.68185282       3.78300854      -0.00291303      -0.00336061       0.01182854
C        6.11775638       7.80286489       3.73812923      -0.00352968      -0.00221903       0.00215838
C        4.91292603       9.96083781       3.75201719       0.01421958       0.00674513      -0.00714723
Pt       3.03189234       6.02836618       4.77530249      -0.00554498       0.01640303      -0.00519717
