49
Lattice="12.336457 0.0 0.0 -6.168228499999997 10.683685154694365 0.0 0.0 0.0 15.0" Properties=species:S:1:pos:R:3:forces:R:3 energy=-433.7998468362694 free_energy=-433.7998468362694 stress="-0.005902869477404956 6.399286654487909e-05 -1.8399528812398646e-05 6.399286654487909e-05 0.0016248238580478251 -1.7037817568483548e-05 -1.8399528812398646e-05 -1.7037817568483548e-05 -3.854425500194904e-06" pbc="T T T"
C        0.00169656       0.01680434       3.61490217       0.00422113       0.00143641       0.00091802
C       -1.24398042       2.11866114       3.39879674       0.00063186      -0.00473494      -0.00853289
C       -2.48202806       4.27177018       3.27568875       0.00617888       0.00426751      -0.00050606
C       -3.70215894       6.42636339       3.39804796      -0.00575462      -0.00251689      -0.00503370
C       -4.93188210       8.56962544       3.63914388      -0.00267996       0.00201035      -0.00461015
C        2.46663578       0.06387846       3.67921203       0.00333265       0.00399796       0.00449808
C        1.20173286       2.18685551       3.77647013      -0.00726598      -0.01152433       0.00949832
C       -0.10266750       4.22011623       3.77017789      -0.00379599       0.00387264       0.00843229
C       -1.28371153       6.40759154       3.69400034      -0.00382584      -0.00013072      -0.00690501
C       -2.47237697       8.57065898       3.62094033       0.00393530       0.00273615      -0.00454686
C        4.93178082       0.01724923       3.61303813      -0.00043571       0.01150274       0.00601638
C        3.73377030       2.18608675       3.79868240       0.00245760      -0.00343668      -0.00865034
P        0.99822150       6.35546728       5.16434700       0.01613965       0.00303674       0.00699756
C       -0.01574756       8.56768148       3.91014701       0.00670196      -0.00604921      -0.01121733
C        7.40648490      -0.01490065       3.57638553      -0.01151152      -0.00761328      -0.00344911
C        6.18053932       2.11894413       3.42947874      -0.00309493       0.00094180      -0.00053587
C        5.04363772       4.21763933       3.83438149       0.00138999      -0.00067894      -0.00516823
P        3.91484301       6.35855483       5.20076074      -0.00081757       0.00686294      -0.00728192
C        2.46591606       8.58154923       4.13174762       0.00309521       0.00128962       0.01121718
C        9.86590743      -0.01537662       3.57603218      -0.00060361      -0.00819639       0.00038902
C        8.63602916       2.11580935       3.28230953      -0.00271052       0.00044433       0.00532379
C        7.41712914       4.27164107       3.31241388      -0.00032388      -0.00374088      -0.01846328
C        6.22023996       6.40543139       3.74920567      -0.00045712      -0.00116822      -0.00942579
C        4.94824703       8.56705702       3.93599544       0.00160220       0.00374632      -0.00744226
C       -0.00855470       1.43872553       3.56442717      -0.00397214      -0.00452732       0.01168480
C       -1.27310345       3.53251584       3.38667001       0.00106909      -0.00118917       0.01187927
C       -2.48479675       5.70116578       3.38328705      -0.00510212       0.00073965       0.00095149
C       -3.70244022       7.85446810       3.53757259      -0.00132530       0.00174479      -0.00762061
C       -4.92707243      10.00714833       3.65385422       0.00122749       0.00446924      -0.00362764
C        2.46733222       1.50153230       3.77734284       0.00055786      -0.00158173       0.00065562
N        1.05378985       3.52905125       4.00885866      -0.00771676      -0.01115052       0.00444441
C       -0.17040206       5.61438633       4.03521414       0.00836965       0.00963769       0.00236144
C       -1.25397924       7.84966064       3.75610445      -0.00021661      -0.00249802       0.01386665
C       -2.47656110      10.00766857       3.64604275       0.00588096       0.00754941       0.00276646
C        4.94414251       1.43899549       3.58582262       0.00107099       0.00463111       0.00235716
N        3.88166472       3.52623030       4.04463272       0.00661374      -0.00901418       0.00349411
C        1.19804682       7.93293296       4.29591665       0.00386570      -0.00046392      -0.00398591
C       -0.00294038       9.97900368       3.67384004      -0.00883974      -0.00166248       0.00178047
C        7.40831830       1.40016847       3.38134671      -0.00695826      -0.00303240      -0.00185604
C        6.21154549       3.53198417       3.44106097      -0.00103363      -0.00031048       0.00006698
C        5.11145989       5.61138805       4.10383723      -0.01145607       0.00504542      -0.00631343
C        3.73152985       7.93367355       4.31693949       0.00407280       0.00013003      -0.00549507
C        2.46778041       9.96486337       3.72816280      -0.00592040      -0.00375110       0.01052568
C        9.86434559       1.39920784       3.36916814      -0.00106860      -0.00590933       0.00248405
C        8.63505628       3.54872543       3.22188073       0.00529786       0.00435153       0.00055444
C        7.41834527       5.70050130       3.42008920      -0.00176128      -0.00724220      -0.00415309
C        6.18764788       7.84851535       3.79335766       0.00173014      -0.00037986       0.00330748
C        4.93713277       9.97747186       3.68364358       0.00557165       0.00145658       0.00261994
Pt       2.46084732       4.76340561       4.76334156       0.00363378       0.01660222       0.00572951
