49
Lattice="12.336457 0.0 0.0 -6.168228499999997 10.683685154694365 0.0 0.0 0.0 15.0" Properties=species:S:1:pos:R:3:forces:R:3 energy=-434.1394922385572 free_energy=-434.1394922385572 stress="-0.004217214528931085 0.0008568844410415813 4.82403036271829e-06 0.0008568844410415813 0.0065368821810454876 -1.3044903928637109e-05 4.82403036271829e-06 -1.3044903928637109e-05 6.190249532457749e-07" pbc="T T T"
C       -0.00142550      -0.00613929       3.79698190      -0.00898591      -0.00016844      -0.00288533
C       -1.25051123       2.12028356       3.94238732      -0.00295851      -0.00262998      -0.00007865
C       -2.48826439       4.27320055       3.65282416      -0.00353881       0.00342556       0.01542406
C       -3.71085249       6.42181352       3.44599333       0.00170357       0.00550066       0.00597304
C       -4.93918274       8.56662271       3.53954635       0.00144139       0.00604512       0.00084104
C        2.47335613       0.04772614       3.73007844       0.00649478      -0.00251111      -0.00088942
C        1.23868072       2.08591866       4.23163098      -0.00134018      -0.00320218      -0.01348618
C       -0.16766878       4.35287799       4.30576161       0.00864704      -0.00358694      -0.00098907
C       -1.29690846       6.44710445       3.72295181      -0.00260602       0.00238407       0.00630396
C       -2.48019257       8.57967639       3.57179199       0.00078979      -0.00031559       0.00678932
C        4.93948367       0.01657180       3.66625017       0.00198390      -0.00380558      -0.01161460
C        3.74572879       2.21608066       3.84216733       0.00222995       0.00390309       0.00058468
N        1.08462452       6.41443723       4.10094712       0.00451004       0.00713751       0.00090673
C       -0.00690136       8.52869473       3.73034585      -0.00807690      -0.00193318      -0.00140224
C        7.41943543      -0.04578995       3.68164970       0.00304035       0.00242442       0.00578549
C        6.19395954       2.11817453       3.55786429      -0.00829865      -0.00465704      -0.00552628
C        4.99935503       4.27265393       3.50597111      -0.00031923      -0.00922632       0.00867277
O        3.80022908       6.36959326       3.63723787      -0.00115907       0.00009795      -0.00137316
C        2.48421771       8.44050839       3.79589472       0.00588372       0.00225239      -0.00987065
C        9.86629360      -0.04841656       3.76183091      -0.00062476       0.00427431      -0.01107799
C        8.64795444       2.11068830       3.62165600       0.00390441      -0.00106817       0.00256822
C        7.42026636       4.26516020       3.40180396       0.00345637      -0.00684083      -0.00447909
C        6.18026194       6.41774157       3.39731661      -0.00404321      -0.00927164       0.00194345
C        4.93091903       8.50903418       3.65596559       0.01074601       0.00634915      -0.00222302
C       -0.00527952       1.41249185       4.00416454      -0.00286860      -0.00289245       0.00050567
C       -1.28699305       3.56470324       3.96196958      -0.00659737      -0.00315900      -0.00039537
C       -2.49592269       5.70353125       3.57830879      -0.00050120       0.00237473       0.01049332
C       -3.70627595       7.85580362       3.49437001       0.00153242       0.00772320       0.00401460
C       -4.92779631       9.99739095       3.68513396      -0.00293032       0.00591242       0.00462967
C        2.48148981       1.47688340       3.94318336       0.00957586      -0.00245508      -0.00148150
P        1.15945699       3.58435616       5.23217760      -0.01021533       0.01330402       0.01018305
C       -0.11638368       5.75434935       4.05619126       0.00092827       0.01231817       0.00931503
C       -1.25792155       7.85765938       3.65302141      -0.00715099      -0.00214226       0.00233738
C       -2.47222239      10.00840347       3.64285012       0.00534173      -0.00435291      -0.00637393
C        4.95228138       1.44550010       3.67503310      -0.00540868      -0.00397481       0.00640359
N        3.86249722       3.58968981       3.87625197      -0.00807188       0.00434172      -0.00172775
C        1.20235347       7.76415023       3.86761239      -0.00140974       0.00657333      -0.00407036
C        0.00420707       9.95572855       3.67949084       0.00187367      -0.00292284      -0.00098836
C        7.42280442       1.38870296       3.60166038      -0.00055043       0.00256860      -0.00727892
C        6.21018674       3.53690661       3.43546410      -0.00250817      -0.00530928      -0.00035630
C        5.01233004       5.67877906       3.43574053      -0.00718953      -0.01040567      -0.00035718
C        3.72689078       7.79681388       3.73005577       0.00848264       0.00502822      -0.00916363
C        2.47602451       9.89259422       3.74247737       0.00388687       0.00092616      -0.00397892
C        9.87359411       1.39677718       3.76996817       0.00149493      -0.00001638      -0.00318695
C        8.64571646       3.54303237       3.52803427       0.00346277      -0.00205499       0.01089606
C        7.40980783       5.69322568       3.37696329       0.00230900      -0.00477513       0.00440978
C        6.17614738       7.84222304       3.51166840       0.00524679      -0.00390869      -0.00472772
C        4.93355545       9.94370973       3.74436657      -0.00389952       0.00358814      -0.00621650
Pt       2.51398631       5.02092604       4.43171266       0.00228672      -0.01086645      -0.00278182
