49
Lattice="12.336457 0.0 0.0 -6.168228499999997 10.683685154694365 0.0 0.0 0.0 15.0" Properties=species:S:1:pos:R:3:forces:R:3 energy=-440.98580684688847 free_energy=-440.98580684688847 stress="-0.011156079918833842 -5.890642958524735e-07 -1.5424110387323915e-07 -5.890642958524735e-07 0.006306181537866235 1.9929151397921473e-07 -1.5424110387323915e-07 1.9929151397921473e-07 1.0667473163493816e-06" pbc="T T T"
C       -0.00087157       0.01665117       3.75171382      -0.00128114       0.00830493       0.00425892
C       -1.25828591       2.11035091       3.73903966      -0.00962553      -0.00481626      -0.00461467
C       -2.49521337       4.26753586       3.72348480      -0.00124385      -0.00551974      -0.00163832
C       -3.70126304       6.42969099       3.73153365       0.00244251       0.00668777      -0.00307755
C       -4.92314233       8.58816222       3.74817735      -0.00191667       0.00621400       0.00243279
C        2.46665074       0.08764333       3.75825681       0.00338470      -0.00622073      -0.01418554
C        1.20279730       2.21568588       3.76509126       0.00564890      -0.00038358      -0.00388410
C       -0.09485641       4.26421684       3.74565758       0.00060066       0.00343498      -0.00004133
C       -1.28765128       6.43309369       3.72894589      -0.00298866       0.00308147       0.00149121
C       -2.47909272       8.58847664       3.73567542      -0.00475854       0.00092263       0.01537985
C        4.93442674       0.01704392       3.74992508       0.00026154       0.00546287       0.01307413
C        3.73062743       2.21571932       3.77602590      -0.00294139       0.00070490      -0.00832674
N        1.08814122       6.37701145       3.77187762      -0.00539362       0.00063169      -0.00782092
C       -0.01169278       8.52228279       3.74934030       0.00115472      -0.01120979       0.00842386
C        7.41122509      -0.05696648       3.75134434      -0.00147885       0.00794461       0.00866309
C        6.19182530       2.11052340       3.75500450       0.00901132      -0.00486846       0.00365241
C        5.02886208       4.26450362       3.77979305      -0.00066632      -0.00197305      -0.00369974
N        3.84559387       6.37686564       3.79001672       0.00770459       0.00263863      -0.00830623
C        2.46689386       8.43490260       3.77133527      -0.00167592       0.00345558      -0.00476772
C        9.85897695      -0.05693505       3.75206521       0.00079946       0.00154431       0.00102943
C        8.63487651       2.09988721       3.73811973       0.00408160      -0.00117313      -0.00494777
C        7.42904662       4.26744994       3.74155015       0.00062535      -0.00124100       0.00625337
C        6.22189078       6.43317176       3.76119557       0.00061823      -0.00076230      -0.00228112
C        4.94542071       8.52179901       3.76397363       0.00286468      -0.00429465       0.00829196
C       -0.01154848       1.44438425       3.74973224      -0.00232747       0.00484924       0.01385400
C       -1.28795232       3.53327758       3.73082788       0.00173933      -0.00203835       0.00165612
C       -2.49508191       5.69899547       3.72258509      -0.00000199      -0.00166721       0.00428671
C       -3.70106917       7.86620394       3.73773041      -0.00255673       0.00394442      -0.00673179
C       -4.92517744      10.02307246       3.75243304       0.00239283       0.00118220       0.00591341
C        2.46666717       1.53180632       3.77029459       0.00166915      -0.00690457      -0.01102354
N        1.08809587       3.58980526       3.77029400      -0.00302374      -0.00489441      -0.00335913
C       -0.09466681       5.70199365       3.74531246      -0.00185265       0.00732341       0.00238694
C       -1.25829404       7.85611279       3.73589305      -0.00406311       0.00232873      -0.00208959
C       -2.47775756      10.02339730       3.74741443       0.00270623      -0.00220284       0.00453617
C        4.94507538       1.44454717       3.76095580       0.00069570       0.00737463       0.00483153
N        3.84575872       3.58977560       3.78840599      -0.00066264      -0.00192110      -0.00393945
C        1.20284213       7.75120546       3.76684004       0.00420250      -0.00591501      -0.01009918
C       -0.00106235       9.94974776       3.74966173      -0.00077339      -0.00721241       0.00031547
C        7.41255096       1.37795486       3.74649887       0.01133639       0.00021172       0.00331999
C        6.22175527       3.53344716       3.75966263       0.00005026      -0.00335945      -0.00473714
C        5.02885426       5.70224242       3.78004606      -0.00032364       0.00156316       0.00149367
C        3.73076672       7.75087393       3.77781925      -0.00120070      -0.00008405      -0.00635637
C        2.46692383       9.87889592       3.75971108      -0.00158291       0.00660662      -0.01212088
C        9.85727014       1.37786940       3.74031150      -0.00639153       0.00120670       0.00535637
C        8.63509517       3.53650297       3.73031881       0.00005789      -0.00510750       0.00367316
C        7.42910938       5.69888051       3.74320149      -0.00077871       0.00223102      -0.00172961
C        6.19244147       7.85606683       3.75790761       0.00136879      -0.00133171       0.00082830
C        4.93473956       9.94925212       3.75472029      -0.00195083      -0.00023998       0.00491663
Pt       2.46687157       4.98347136       3.79699792      -0.00395678      -0.00450894      -0.00054108
