49
Lattice="12.336457 0.0 0.0 -6.168228499999997 10.683685154694365 0.0 0.0 0.0 15.0" Properties=species:S:1:pos:R:3:forces:R:3 energy=-434.212146152958 free_energy=-434.212146152958 stress="-0.00509334791790323 -0.0019839145549901405 -9.308397195658644e-07 -0.0019839145549901405 0.005504613939309897 -2.0458919096219497e-07 -9.308397195658644e-07 -2.0458919096219497e-07 -7.074177820771657e-07" pbc="T T T"
C       -0.00415396       0.01907322       3.85852136      -0.00234923       0.00161517      -0.00589867
C       -1.26523311       2.11447863       3.95340395      -0.00117599      -0.00034230      -0.00359010
C       -2.49969634       4.26341363       4.12109115       0.00200649       0.00617719       0.00426222
C       -3.69910374       6.42520706       4.09766659      -0.00924086      -0.00571896      -0.00163980
C       -4.92635375       8.58035980       3.96052510       0.00400090       0.00779086      -0.00400255
C        2.46239693       0.04893518       3.79383856       0.00286421      -0.00231970      -0.00382730
C        1.18133663       2.19848709       3.63851113      -0.00099578      -0.00432077       0.00729666
C       -0.08458384       4.25472914       3.92064101      -0.00260268      -0.00314649       0.00772919
C       -1.26451263       6.42026006       4.11118112       0.00559800       0.00899287      -0.00280970
C       -2.46762350       8.57269478       4.00312579      -0.00208582      -0.00779360      -0.00693526
C        4.93868532      -0.00773682       3.73985150      -0.00600876       0.00343786       0.00486685
C        3.69829468       2.08324082       3.27272045       0.00006653       0.00041757      -0.00398564
N        1.09938611       6.36356518       3.71257814       0.00032118      -0.00197878      -0.00612303
C        0.00651666       8.50573945       3.87218099       0.00053906       0.00478129      -0.00387757
C        7.40647422      -0.04727117       3.77474847       0.00106608      -0.00303448      -0.00628020
C        6.18007510       2.12832023       3.59831776      -0.00033861       0.00552550       0.00667446
C        5.09734753       4.37352353       3.20619425       0.01236925       0.00673771      -0.00518546
O        3.88454072       6.46623893       3.28265105       0.00563149       0.00314613      -0.00983833
C        2.48631121       8.44128940       3.70652134      -0.00315322      -0.00050675       0.00139303
C        9.85105275      -0.04425936       3.84631004       0.00576625      -0.00128820      -0.00463889
C        8.61660015       2.11208485       3.91858703       0.00351087      -0.00344940      -0.00551150
C        7.40938633       4.27927931       3.89032922      -0.00150285      -0.00744015      -0.00236630
C        6.22454072       6.45278037       3.79605886      -0.00016626      -0.00012809       0.00011675
C        4.94745655       8.54311678       3.78998623      -0.00040828      -0.00445357       0.00201278
C       -0.02220833       1.44448168       3.83024692      -0.00161180      -0.00109301      -0.00444547
C       -1.28616178       3.53264356       4.05305548      -0.00355036      -0.00246517       0.00773649
C       -2.48490935       5.69413647       4.15450636       0.00242603       0.01087832       0.00046054
C       -3.69532497       7.85927727       4.04526022      -0.00433606      -0.00565588       0.00194879
C       -4.92821544      10.01185064       3.88559390      -0.00042390       0.00844465      -0.00387341
C        2.45112513       1.47650207       3.55788861       0.00237156      -0.00192654       0.00041752
N        1.04383165       3.57076978       3.56966603      -0.01199983      -0.00309865       0.01048808
C       -0.06424300       5.69449883       3.96934506       0.00471370       0.00012557       0.00986181
C       -1.23932740       7.84037225       4.01916471       0.00170639       0.00497716      -0.01088401
C       -2.47251665       9.99907147       3.85098898      -0.00169889      -0.00863232      -0.00104748
C        4.93939282       1.41117170       3.52565062      -0.00013697       0.00825027       0.00560447
P        3.81198016       3.55336936       2.23050702      -0.00537231      -0.00583513       0.00017811
C        1.21679743       7.74067197       3.75609773      -0.00221972       0.00008951       0.00606323
C        0.00381587       9.93859706       3.79205074      -0.00432235       0.00547447       0.01810332
C        7.39347779       1.39685790       3.77393139       0.00116806      -0.00143097      -0.00827150
C        6.21390280       3.57460518       3.57581418      -0.00213590       0.00176824      -0.00091766
C        5.09349521       5.75654705       3.40947829       0.00210731       0.00092004       0.00125163
C        3.75317771       7.83027762       3.64026048      -0.00238466      -0.00515985       0.00203346
C        2.46597598       9.89195962       3.78213407       0.00468719       0.00066704      -0.00055135
C        9.84322336       1.39142804       3.92985907       0.00467742      -0.00332320      -0.00504299
C        8.61668480       3.54421520       4.01117325       0.00293985      -0.00195356       0.00551096
C        7.42548466       5.70609239       3.96227941      -0.00744677      -0.00964361       0.00041577
C        6.19660780       7.86730894       3.86909197       0.00562074       0.00401167      -0.00084721
C        4.93044562       9.96768765       3.84762350       0.00202829      -0.00356565       0.00748325
Pt       2.39174072       4.93660535       3.04751045      -0.00051898       0.00547570       0.00048205
