49
Lattice="12.336457 0.0 0.0 -6.168228499999997 10.683685154694365 0.0 0.0 0.0 15.0" Properties=species:S:1:pos:R:3:forces:R:3 energy=-426.82869222761906 free_energy=-426.82869222761906 stress="-0.007704747778928313 -0.005151757739530365 4.763549114486603e-06 -0.005151757739530365 -0.003004748591123651 1.04105323101202e-06 4.763549114486603e-06 1.04105323101202e-06 -3.3675165948570082e-06" pbc="T T T"
C        0.00174024      -0.00413356       3.93231367       0.00441495      -0.00722041       0.00850876
C       -1.27968407       2.11308019       4.10819315       0.00239193       0.01053269       0.00976233
C       -2.51769373       4.25853867       3.80247130       0.00052747      -0.00263064      -0.00346033
C       -3.69140303       6.41657480       3.55443040      -0.00649575      -0.01365068       0.01065630
C       -4.90635901       8.56500436       3.66488815       0.01294509      -0.00408598      -0.00818631
C        2.47848397      -0.02041596       3.89290954       0.00414250       0.00684137      -0.00867658
C        1.22723529       2.05505371       4.38579766      -0.00058780      -0.00468371      -0.00277771
C       -0.16476659       4.30946066       4.33452087      -0.00949907      -0.00365746      -0.00147619
C       -1.26363991       6.39164992       3.64820302      -0.00456763      -0.00063316       0.00083457
C       -2.44150787       8.53613759       3.63139219      -0.00644878       0.01122888       0.01224703
C        4.93582181      -0.00738594       3.68313321      -0.00152043       0.00117397      -0.01262349
C        3.64969451       2.09067581       3.67392258      -0.00984590      -0.00782323      -0.00552172
S        1.36919113       6.15582617       3.10892417       0.00441109       0.01520367      -0.00586698
C        0.02082650       8.51730196       3.58363972       0.00378229       0.00544716       0.00498340
C        7.39735410      -0.01309597       3.68126817      -0.00296986      -0.00197963      -0.00579074
C        6.14082765       2.14171442       3.52043525      -0.00480135      -0.00397456      -0.00292876
C        4.99039336       4.35863759       3.30279719       0.01448983       0.00548891      -0.00211287
N        3.89533916       6.45470606       3.82276441      -0.00989277      -0.00366286      -0.00407928
C        2.48975585       8.51861760       3.70431142       0.00921783      -0.00229830       0.01140629
C        9.86203076      -0.01148950       3.82750092      -0.00667812       0.00695576       0.00387903
C        8.60893408       2.12484194       3.72777541      -0.00174615       0.00309038       0.01739350
C        7.39901299       4.27934257       3.48774950       0.00750276      -0.00573029      -0.00302241
C        6.23501705       6.46624565       3.42358238      -0.00474984       0.00710676       0.00451902
C        4.97020605       8.56076556       3.68794539      -0.00464683      -0.00421544      -0.00515891
C       -0.01792470       1.40763222       4.16859574       0.00293267       0.00365321       0.01056581
C       -1.33064764       3.53744669       4.11534984      -0.00423017      -0.00004815      -0.00034586
C       -2.49401114       5.68062010       3.66455974      -0.00452893      -0.00662137       0.01259617
C       -3.67982706       7.83993565       3.60217954       0.00531281      -0.01029830       0.00751044
C       -4.92565060       9.97343929       3.84608361       0.01190287      -0.00415273      -0.00042251
C        2.45795116       1.40335986       4.04584081      -0.00303053      -0.00116521      -0.00733814
P        1.18128027       3.61419591       5.31221162       0.00004707       0.00522471      -0.00458955
C       -0.10843028       5.59882226       3.80201511       0.00439968      -0.01856903       0.00196220
C       -1.21632138       7.81206025       3.57615413      -0.00753497       0.01125254       0.00169996
C       -2.45616810       9.96299943       3.73189463      -0.00179639       0.01256624      -0.00355375
C        4.90988486       1.43359074       3.61496514      -0.00730139      -0.00617851      -0.00324466
S        3.43464517       3.67907631       2.97848496       0.00132856       0.00044658      -0.01301215
C        1.27347453       7.84585861       3.53925766       0.01323855       0.00477094      -0.00150339
C        0.00504506       9.95793743       3.64683618      -0.00198489       0.00036381      -0.01003001
C        7.37448093       1.42261815       3.63574445      -0.00260494      -0.00093904      -0.00763820
C        6.15666963       3.57143300       3.40713115       0.00613064      -0.00131149      -0.00662106
C        5.01286691       5.76569301       3.43658516       0.00012660       0.00338225       0.01168934
C        3.75692816       7.81042229       3.73170363      -0.00138563      -0.00886926      -0.00281307
C        2.47005693       9.95698829       3.74389548      -0.00218569      -0.00047073       0.00512825
C        9.84359338       1.41144284       3.88934486       0.00024219       0.01024088       0.00843702
C        8.60455210       3.54848411       3.66390553       0.00686458      -0.00179273       0.00806836
C        7.42551844       5.70649847       3.46276382      -0.00790833      -0.00553641      -0.00985419
C        6.20594293       7.86955825       3.58173105       0.00342028       0.00893399      -0.00988817
C        4.94097189       9.97631966       3.81415066      -0.00565334      -0.00305279       0.00634600
Pt       2.64570157       5.13446197       4.75246539       0.00482324       0.00134738      -0.00565679
