49
Lattice="12.336457 0.0 0.0 -6.168228499999997 10.683685154694365 0.0 0.0 0.0 15.0" Properties=species:S:1:pos:R:3:forces:R:3 energy=-426.4521817743965 free_energy=-426.4521817743965 stress="-0.008930488796956118 0.003931571588875674 1.3593323538713926e-06 0.003931571588875674 -0.003983538915878262 -7.322227183811809e-06 1.3593323538713926e-06 -7.322227183811809e-06 5.258892932448288e-06" pbc="T T T"
C       -0.00343100      -0.00443902       3.71023838      -0.00900652      -0.00324099      -0.00656699
C       -1.21483874       2.14107303       3.50592962      -0.00604070       0.00486718      -0.00179936
C       -2.48192913       4.28097992       3.44981398       0.00535511      -0.00347971       0.00985952
C       -3.71422447       6.41895490       3.58708089       0.00351571       0.00153792       0.00227872
C       -4.95067104       8.54538413       3.69841507       0.00034805      -0.00210926      -0.01018063
C        2.46082823      -0.01730715       3.88668736      -0.00184176       0.00132242       0.00371866
C        1.27599836       2.08812692       3.70533067      -0.00534663      -0.00484162       0.00068243
C       -0.08394093       4.35632334       3.22887308       0.00721156      -0.00050936      -0.01077886
C       -1.31570078       6.46992543       3.32970030      -0.00177889       0.00014161       0.00172385
C       -2.49497928       8.56795122       3.63144783       0.00503776      -0.00712778       0.00658972
C        4.93510395      -0.00234417       3.88858610      -0.00196526      -0.00470471      -0.00303264
C        3.71312730       2.05235892       4.35664087       0.00852947       0.00920886       0.00594341
N        1.01991521       6.44926218       3.73286014      -0.01258172      -0.00089165      -0.00110864
C       -0.03968504       8.56434830       3.58876621       0.00273036       0.00573875       0.00386673
C        7.40678259      -0.01281990       3.77946885       0.00177280       0.00360488       0.00104150
C        6.20886979       2.11330601       4.11822374      -0.00040597       0.00023344       0.00394077
C        5.12545542       4.29943548       4.47738372       0.00020929      -0.00066671       0.00251689
P        3.64697681       6.11223511       3.11855019      -0.00256286      -0.01303331       0.00442711
C        2.44674044       8.51719149       3.63559252       0.00275596       0.00389103       0.01017221
C        9.86929472      -0.01162010       3.66862950       0.00346862       0.00093497      -0.01251534
C        8.65487489       2.12722274       3.72049173      -0.00244080      -0.00714717      -0.00243935
C        7.45058541       4.26147500       3.86440058       0.00649907       0.00863973       0.01325488
C        6.21696737       6.40775229       3.82921879      -0.00811817       0.00225475      -0.00156206
C        4.92296345       8.53011245       3.64722909       0.00168138      -0.00123221      -0.00040158
C        0.01654255       1.43404240       3.62859321      -0.01123182      -0.00292443      -0.00443068
C       -1.24260981       3.56872459       3.35618114       0.00688741       0.00319386      -0.00003949
C       -2.50432330       5.70895475       3.42156822       0.00137946      -0.00218836      -0.00416864
C       -3.71954237       7.84366925       3.62984492       0.00388595      -0.00222069       0.00769957
C       -4.94474803       9.96900399       3.76166913      -0.00487894      -0.00026705      -0.00855896
C        2.47913580       1.39979086       4.03074792       0.00194052       0.00812396       0.01165745
S        1.48793779       3.66131921       3.03158719       0.00595348       0.00256088       0.00034640
C       -0.10012273       5.76437096       3.32802558      -0.00667872      -0.00348300      -0.00039725
C       -1.27555500       7.87419345       3.49823322       0.00612891       0.00113130      -0.00549686
C       -2.47261617       9.97591038       3.81703053      -0.00226123      -0.00729978       0.00394996
C        4.95698763       1.40839127       4.14410603       0.00102121       0.00194805      -0.01556453
S        3.76006734       3.54175785       5.26684520      -0.00677888       0.00052798      -0.00513174
C        1.17228479       7.81167545       3.62530312      -0.00245978       0.00017947       0.00335773
C       -0.00624843       9.97496792       3.74878133       0.00213819       0.00453563       0.00222089
C        7.41941236       1.41275966       3.87582234      -0.00290306      -0.00154999       0.00121716
C        6.26543271       3.53220082       4.19268727      -0.00024247       0.00394212       0.00112299
C        5.04846462       5.63652594       4.06378523      -0.00334842      -0.00745596      -0.00257368
C        3.67862131       7.84304100       3.55677451       0.00141243       0.00394877       0.00198478
C        2.46091837       9.95517237       3.69412724       0.00420955       0.00641351       0.00790579
C        9.88930630       1.42235722       3.62152007      -0.00120729      -0.00084637      -0.00636465
C        8.65645610       3.55087838       3.66661679       0.00316186      -0.00483679       0.00908830
C        7.43093414       5.68725500       3.76724280      -0.00202169       0.00939844      -0.00204678
C        6.16421682       7.82550488       3.69252821      -0.00111460      -0.00108369      -0.00287596
C        4.92938775       9.96378311       3.67171143      -0.00256378      -0.00344765      -0.00388491
Pt       2.27196926       5.15740987       4.70382776       0.01254582      -0.00169126      -0.00864786
