49
Lattice="12.336457 0.0 0.0 -6.168228499999997 10.683685154694365 0.0 0.0 0.0 15.0" Properties=species:S:1:pos:R:3:forces:R:3 energy=-429.1269872726217 free_energy=-429.1269872726217 stress="-0.0018859942093769786 -0.0012640165752960796 -4.785386523517446e-07 -0.0012640165752960796 0.001175391666398137 -2.151640011715771e-06 -4.785386523517446e-07 -2.151640011715771e-06 -2.9685064282632925e-07" pbc="T T T"
C       -0.00200553      -0.01327407       3.91033921       0.00035358      -0.00559750      -0.00156523
C       -1.25054909       2.12227834       4.06297467       0.00451795       0.00096378       0.00094573
C       -2.48809141       4.26586798       3.82842352      -0.00514326       0.00193609      -0.00086016
C       -3.69846213       6.40685115       3.62858970      -0.00076416      -0.00006083       0.00131842
C       -4.93311265       8.54488847       3.70637047      -0.00203549       0.00289035       0.00041164
C        2.47128949      -0.01748197       3.77238481      -0.00413726      -0.00467271      -0.00449945
C        1.25698183       2.07054428       4.21409283       0.00821082       0.01060968       0.00815908
C       -0.11864062       4.34386721       4.37757274       0.00897438      -0.00676151       0.00029728
C       -1.26823515       6.42348688       3.80482761      -0.00140833       0.00317781       0.00385151
C       -2.46684158       8.54227588       3.66427851      -0.00176444       0.00698002      -0.00643282
C        4.93871446      -0.01490561       3.59430511       0.00123834      -0.00200841       0.00115712
C        3.66870345       2.07699546       3.41876768      -0.00050705       0.00663922      -0.00044267
N        1.13033478       6.42383223       4.09312109       0.00202208       0.00707713       0.00564952
C        0.00379045       8.51904712       3.71808821      -0.00052771      -0.00032054       0.00618663
C        7.40832349      -0.03015083       3.66204703       0.00415362      -0.00389937      -0.00427507
C        6.16549833       2.13178675       3.41016314      -0.00093507      -0.00162660       0.00984303
C        5.00058918       4.35293916       3.12607833       0.00518631      -0.00846771      -0.00113859
O        3.78924321       6.42329080       3.51758709      -0.01104018       0.00696445      -0.00015704
C        2.48558683       8.46596668       3.79836368      -0.00185055      -0.00160966      -0.00111077
C        9.86028085      -0.03107372       3.83635030       0.00384994      -0.00231242      -0.00012804
C        8.63063135       2.11977647       3.71090493      -0.00341122       0.00701406      -0.01160420
C        7.40824300       4.26882135       3.49311096       0.00448698       0.00227663       0.00060029
C        6.20080257       6.43407165       3.49279730      -0.00073794      -0.00125780       0.00922986
C        4.93935286       8.52847098       3.75677937      -0.00191236      -0.00701724      -0.00922310
C       -0.00064857       1.41006204       4.08698993       0.01092886       0.00112526       0.00358820
C       -1.27109031       3.56227807       4.09911275      -0.00263100       0.00200717       0.00621130
C       -2.48062702       5.68943252       3.73969482      -0.00337026      -0.00095039       0.00765358
C       -3.69769207       7.83138552       3.65654480      -0.00176680       0.00449308       0.00250796
C       -4.93411956       9.96528863       3.81412917      -0.00390639      -0.00088282      -0.00445157
C        2.46765313       1.40681705       3.83207831       0.00409331      -0.00615969       0.00334334
P        1.31453095       3.59674812       5.17848618      -0.00599308      -0.00115681      -0.00428106
C       -0.06798965       5.73455164       4.08963291       0.00488369       0.00061521       0.00359992
C       -1.23798301       7.83027015       3.70368391      -0.00234027       0.00463710       0.00001020
C       -2.46367192       9.96445295       3.66501437      -0.00223016       0.00433721      -0.00628357
C        4.92859316       1.41670936       3.45667121      -0.00248634      -0.00176176       0.00412190
S        3.50916444       3.60829652       2.59431951      -0.00172507      -0.00322487      -0.00603710
C        1.22091842       7.77136025       3.85048044      -0.00047332       0.00463542       0.00467222
C        0.00667514       9.94634011       3.64065487       0.00333684      -0.00416141       0.00487605
C        7.39530908       1.40979989       3.58436129      -0.00103346       0.00096695       0.00028035
C        6.17696972       3.56391738       3.31434930       0.00760198      -0.00002259       0.00892922
C        5.02166353       5.72859102       3.32669198      -0.00175314      -0.00333055       0.00186614
C        3.72775691       7.82503718       3.75285620      -0.00530664      -0.00050760      -0.00463217
C        2.46912720       9.91797388       3.76339215       0.00379501      -0.00462328      -0.00337059
C        9.86312011       1.40873337       3.87605836      -0.00075931       0.00425095      -0.01208716
C        8.63222049       3.54737233       3.67225461      -0.00402937       0.00511377      -0.00288574
C        7.41865941       5.69175717       3.52830117       0.00211566      -0.00129057      -0.01019176
C        6.18257599       7.84479514       3.65960551       0.00070443      -0.00033980       0.00184380
C        4.93088955       9.95583356       3.84974267       0.00165273      -0.01077445      -0.00421333
Pt       2.63296025       5.19257265       4.62129486      -0.00612689      -0.00391247      -0.00128315
