49
Lattice="12.336457 0.0 0.0 -6.168228499999997 10.683685154694365 0.0 0.0 0.0 15.0" Properties=species:S:1:pos:R:3:forces:R:3 energy=-428.2376849777573 free_energy=-428.2376849777573 stress="-0.0028859665444050894 -0.002514336052840932 2.3329842380771623e-06 -0.002514336052840932 0.005973739877204593 -5.272058650055457e-06 2.3329842380771623e-06 -5.272058650055457e-06 -5.9971617398920665e-06" pbc="T T T"
C       -0.00515823       0.00800160       3.61030840       0.00323657      -0.00040723       0.00466026
C       -1.27152730       2.11575009       3.49946341       0.00244261       0.00158171       0.00127292
C       -2.49737139       4.26656821       3.37759431      -0.00089501       0.00552916       0.00410100
C       -3.69035144       6.42084403       3.45808237      -0.00512646      -0.01707754       0.00063061
C       -4.92261876       8.57329653       3.56656091       0.00641118       0.00035372      -0.00419100
C        2.45954902       0.04597029       3.70661856      -0.00216488      -0.00389339      -0.00418855
C        1.16757139       2.13879209       3.80293326       0.00625741       0.01072742      -0.00657166
C       -0.10460840       4.26984501       3.43302032      -0.00496858       0.00010211      -0.00493184
C       -1.24496659       6.40897085       3.37246696       0.00851969       0.01229473      -0.00184708
C       -2.45515089       8.56164957       3.53645843      -0.01247548      -0.00818485       0.00213728
C        4.93629739      -0.00707301       3.79443460       0.00017094      -0.00487133      -0.00726155
C        3.68591493       2.08898390       4.24103542      -0.00193700      -0.00795778      -0.00191523
O        1.14379184       6.35738505       3.65720571      -0.00630126       0.00631838       0.01778732
C        0.01508474       8.50090480       3.65409390       0.00418252      -0.00286006      -0.00634729
C        7.40324588      -0.04339758       3.75052116      -0.00423298      -0.00686564       0.00165301
C        6.17406125       2.13314257       3.95504265       0.00400972       0.01340718      -0.00069529
C        5.09348526       4.38167839       4.37079346       0.00312632      -0.00643242       0.00643705
O        3.89884527       6.49691947       4.31736572      -0.00238205       0.01008813       0.00693993
C        2.47314969       8.43847217       3.78347003       0.00269853       0.00058861      -0.01261364
C        9.84806429      -0.04309839       3.63912036       0.00009584       0.00458504       0.00859148
C        8.61316912       2.11689010       3.61019419      -0.00903561      -0.01010342       0.00337920
C        7.40973836       4.28040109       3.68416163       0.01267390      -0.00019001      -0.00187481
C        6.23139307       6.45254918       3.77130677      -0.00358538       0.01005592       0.00599440
C        4.94461107       8.53706026       3.70388712      -0.00627224      -0.00135490      -0.00476783
C       -0.02203048       1.43688922       3.61474432       0.00506316       0.00458602       0.00790705
C       -1.28157060       3.53626007       3.38010038      -0.00702238       0.00059267      -0.00709011
C       -2.47356465       5.68988903       3.36459195       0.00842244       0.00497298      -0.00316664
C       -3.68937855       7.85333512       3.50009394      -0.00635676      -0.01760238      -0.00314551
C       -4.92831293      10.00808912       3.61195603       0.00243203      -0.00181159      -0.00925483
C        2.43189764       1.47894413       3.92060974       0.00122875      -0.00579762      -0.00753262
O        1.02920395       3.54382211       3.88359302       0.01571043       0.00659504      -0.00370403
C       -0.07200234       5.66251029       3.39721111       0.00062415       0.00104430       0.01161133
C       -1.23471705       7.83154132       3.50737568      -0.00026770       0.00869152      -0.00543295
C       -2.47185035       9.99546563       3.67609977      -0.00616733      -0.00694316       0.00340630
C        4.92571480       1.41833257       4.01026299       0.00400926       0.00401016      -0.01330475
P        3.78033151       3.55443212       5.30493679      -0.00668427       0.00173054       0.00531159
C        1.21408483       7.78753649       3.72740058       0.00482679      -0.00021948       0.00030800
C        0.00288533       9.94210486       3.74189077       0.00036847      -0.00973036      -0.00646781
C        7.38918713       1.40461850       3.76642198      -0.01206270      -0.00473733       0.00527252
C        6.20975368       3.57861903       3.99843642       0.01293577       0.01208647      -0.00010285
C        5.09942938       5.76473465       4.17271277       0.00274607      -0.00331115      -0.00410684
C        3.75823067       7.83055115       3.86233068      -0.00627045      -0.00555722      -0.00028345
C        2.46105770       9.89790896       3.71771904      -0.00043934       0.00147474      -0.00126695
C        9.84616045       1.39842629       3.56132579      -0.00227863       0.00105101       0.00071964
C        8.61639882       3.54819875       3.53226877       0.00497442      -0.00957977      -0.00584640
C        7.43151846       5.70470354       3.60943385      -0.00726062      -0.00444908       0.00612087
C        6.20033750       7.86318742       3.65915113       0.00190570       0.01375589       0.00866363
C        4.92845147       9.96318102       3.62541430       0.00004713      -0.00028130       0.00689371
Pt       2.41995737       4.98476147       4.51249810      -0.00493271       0.00399556       0.00811242
