49
Lattice="12.336457 0.0 0.0 -6.168228499999997 10.683685154694365 0.0 0.0 0.0 15.0" Properties=species:S:1:pos:R:3:forces:R:3 energy=-433.6001726874112 free_energy=-433.6001726874112 stress="0.0018157746300301657 -0.0028464575087638498 -5.66617761163289e-06 -0.0028464575087638498 -0.0022082903941405534 -5.946017683250718e-06 -5.66617761163289e-06 -5.946017683250718e-06 -4.819847210507048e-06" pbc="T T T"
C        0.01227309      -0.03506023       4.00248530       0.00307267       0.00253912       0.00556657
C       -1.24894327       2.08565586       4.06205612       0.01119022      -0.00566473      -0.00444794
C       -2.45679119       4.24601199       4.04313459      -0.00340191      -0.00059689       0.01033510
C       -3.65054188       6.38223963       3.98855301      -0.00000002       0.00842203      -0.00018809
C       -4.90112117       8.52052647       3.99344958      -0.00408159       0.00154781       0.00086647
C        2.47843048      -0.02114980       3.86575166       0.00287285       0.00436864       0.00370979
C        1.20381273       2.07645634       3.89566563      -0.00469531      -0.00578773      -0.00574741
C       -0.03734771       4.18239086       4.03633455      -0.00244984       0.00197170      -0.00072262
C       -1.14378937       6.35493513       3.96459500      -0.00077044       0.00091458      -0.00402490
C       -2.41774344       8.50880835       3.86732735       0.00658074      -0.00101866      -0.00983479
C        4.93645771      -0.02035005       3.66255178       0.00596685      -0.00566678      -0.00700242
C        3.66407736       2.08406824       3.42557995      -0.00549023      -0.01504892      -0.00396278
O        1.33021075       6.94216678       2.21060750       0.00221674      -0.00856079      -0.00313280
C        0.02057020       8.52064361       3.54556467       0.00080995       0.00031708       0.00111586
C        7.40075094      -0.00771750       3.66699916       0.00168069      -0.00386100       0.00001818
C        6.15970435       2.13019430       3.58209603       0.00275763       0.00089271       0.00199283
C        5.03475369       4.32178148       3.42531148       0.00467515      -0.00187308      -0.00480006
B        3.61322637       6.34443391       3.69783700      -0.00304377       0.00458494       0.00627854
C        2.49116064       8.56428422       3.60456358      -0.00697354      -0.00330495      -0.00106501
C        9.87113660      -0.02266164       3.90349903      -0.00674494      -0.00170682      -0.00277546
C        8.62674381       2.11686388       3.87787294       0.00839377       0.00855791      -0.00676159
C        7.42698857       4.25902748       3.84028967      -0.00626788       0.00932138      -0.00435798
C        6.20984540       6.40164649       3.91641167      -0.00291480      -0.01661016       0.00049258
C        4.94911448       8.52535013       3.93175788       0.00563891       0.00808148       0.00343915
C       -0.00158795       1.39115081       4.01958753       0.00224569      -0.00714120      -0.00375566
C       -1.25047724       3.49677292       4.10358747       0.00505307      -0.00358651       0.00128455
C       -2.41206976       5.66433294       4.01722434      -0.00520239       0.00285644       0.01066713
C       -3.65556184       7.80731530       3.96776590      -0.00007641       0.00781910       0.00507824
C       -4.91391874       9.94734904       3.97593736      -0.00027996       0.00534112      -0.00160726
C        2.44877219       1.41446094       3.74434506      -0.00543654       0.00175446       0.00575583
O        1.17330240       3.48068905       3.99235708       0.00114889      -0.00196878       0.01237529
C        0.06816883       5.58374758       4.02643794      -0.00693001       0.00038044       0.00943599
C       -1.17374080       7.78895984       3.78576488       0.00725573       0.00023783       0.00537609
C       -2.44820715       9.94337569       3.79445928       0.00337141      -0.00277213      -0.01299770
C        4.91515592       1.41924002       3.54373572      -0.00111499      -0.00211150       0.00079597
S        3.59275313       3.68306807       2.72943537      -0.00712708       0.00793095      -0.00248188
C        1.28440513       7.88288851       3.20276932      -0.00792370       0.01432857       0.00930911
C        0.00864520       9.94642784       3.61302426       0.00646623      -0.00332329      -0.00094582
C        7.38793498       1.41787866       3.71517280       0.00766987       0.00149863      -0.00031347
C        6.20047772       3.54690262       3.60871994       0.00205775       0.00157954      -0.00840982
C        4.98503158       5.68209187       3.72303943      -0.00722775      -0.01113537      -0.00096711
C        3.69521482       7.86014645       3.77325530       0.00123367       0.00865192       0.00471554
C        2.46790449       9.97840519       3.73706669      -0.00551157      -0.00759610      -0.00512165
C        9.86276053       1.39644390       3.96832205       0.00826124      -0.00051087      -0.00892165
C        8.64381288       3.53799787       3.93636414      -0.00823636       0.01063793       0.00225252
C        7.44285937       5.67974904       3.93742336       0.00282202       0.00310201      -0.00590912
C        6.19689170       7.81954131       3.97877347       0.00028298      -0.01255982      -0.00017238
C        4.94204030       9.94795455       3.96643638       0.00014901       0.00998046       0.00498818
Re       1.84384647       5.40111318       3.08341936      -0.00197270      -0.00521275       0.00457787
