50
Lattice="12.336457 0.0 0.0 -6.168228499999997 10.683685154694365 0.0 0.0 0.0 15.0" Properties=species:S:1:pos:R:3:forces:R:3 energy=-448.76212516159603 free_energy=-448.76212516159603 stress="-0.008553034093150697 0.0016638580725336653 -7.913210563433487e-07 0.0016638580725336653 -0.006594431654099614 7.391591763159185e-07 -7.913210563433487e-07 7.391591763159185e-07 -2.6203857120484784e-06" pbc="T T T"
C        0.01319877       0.00536522       3.77562879      -0.00313515      -0.00239692       0.00135964
C       -1.22120903       2.14476944       3.77475723      -0.00955065      -0.00302405       0.00117566
C       -2.46224904       4.28590421       3.68908657      -0.00138662      -0.00433849       0.00534343
C       -3.70291524       6.42641969       3.65550358      -0.00437395      -0.00027526       0.00208691
C       -4.94018313       8.55212298       3.76931050       0.00363621       0.00003847       0.00800861
C        2.47687426       0.00984794       3.59624691      -0.00393630      -0.00580766      -0.00306032
C        1.24832021       2.12078056       3.79169382      -0.00811871      -0.00594858      -0.01247485
C       -0.03547366       4.30350239       3.94571590      -0.00264500       0.00592622       0.00221198
C       -1.27293034       6.44570985       3.59159176      -0.00170250       0.00075621       0.00921667
C       -2.47431048       8.56651164       3.52218435       0.00606185       0.00475211       0.00432678
C        4.95400357      -0.00166118       3.41763454       0.00252641      -0.00087503      -0.00415269
C        3.74907207       2.11352856       3.52442245       0.00764526      -0.00000201      -0.00237694
B        2.62145861       4.20196791       3.97043801       0.00516380       0.01293265       0.00467730
C        1.20095483       6.50543339       3.75836269      -0.00183946      -0.00179751      -0.00312925
C        0.00690103       8.56504129       3.47637621      -0.00077253       0.00159792       0.00184980
C        7.42945969       0.00384706       3.47978505       0.00332074       0.00238548      -0.00118027
C        6.21137001       2.13141973       3.44594817       0.00237088       0.00432283       0.00609804
C        5.03305923       4.26401748       3.77260767       0.00292488       0.00069411       0.00576266
S        3.69500699       6.37374378       5.03016648      -0.00333916      -0.00521765      -0.00033844
C        2.49033925       8.57320976       3.80932625      -0.00239265       0.00155658      -0.00513265
C        9.89188648       0.01162269       3.71316898       0.00509426      -0.00658393       0.00026598
C        8.66544235       2.14181901       3.57323860       0.00436975      -0.00287907      -0.01324536
C        7.44524619       4.28180018       3.61797562      -0.00434688      -0.00160606       0.01279125
C        6.19238048       6.41080412       3.96501533      -0.00341545       0.00584171      -0.00530102
C        4.94403815       8.55750641       4.01289560       0.00098464       0.00373299      -0.00633243
C        0.01541870       1.42707481       3.78843088      -0.01140830      -0.00453644       0.00014905
C       -1.24989803       3.56605497       3.79798884      -0.00183963      -0.00159289      -0.00233165
C       -2.47859799       5.71459363       3.63717636      -0.00287821      -0.00250472       0.00052890
C       -3.70443926       7.85093659       3.64434284       0.00600341       0.00245411      -0.00032496
C       -4.92517266       9.98011320       3.71765649      -0.00458122      -0.00329112       0.00470221
C        2.48726103       1.43499281       3.63240371       0.00125449      -0.00631195      -0.00405813
C        1.20474251       3.55668884       3.97685301      -0.00667327      -0.00167025       0.00766582
C       -0.04703888       5.74395999       3.81066096       0.00306628       0.00454371       0.00110521
C       -1.23833925       7.85763687       3.50018749       0.00093899       0.00037497      -0.00257411
C       -2.46120865       9.98433926       3.49221865       0.00128412       0.00233073      -0.00211914
C        4.97463116       1.41108788       3.42520269       0.00707228       0.00014192       0.00158758
C        3.84557211       3.52103612       3.63804772       0.00328576       0.00200833      -0.00064144
C        1.25174668       7.87795499       3.61410876      -0.00199317       0.00195608      -0.00863941
C        0.02035903       9.97960335       3.42854393       0.00179396       0.00053167      -0.00177793
C        7.43751104       1.42380324       3.47077631       0.00243651       0.00318329       0.00158054
C        6.23908648       3.55507390       3.57075146      -0.00466215       0.00261362       0.00534130
C        5.03191179       5.63275369       4.16625694       0.01053554      -0.00228678       0.01388253
C        3.68682770       7.92052557       4.20614146      -0.00051435       0.00803999       0.00344572
C        2.49422810       9.98810115       3.63990389       0.00321683      -0.00144412      -0.01113534
C        9.89252093       1.43378788       3.67352176      -0.00161267      -0.00837518       0.00344705
C        8.66430441       3.56550834       3.60541457      -0.00032035      -0.00320092      -0.00001446
C        7.41982547       5.70480863       3.73287181      -0.00932102       0.00174582      -0.00596989
C        6.17301701       7.83860836       3.96859948      -0.00131579       0.00497794      -0.01732828
C        4.94841180       9.98006444       3.82873137       0.00385617      -0.00177399       0.00396098
Re       1.47585670       5.23056332       5.06478682       0.00923211      -0.00169888       0.00106734
