50
Lattice="12.336457 0.0 0.0 -6.168228499999997 10.683685154694365 0.0 0.0 0.0 15.0" Properties=species:S:1:pos:R:3:forces:R:3 energy=-446.5856342308427 free_energy=-446.5856342308427 stress="-0.006593962557182379 0.0004353429233830054 -1.182016966553788e-05 0.0004353429233830054 -0.007059327348178569 -8.342356271685983e-06 -1.182016966553788e-05 -8.342356271685983e-06 -4.527929693247389e-06" pbc="T T T"
C        0.02540289       0.00605036       3.54993671       0.00201065       0.00200360       0.00257791
C       -1.21077516       2.13971376       3.52532643      -0.01141114       0.00208122      -0.00248704
C       -2.45257823       4.28860422       3.52941398       0.00235287       0.00415345      -0.00067021
C       -3.68222122       6.42668526       3.56037682       0.00896078      -0.00280321      -0.01009406
C       -4.92186921       8.55285503       3.60577602       0.00169611      -0.00250172       0.00611225
C        2.49418812       0.00929002       3.55434123      -0.00161334      -0.00042278       0.00977706
C        1.25523719       2.10821851       3.76180521       0.00114064      -0.00469811       0.00092489
C       -0.05567761       4.23949047       4.00352067       0.00097091       0.00040572      -0.00612803
C       -1.24629599       6.44060473       3.76418007      -0.00041742      -0.00353011       0.00519386
C       -2.44435570       8.56274430       3.55869170      -0.00220328       0.00356897       0.00607967
C        4.96121386       0.01341544       3.46411904      -0.00347795       0.00009857      -0.00699571
C        3.75155307       2.12965611       3.71918453       0.00451226      -0.00192515      -0.00180378
B        2.60426878       4.15813871       4.53866898       0.01040404       0.01344359      -0.00695664
B        1.20835847       6.58181960       4.53375629      -0.00217653       0.01123748      -0.00319570
C        0.02101217       8.59147193       3.71940174      -0.00006527      -0.00259676      -0.00248415
C        7.42882187       0.02395077       3.42916603      -0.00080814       0.00094932      -0.00643420
C        6.20390534       2.14575599       3.42839522      -0.00602300       0.00114947       0.00253005
C        5.02690980       4.25753177       3.86678497      -0.00294594      -0.00082490       0.00158134
S        3.69614796       6.40718736       4.87260635       0.00145227       0.00245107       0.00705825
C        2.50096445       8.63308324       3.86498436       0.00957145      -0.00122514      -0.00319919
C        9.90355967       0.02210790       3.47830237      -0.00350665      -0.00448470      -0.00156300
C        8.66808509       2.15398338       3.36149954      -0.00234539      -0.00007715      -0.00454189
C        7.43893318       4.28999221       3.48381048       0.00079131      -0.00804263      -0.00572168
C        6.20087217       6.42088836       3.79961242       0.00343773       0.00148945       0.00407213
C        4.96197899       8.56820939       3.79639591      -0.00664289       0.00729487       0.00310094
C        0.02434609       1.42473008       3.59415599      -0.00516450       0.00237537       0.00325698
C       -1.24258990       3.55430676       3.60593441      -0.00419401       0.00316769      -0.00747412
C       -2.45425968       5.71591070       3.60085733       0.00604967      -0.00057825       0.00426833
C       -3.68061048       7.84871821       3.56979676       0.00497329      -0.00221717       0.00123003
C       -4.91079461       9.97985383       3.56274463       0.00183115      -0.00219689       0.00962156
C        2.50062455       1.42633152       3.68816226       0.00587505      -0.00101758      -0.00042307
C        1.20220621       3.50637946       4.11668794      -0.00793066      -0.00259362      -0.00599532
C       -0.06105602       5.69542474       4.11586385       0.00085783      -0.00580614      -0.00331588
C       -1.21374496       7.86009846       3.69089304      -0.00303901      -0.00392644      -0.00071738
C       -2.44195140       9.98399786       3.51127377      -0.00394740       0.00384083       0.00793484
C        4.97100617       1.43107138       3.49490542       0.00036092      -0.00235990      -0.00052616
C        3.82675041       3.52216064       4.00827656      -0.00438760       0.00458765       0.00340949
C        1.26491379       7.95944189       4.00469682       0.01064398       0.00262609       0.00842015
C        0.02551321       9.99699957       3.49593618      -0.00248147       0.00020307      -0.00124612
C        7.43389303       1.44128264       3.35626522      -0.00427538       0.00398559      -0.00104685
C        6.22368997       3.56628400       3.53834730      -0.00658634      -0.00112048       0.00483865
C        5.04952246       5.65771115       4.08323559       0.00543267      -0.00396271      -0.00775362
C        3.72535811       7.95401640       4.08240529      -0.00037519      -0.00659809      -0.00814819
C        2.50079857      10.01511507       3.53674796       0.00097885      -0.00467301       0.00275648
C        9.89936000       1.44016833       3.40933397      -0.00781186      -0.00429698      -0.00251297
C        8.66461757       3.57692252       3.41332896       0.00607900      -0.00131238      -0.00450355
C        7.42919174       5.71000121       3.58712368       0.00657240      -0.00410309      -0.00590540
C        6.18687533       7.84379519       3.76188386      -0.00501069       0.00764635       0.01381530
C        4.96041597       9.98715057       3.57932579      -0.00116521       0.00347756      -0.00311117
Re       1.09656310       4.90538497       5.53241961       0.00305042      -0.00234190       0.00639491
