49
Lattice="12.336457 0.0 0.0 -6.168228499999997 10.683685154694365 0.0 0.0 0.0 15.0" Properties=species:S:1:pos:R:3:forces:R:3 energy=-432.6423049812777 free_energy=-432.6423049812777 stress="-0.0025882730861783603 0.005557811197492288 -3.818215860250107e-06 0.005557811197492288 -0.0015065966184019334 -5.400796483119132e-06 -3.818215860250107e-06 -5.400796483119132e-06 -6.278988745704083e-06" pbc="T T T"
C       -0.01907794       0.00552539       3.73875570      -0.00236833       0.00704947      -0.00487296
C       -1.21973016       2.16771419       3.87845677       0.00428002      -0.00092090      -0.00102606
C       -2.47021440       4.29207880       3.71924381      -0.01076742      -0.00809656      -0.01207430
C       -3.74268418       6.41162786       3.61072009       0.00390440       0.00533558       0.00991417
C       -4.98760630       8.54025448       3.62505854      -0.00152076       0.00027885      -0.01155079
C        2.43758796       0.01027901       3.56994104      -0.00380468       0.00448595      -0.00343607
C        1.25647228       2.09846698       4.06804930      -0.00032002      -0.00672019      -0.01044680
C       -0.07454944       4.40477697       4.11387353       0.00656584      -0.00006452       0.00711803
C       -1.28537250       6.44650012       3.65063707      -0.00913108      -0.00648383       0.00322198
C       -2.51493066       8.55404077       3.51428741       0.00042142      -0.00384218      -0.00001152
C        4.91079609      -0.00591050       3.47958179       0.00253819      -0.00019886      -0.00106576
C        3.71952134       2.10676227       3.53313926      -0.00564170       0.01067257       0.00625971
O        1.11438616       6.48901892       3.88509536       0.01127839       0.00132753      -0.00051529
C       -0.04498091       8.55007877       3.57955606      -0.00483379       0.00036753      -0.00131953
C        7.38888730      -0.01089666       3.56638779       0.00279805      -0.00444984       0.00522308
C        6.18885084       2.10361038       3.55469168       0.00494153       0.00401031       0.01060207
C        4.99550017       4.16222004       3.87799169      -0.00202183      -0.00357814      -0.00069893
B        3.62380251       6.42035914       4.19105846      -0.00359894       0.01176823       0.00034825
C        2.39473220       8.54228210       3.74401451      -0.00257760      -0.00081031      -0.00805747
C        9.85320246       0.00265949       3.70530940      -0.00665038       0.00432354       0.00908711
C        8.64804305       2.13672687       3.65257192      -0.00584448       0.00049980       0.00339659
C        7.41343571       4.26452077       3.68629510       0.00085947      -0.00054987      -0.01120188
C        6.13517770       6.38801420       3.73892655       0.01118621      -0.01414399       0.00508688
C        4.88318541       8.53915982       3.76072308       0.00507583       0.00854180       0.00638961
C        0.00602135       1.44061493       3.89867148      -0.00007345      -0.00391924       0.00256432
C       -1.23184159       3.60402362       3.89195514      -0.00170863      -0.00481444      -0.00802533
C       -2.50351101       5.70813390       3.64693628      -0.00933463      -0.00700669       0.00012786
C       -3.75368033       7.83637902       3.56954878       0.00064215       0.00378575      -0.00261428
C       -4.96668778       9.97331977       3.63868989      -0.00330346       0.00308038      -0.00382738
C        2.46160598       1.45109802       3.68100175      -0.00347568       0.00680412      -0.00027962
S        1.28798560       3.65140320       4.86749832       0.00400976       0.00126869       0.00252547
C       -0.08488718       5.78691097       3.88174257       0.00462857       0.00660713       0.00369432
C       -1.28764954       7.85799062       3.55235324      -0.00285957      -0.00488158       0.00635944
C       -2.50428663       9.98253503       3.49353038       0.00048378      -0.00380632      -0.00366481
C        4.93252311       1.41795149       3.47986243      -0.00151517       0.00378820      -0.00234170
O        3.78957581       3.52639623       3.42168018       0.00793753      -0.00885842       0.00433458
C        1.15144292       7.84901681       3.73491436      -0.00230526       0.00141590      -0.00526031
C       -0.01877318       9.97120198       3.52528193       0.00393889      -0.00227206      -0.01273323
C        7.41358983       1.41195737       3.56613689       0.00118287      -0.00187860       0.00946560
C        6.22070675       3.50117520       3.69104989       0.00263339       0.00370080       0.00233383
C        4.92714610       5.60615247       3.91763001      -0.00467047      -0.00095359      -0.01039953
C        3.62638193       7.85471245       3.85381107       0.00630642       0.00511191      -0.00108508
C        2.43735917       9.96521283       3.65652098      -0.00138019      -0.00463720      -0.00087262
C        9.88560909       1.43876059       3.73335170      -0.00216504       0.00160185       0.00678025
C        8.64494880       3.56083065       3.66881205      -0.01163523      -0.00410435      -0.00253260
C        7.37133175       5.68794952       3.67791063       0.01517001      -0.00433311       0.00012685
C        6.11217934       7.81550727       3.71921527       0.00326603      -0.00897853      -0.00832696
C        4.91060676       9.97147746       3.72535402      -0.00037371       0.01128755       0.01172193
Re       3.44526156       4.68796757       5.01689442      -0.00016723       0.00318989       0.01155886
