49
Lattice="12.336457 0.0 0.0 -6.168228499999997 10.683685154694365 0.0 0.0 0.0 15.0" Properties=species:S:1:pos:R:3:forces:R:3 energy=-429.6563915592212 free_energy=-429.6563915592212 stress="-0.0028389933464894133 -0.0011993290505048879 -1.60316090380725e-05 -0.0011993290505048879 -0.004264739042304963 4.275260018243087e-06 -1.60316090380725e-05 4.275260018243087e-06 1.4708554050156044e-05" pbc="T T T"
C        0.05113033       0.02079775       3.93232114      -0.00440850       0.00015442       0.00163637
C       -1.20665608       2.11871609       4.17017986      -0.00793034       0.00377806      -0.00296560
C       -2.47430848       4.26360435       4.27361939       0.00548233       0.00367967      -0.00208403
C       -3.67977706       6.40528074       4.05902646       0.00406145      -0.00628925      -0.00180732
C       -4.90608436       8.53799158       3.90618280      -0.00195673      -0.00424203       0.00050381
C        2.49839672      -0.01929517       3.89026868       0.00239789       0.00101039      -0.00434311
C        1.27940117       2.16224310       3.68805357      -0.00315931       0.00468783      -0.00313370
C       -0.06932289       4.21430369       4.18598832       0.00545498       0.00268334      -0.00443804
C       -1.23008224       6.39708632       4.03969452      -0.00162967      -0.00716730       0.00388880
C       -2.42917976       8.52979332       3.98403145       0.00309284      -0.00724355       0.00720694
C        4.97358804      -0.03191773       3.88274808      -0.00127569       0.00361476       0.00255178
C        3.73914778       2.01608792       3.45125344       0.00207360      -0.00033859       0.00579269
B        1.29940046       6.34538714       3.57690498       0.00590986      -0.00538417      -0.00247220
C        0.05246946       8.51555764       3.87890004      -0.00048927       0.00055584       0.00934637
C        7.43174664      -0.00718942       3.96299562       0.00163163      -0.00388027      -0.00202233
C        6.20019468       2.11986192       3.79003695      -0.00637094       0.00017518      -0.00874805
C        5.10119942       4.28550073       3.29988860      -0.00739718       0.00715495      -0.00040550
S        3.67767258       6.44035034       2.59497875       0.00147032       0.00336716      -0.00214929
C        2.51723317       8.58104298       3.70955280       0.00614928       0.00870476       0.00587966
C        9.90941709       0.00696570       3.98982504       0.00566528      -0.00289652      -0.01203987
C        8.65692511       2.12812960       4.11965814      -0.00456029      -0.00046914      -0.00044461
C        7.42829950       4.26780619       3.97102559       0.00516405       0.00507230       0.00245973
C        6.22407621       6.41927806       3.67880080       0.00299534       0.00437871      -0.00692170
C        4.98771300       8.57534371       3.68027481      -0.00093716      -0.00063046       0.00935499
C        0.06984181       1.47350925       3.94836944      -0.00610472       0.00264960      -0.00324989
C       -1.25819685       3.51674442       4.34998347      -0.00094272       0.00329047       0.00063883
C       -2.45483959       5.68700036       4.16231274       0.00130727      -0.00448625      -0.01046683
C       -3.66903309       7.82541121       3.99232834       0.00135215      -0.00747435       0.00459083
C       -4.90169114       9.97062279       3.92234861      -0.00207496       0.00060041      -0.01112003
C        2.47943411       1.41357918       3.68643766       0.00471183       0.00156778       0.00311780
S        0.57315450       4.49856613       1.12751595      -0.00841473       0.00595328       0.00410645
C       -0.01752190       5.60683947       3.92534382       0.00032469      -0.00212480       0.00873117
C       -1.19388126       7.81258937       3.96281884       0.00140044      -0.00938627      -0.00017021
C       -2.43450323       9.95342005       3.92288968       0.00296199      -0.00264099      -0.00020089
C        4.97763316       1.39045679       3.71959799      -0.00233261       0.00063008       0.00079284
S        3.72296966       3.49389980       2.60277111      -0.00310349      -0.01755892       0.00781604
C        1.30403735       7.83597830       3.72714967       0.00509841       0.00537919       0.01204821
C        0.04029149       9.94568143       3.92267101      -0.00239858       0.00208379       0.00457413
C        7.42211806       1.42009934       3.98330612      -0.00775574      -0.00484414       0.00532497
C        6.22327608       3.54266680       3.71532818      -0.00236237       0.00599481      -0.00005376
C        5.09147618       5.67635352       3.29149480      -0.00401912       0.00626252      -0.00182316
C        3.75120267       7.94415101       3.43260700       0.00230820       0.00317806       0.00321787
C        2.50916058       9.98747160       3.92510388       0.00705319       0.00500058      -0.00158260
C        9.89764429       1.41795434       4.13172692      -0.00427575      -0.00249386      -0.01325008
C        8.64448358       3.55092786       4.16183592       0.00659262       0.00430684       0.00005207
C        7.43234876       5.69290099       3.93923108       0.00295844       0.00286539       0.00049116
C        6.20868228       7.84183209       3.73393551      -0.00233427      -0.00156213       0.00050771
C        4.98483345       9.99846710       3.89570955       0.00101709      -0.00364522      -0.00568428
Re       1.44187189       4.38869938       3.05569243      -0.00240104      -0.00402196      -0.00305416
