49
Lattice="12.336457 0.0 0.0 -6.168228499999997 10.683685154694365 0.0 0.0 0.0 15.0" Properties=species:S:1:pos:R:3:forces:R:3 energy=-435.6389874209118 free_energy=-435.6389874209118 stress="-0.006451634351490184 -0.003415803549057872 1.6309806221830696e-05 -0.003415803549057872 -0.004782259244340884 6.3262482099027274e-06 1.6309806221830696e-05 6.3262482099027274e-06 -3.8892418179658397e-07" pbc="T T T"
C       -0.00454535      -0.01943909       3.77145440       0.00725014       0.00121494      -0.01245506
C       -1.26690208       2.10492973       3.89382447       0.00117207      -0.00361715       0.00671265
C       -2.49304870       4.25209727       3.52186733      -0.01122155       0.00068405      -0.00028767
C       -3.69388550       6.40639961       3.29061529       0.00505344      -0.00429145      -0.00162611
C       -4.91973889       8.55602753       3.42620993       0.00401301      -0.00065294       0.00159774
C        2.46276144      -0.03660012       3.77764884       0.00299792      -0.00351929       0.00164265
C        1.20373889       2.00443168       4.41172707      -0.00339309      -0.00140666      -0.00678637
C       -0.19268109       4.30273746       4.23025370      -0.00462600       0.00131466       0.00255549
C       -1.26773866       6.40195073       3.58282352       0.00108056       0.01276439       0.00711936
C       -2.45928676       8.53806777       3.47607522      -0.00021585       0.00780035       0.00466676
C        4.93889032      -0.02530323       3.63657016       0.00733021      -0.00663632      -0.00325600
C        3.69642781       2.02395808       4.04026917      -0.00531627      -0.00277020       0.01337921
B        1.21509481       6.37669338       4.26940063      -0.00459951       0.00679295      -0.00441605
C        0.00452906       8.52644227       3.66846165       0.00418885      -0.00636301       0.00097352
C        7.40611499      -0.02568115       3.60276521      -0.00298899       0.00704235       0.00585216
C        6.15957195       2.12562506       3.55576287      -0.00474824       0.00693444      -0.00048582
C        5.02275360       4.35956472       3.53736254       0.00384285       0.00061191      -0.00126150
N        3.88800595       6.44947252       4.04018972      -0.00544085      -0.00463538       0.01373153
C        2.49044381       8.51184087       3.80136586       0.00070021      -0.00490549       0.00002896
C        9.86409428      -0.02346810       3.67541975      -0.00492552       0.00078908      -0.01049749
C        8.62702544       2.11550284       3.52265396       0.00784325      -0.00020759       0.00060628
C        7.41073016       4.26825438       3.29674355      -0.00113083      -0.00657215       0.00082310
C        6.20459866       6.45503201       3.28934070       0.00180107      -0.00394896       0.00095123
C        4.95848343       8.54053208       3.58017556       0.00030392       0.00824369       0.00529316
C       -0.02422050       1.38615015       4.04694860       0.00208730      -0.00442947      -0.00474422
C       -1.31431170       3.52671381       3.87069924      -0.01133335      -0.00030275      -0.00053897
C       -2.48109414       5.67989558       3.42243673       0.00299468       0.00368681       0.00746104
C       -3.69045709       7.83332324       3.36465751       0.00449713       0.00038594       0.00208336
C       -4.93648925       9.95824843       3.65711490       0.00627599      -0.00084897      -0.00874077
C        2.44307332       1.34382445       4.11040542      -0.00674315      -0.00445835      -0.00218256
P        1.12303175       3.63572062       5.21420599       0.00683309      -0.00048688       0.01244384
C       -0.11269596       5.66943008       3.96117696       0.00227676       0.00442013      -0.00783825
C       -1.23261359       7.82253401       3.55510177      -0.00004969       0.00897720      -0.00330021
C       -2.46660875       9.95430275       3.61625886       0.00449682       0.00218181       0.00398678
C        4.94163695       1.39453502       3.73064476      -0.00351162      -0.00413748      -0.00161476
P        3.67927606       3.70064437       4.35808033      -0.00271376       0.00595382      -0.01532264
C        1.25266912       7.84047622       3.87052074       0.00161869      -0.00038085       0.00893659
C        0.00456485       9.94829580       3.60593732       0.00623088      -0.00939927       0.00583416
C        7.39314218       1.40474070       3.53172307       0.00049885       0.01232663      -0.00287403
C        6.19020701       3.55508421       3.42042215      -0.00065696       0.00316794      -0.00298246
C        4.99303531       5.78146969       3.53762755      -0.00017223      -0.00118053       0.00020655
C        3.74979327       7.80106693       3.80405895      -0.00024493      -0.00293069       0.00209844
C        2.47501669       9.94539657       3.66598107      -0.00664433      -0.00148876      -0.00087131
C        9.85659379       1.40218463       3.67866254       0.00728299      -0.00235425      -0.00852617
C        8.62701820       3.54116609       3.40713809      -0.00431021      -0.00562622      -0.00015338
C        7.41137122       5.69956334       3.24240794       0.00367907      -0.00946297      -0.00673638
C        6.18847294       7.85836152       3.39658251       0.00043854       0.00098327       0.00621935
C        4.93610284       9.95534453       3.66498486       0.00079812       0.00952926      -0.00404815
Re       2.61544122       5.35100809       5.32196060      -0.01259947      -0.00879162      -0.00365756
