49
Lattice="12.336457 0.0 0.0 -6.168228499999997 10.683685154694365 0.0 0.0 0.0 15.0" Properties=species:S:1:pos:R:3:forces:R:3 energy=-432.6823497173149 free_energy=-432.6823497173149 stress="-0.0023544741340182015 -0.00010213217149864119 -1.787353846455377e-06 -0.00010213217149864119 -0.004317243113215527 1.386231457102062e-06 -1.787353846455377e-06 1.386231457102062e-06 2.909650072278739e-06" pbc="T T T"
C        0.01453400      -0.01114186       3.63105496       0.00244138      -0.00117115       0.00523436
C       -1.22014733       2.12565005       3.79513970      -0.00488542       0.00784677       0.01000680
C       -2.44186195       4.27937054       3.95944924       0.00348455      -0.00825333      -0.00129940
C       -3.67320812       6.41176558       3.85995818       0.00183438      -0.00339288      -0.00669824
C       -4.92883115       8.53529958       3.67512831      -0.00051392      -0.00493862       0.00910028
C        2.47795194       0.02517844       3.66335685       0.00797603       0.00692911      -0.00414321
C        1.21245825       2.10283756       3.51852735      -0.01097081       0.00446486      -0.00219562
C       -0.00440785       4.21100145       3.81702311       0.00227893      -0.00308197       0.00392616
C       -1.20683538       6.40548987       3.79614272      -0.00538723      -0.00006089       0.00029977
C       -2.45308407       8.55364606       3.73752499       0.00514212       0.00068965      -0.00771312
C        4.92646561       0.03572129       3.75042822       0.00399337      -0.00353891      -0.00162846
C        3.72372944       2.14406712       3.83051390       0.00596437      -0.00526262      -0.00227209
B        1.30785152       6.49407201       3.75749041      -0.00443493      -0.00783054      -0.00469332
C       -0.00368555       8.59703874       3.67543249       0.00181624       0.01087476      -0.01026654
C        7.40507751       0.03925611       3.73340245      -0.00028950       0.00428383       0.00056251
C        6.18512572       2.14252679       3.96995234       0.00261388      -0.00350197      -0.00400984
C        5.00669320       4.24456671       4.07185037       0.00400953      -0.00045707       0.00176460
S        3.52922343       6.19366732       3.08436873       0.00493647      -0.00803283      -0.00333178
C        2.48162512       8.62918156       3.52894252      -0.00064918      -0.00153624       0.00556103
C        9.89107969       0.02284137       3.66382898       0.00087226       0.00608758       0.00349528
C        8.65628496       2.14995848       3.89900315      -0.00135668      -0.00043994       0.00803299
C        7.43142838       4.28110623       4.01803849       0.00007385       0.00703458      -0.00045687
C        6.18613022       6.39058044       3.77552711      -0.00666556       0.00229438      -0.00526381
C        4.94024449       8.53351976       3.53864780      -0.00739718      -0.00490158       0.00079536
C        0.01277387       1.41658701       3.64978754      -0.01048228       0.00348668      -0.00318021
C       -1.22557737       3.53196897       3.92520058       0.00519543       0.00161115       0.00798774
C       -2.43639357       5.69904014       3.89109691      -0.00112238      -0.00890494      -0.00354908
C       -3.68471954       7.83360919       3.75614956       0.00354305      -0.00337989       0.00380556
C       -4.91689487       9.97413219       3.63687565       0.00760442      -0.00123091      -0.00140133
C        2.48629450       1.48109722       3.64819525      -0.00181407       0.01112859      -0.00409244
O        1.07403876       3.49520037       3.14444226       0.00341697       0.00546842       0.01342861
C        0.02292248       5.63777640       3.75868371      -0.01255027      -0.00334799      -0.00403432
C       -1.21932541       7.84376550       3.74277278       0.00484225       0.00545298      -0.00382106
C       -2.46420219       9.99381358       3.71185338       0.00530882       0.00166256      -0.00912475
C        4.93100834       1.46504619       3.84777972       0.00567510      -0.00800634       0.00190558
O        3.77712147       3.53053736       4.15719865       0.00472475       0.00610554      -0.00304787
C        1.25333285       7.94773982       3.59954890      -0.00391468      -0.00072185      -0.00534394
C       -0.00583475      10.01908542       3.71442544       0.00274720       0.00792720       0.00187373
C        7.40909469       1.44937263       3.87505265       0.00068458      -0.00081554       0.00446585
C        6.20419032       3.54947048       4.08826694       0.00232491      -0.00159242      -0.00494255
C        4.99921696       5.59853771       3.77496001       0.00138738      -0.00296845       0.01137400
C        3.68794362       7.89510820       3.42231065      -0.00384457      -0.01273310       0.00004831
C        2.48057718      10.03683771       3.63288878      -0.00012296       0.00534844      -0.00426605
C        9.88962324       1.43685365       3.79201872      -0.00071508       0.00591566       0.00633807
C        8.66311357       3.56918259       3.97921142      -0.00073267      -0.00057734       0.00727974
C        7.42784326       5.69545987       3.91342460      -0.00374813       0.00763978      -0.00963841
C        6.17447342       7.81338898       3.63716667      -0.00780862      -0.00052103      -0.00230281
C        4.94537070       9.97165380       3.60632481      -0.00038024      -0.00088668       0.00545301
Re       1.94755967       4.75608296       4.29835158      -0.00510587      -0.01016550      -0.00002222
