49
Lattice="12.336457 0.0 0.0 -6.168228499999997 10.683685154694365 0.0 0.0 0.0 15.0" Properties=species:S:1:pos:R:3:forces:R:3 energy=-436.2203236970806 free_energy=-436.2203236970806 stress="-0.004645774469141278 0.0011993087522767618 5.211842679173903e-06 0.0011993087522767618 -0.008383158699017259 1.8078311934155618e-05 5.211842679173903e-06 1.8078311934155618e-05 2.5631880446954222e-06" pbc="T T T"
C       -0.01098452       0.00389542       3.62761228       0.00574792       0.00422579       0.00296082
C       -1.25482674       2.13126917       3.87667429       0.00574368      -0.01169068      -0.01112388
C       -2.50970829       4.27545402       3.83959149       0.00369954      -0.00106462       0.00820387
C       -3.73639692       6.40708339       3.70709235      -0.01097153      -0.00410091       0.00687752
C       -4.96087577       8.53226783       3.58125127       0.00130302       0.00829129      -0.00044337
C        2.45275073      -0.02275578       3.60925276       0.00090809       0.00565697       0.00001091
C        1.24206068       2.02664787       4.15473676      -0.00550675      -0.01101164      -0.01147907
C       -0.15479241       4.28211463       4.39862198      -0.01231698      -0.00665085      -0.00092630
C       -1.27695027       6.42020591       3.87496855       0.01109421      -0.00069018       0.00050456
C       -2.48330438       8.53504253       3.59887794       0.00267740       0.00013569      -0.00198202
C        4.91644522      -0.00726644       3.48608523       0.00842933       0.00161112       0.00433212
C        3.70021068       2.11309306       3.70098007      -0.00914222       0.00617964      -0.00708179
P        1.51783650       6.31592751       4.26178049      -0.00366115      -0.00383060      -0.00306868
C       -0.01812932       8.56407930       3.61863338       0.00614326      -0.00128275       0.00043080
C        7.38045320       0.02922295       3.39635628      -0.00304599       0.00036712       0.00306409
C        6.15417560       2.12675183       3.53408943      -0.00064787       0.00555563       0.00201811
C        4.93958592       4.19398187       3.89705834       0.00451968       0.00162333       0.00286670
B        3.55817111       6.46323312       3.77649194      -0.00922571       0.00057365       0.00825593
C        2.45850250       8.64144461       3.43719361      -0.00387202      -0.00143488       0.00537799
C        9.86985321       0.04308953       3.43702084      -0.00354288      -0.00356607      -0.00478389
C        8.62373500       2.15221177       3.56813900      -0.00442180       0.00841299       0.01379529
C        7.37787302       4.27383850       3.70430704      -0.00560646       0.00283540      -0.01696983
C        6.12844324       6.40246186       3.74116114      -0.00003606      -0.00474442       0.00393025
C        4.92641541       8.57519388       3.46113066       0.00997938      -0.00044103      -0.00225922
C       -0.01271870       1.41007186       3.89142737       0.00156174      -0.00950365       0.00298788
C       -1.30336350       3.54189513       4.04919439       0.00699496      -0.01198271       0.00562374
C       -2.50673180       5.70022349       3.80660587       0.00055912       0.00242227      -0.00033675
C       -3.72510953       7.82572579       3.62687058      -0.00367591      -0.00142207       0.00265768
C       -4.95393648       9.95804385       3.59088241       0.00296706       0.00952480      -0.00230076
C        2.45522686       1.39018155       3.80368343      -0.00815041       0.00406202      -0.00059350
P        1.32824558       3.55632350       5.03347041      -0.00112846       0.00131944       0.00401064
C       -0.10361396       5.66403514       4.16795973      -0.00637071       0.00372481       0.00863490
C       -1.24983260       7.83320362       3.69757182       0.00830428       0.00184687      -0.00192308
C       -2.48371158       9.95668652       3.53651799       0.00437226       0.00329554      -0.00233302
C        4.92584337       1.41281460       3.52729545      -0.00298166       0.00721307      -0.00254417
N        3.75453720       3.47865543       3.84957225       0.00090654       0.00514962      -0.00509167
C        1.25018965       7.94339828       3.70251414       0.00052464       0.00352750      -0.00991854
C       -0.01699233       9.98207473       3.46365596       0.00640880      -0.00384716      -0.00322388
C        7.38983652       1.44196188       3.46042160      -0.00203007       0.00261131       0.00912409
C        6.16588895       3.53225393       3.68558583       0.00171380       0.00123512      -0.00152168
C        4.88589357       5.64206360       3.89842955       0.00309210      -0.00447153       0.00352260
C        3.67227737       7.92662006       3.43855171       0.00304312       0.00263357       0.00017538
C        2.45828531      10.04218760       3.35550049      -0.00705080      -0.00316489       0.00831769
C        9.86588746       1.44970475       3.60210727      -0.00320129      -0.00254259      -0.00159844
C        8.61039908       3.56720446       3.68720780      -0.00327153       0.01053132       0.00366229
C        7.36184278       5.69752851       3.73235801      -0.00963880      -0.00495640      -0.00978249
C        6.13914293       7.82467179       3.59655166       0.00871118      -0.00338246      -0.00324265
C        4.93016450      10.00077408       3.47328679       0.00614304       0.00262534      -0.00389320
Re       3.19919926       4.92175661       4.98838999       0.00394893      -0.01140913      -0.00292394
