49
Lattice="12.336457 0.0 0.0 -6.168228499999997 10.683685154694365 0.0 0.0 0.0 15.0" Properties=species:S:1:pos:R:3:forces:R:3 energy=-434.27298640293145 free_energy=-434.27298640293145 stress="-0.005788874697440893 -8.578251371679702e-05 6.579020045382861e-07 -8.578251371679702e-05 -0.0076972509551199745 8.00753008758072e-06 6.579020045382861e-07 8.00753008758072e-06 -1.7583978049485052e-06" pbc="T T T"
C        0.00210542       0.00474076       3.60979858       0.00150315       0.00323231      -0.00885004
C       -1.24061206       2.12924755       3.51253095       0.00408736      -0.01427014       0.00920257
C       -2.47356108       4.27454500       3.32190164       0.00503383       0.00481563      -0.00052962
C       -3.70150888       6.41945666       3.33789002      -0.00144576       0.00817496      -0.00728450
C       -4.93442967       8.55248710       3.53478877      -0.00459300      -0.00156714      -0.00260111
C        2.46686352      -0.00883705       3.63871291       0.00006016       0.00445234      -0.00467329
C        1.23391293       2.10375310       3.90957162       0.00554878       0.00906894       0.00027131
C       -0.06756770       4.25920707       3.79223923       0.00363107      -0.00813415      -0.00397001
C       -1.28037764       6.42846953       3.58635666      -0.01191759       0.00256768      -0.00287044
C       -2.46749684       8.55244979       3.52912231       0.00113878       0.00227885       0.00109782
C        4.93104895       0.00549905       3.61113654       0.00135244       0.00526918      -0.00564470
C        3.69835928       2.10486609       3.91452360      -0.00719181       0.00937472       0.00432610
P        1.15817028       6.31782866       4.80722458       0.01177527      -0.00235254       0.00776154
C       -0.01563615       8.57311889       3.83240610      -0.00196371       0.00859288       0.00157575
C        7.39952141       0.01193649       3.59267878       0.00207000      -0.00635038       0.00355619
C        6.17309462       2.13047775       3.52193150      -0.00250004      -0.01333084       0.01301995
C        5.00269885       4.26155779       3.81946225      -0.00754189      -0.00665183      -0.00256490
P        3.78292584       6.32558512       4.85099662      -0.01626147      -0.00499971      -0.00455093
C        2.46797457       8.62482004       4.06055351       0.00314020       0.01297423       0.01028667
C        9.87046803       0.01174153       3.59238268      -0.00346477      -0.00710768      -0.00360063
C        8.63422203       2.13613060       3.36252241       0.00337282      -0.00826913      -0.00745102
C        7.40600750       4.27532229       3.33408007      -0.00247888      -0.00163839      -0.00462347
C        6.21604330       6.42860046       3.61147808       0.01159063       0.00364499      -0.00180941
C        4.95009194       8.57331803       3.84347048       0.00015221       0.01425580       0.00387502
C       -0.00155618       1.42684368       3.66525863       0.00917813      -0.00093816       0.00216914
C       -1.25597849       3.54550569       3.47864806      -0.00201142      -0.01229471       0.00319370
C       -2.48014117       5.70208776       3.35538414      -0.00676951       0.00704849       0.00459369
C       -3.70108989       7.84242202       3.44315698      -0.00106546       0.00636349      -0.00790779
C       -4.93270105       9.97464524       3.58965656      -0.00134460      -0.00097776       0.00385430
C        2.46651991       1.40916077       3.83529349      -0.00050169       0.01389853      -0.00305142
B        1.23409848       3.58137121       4.30049147      -0.00432984      -0.00041652      -0.00429205
C       -0.13800197       5.65205477       3.87845203       0.00747696      -0.00394257      -0.00703253
C       -1.24242405       7.84769842       3.65946689      -0.00267278       0.00253889      -0.00139000
C       -2.46994588       9.97458102       3.58922001       0.00272286       0.00303566      -0.00059193
C        4.93419300       1.42777266       3.67150424      -0.00936290      -0.00071900       0.00151770
B        3.69573963       3.58145531       4.31151319       0.00410487      -0.00074660      -0.00078724
C        1.21354915       7.95436652       4.19799254       0.00287417       0.00196455       0.00684076
C       -0.00563986       9.98695513       3.65275317       0.00139685       0.00536508       0.00202223
C        7.40089523       1.42563979       3.44895355       0.00010081      -0.01208567      -0.00541795
C        6.18902448       3.54703915       3.49652743      -0.00150105      -0.01150609       0.00220810
C        5.07682778       5.65302778       3.91773790      -0.00451325      -0.00247597      -0.00975338
C        3.72193516       7.95627626       4.21363722      -0.00168630      -0.00032364       0.00622683
C        2.46703758      10.00262932       3.71618475      -0.00023953       0.00153617       0.00165859
C        9.86793365       1.42502131       3.44407523       0.00289757      -0.01374866       0.00317317
C        8.63407810       3.56136949       3.28793396       0.00365483       0.00258348       0.00007223
C        7.41366189       5.70257423       3.36890388       0.00650558       0.00237169       0.00386579
C        6.17793433       7.84819062       3.67417422      -0.00190500       0.00369933       0.00147239
C        4.93909300       9.98626864       3.65408899      -0.00127781       0.00982182       0.00735421
Re       2.46003205       4.66727005       5.57595114       0.00317076      -0.01408238      -0.00394739
