49
Lattice="12.336457 0.0 0.0 -6.168228499999997 10.683685154694365 0.0 0.0 0.0 15.0" Properties=species:S:1:pos:R:3:forces:R:3 energy=-435.64993773453784 free_energy=-435.64993773453784 stress="-0.0063392585773897605 -0.0025850757049099174 -9.232898327457847e-06 -0.0025850757049099174 -0.009225937731561986 9.247690414326294e-06 -9.232898327457847e-06 9.247690414326294e-06 5.197316405140618e-06" pbc="T T T"
C        0.00481717      -0.02529590       3.92496219      -0.00293094      -0.00471419      -0.00096423
C       -1.24646675       2.09594691       3.93613709      -0.00244993       0.00102522      -0.00728317
C       -2.45538471       4.26357247       3.96160044      -0.00409892       0.00045732      -0.00175381
C       -3.65023633       6.40718254       3.97280805       0.00142510       0.01239399      -0.00221967
C       -4.90050424       8.54462857       3.97172188      -0.00321795      -0.00021185       0.00028920
C        2.47585666      -0.02057384       3.74971477       0.00455042      -0.00839966      -0.00437761
C        1.18682423       2.08785163       3.62057696       0.00219639       0.00422775      -0.00047129
C       -0.04695795       4.16379812       3.65243556      -0.00125316       0.00407216      -0.00506475
C       -1.19906722       6.39413314       3.67927564      -0.00011159      -0.00330023      -0.00231386
C       -2.43346128       8.53214009       3.76219839       0.00335608      -0.00388526       0.00089254
C        4.94131490       0.00092409       3.64285368       0.00258633      -0.00194469       0.00035445
C        3.67558288       2.08432672       3.42816718      -0.00530569       0.00721021       0.00788723
P        1.33801675       6.38822666       2.35134792      -0.00382545      -0.00523152       0.00458441
C        0.01804547       8.55606350       3.51088356      -0.00190491       0.00152004      -0.00503702
C        7.40268163       0.01300989       3.73460235       0.00383141       0.00555970      -0.00213001
C        6.17197047       2.14335940       3.70455762       0.00138023      -0.00540563       0.00376098
C        5.04500645       4.33516755       3.73752625       0.00612093      -0.00272096       0.01206847
B        3.64404181       6.38036940       3.97126606      -0.00483017       0.00038427       0.01121862
C        2.48705297       8.58407777       3.64988900      -0.00051983      -0.00053699       0.00387862
C        9.86964549      -0.00670628       3.92328406      -0.00542030       0.00523297       0.00349199
C        8.63112928       2.13282855       3.93257157       0.00227856      -0.00198474      -0.00535370
C        7.43843913       4.27652962       3.96583493       0.01066327      -0.00582885      -0.00277920
C        6.23247778       6.43177021       4.07446326       0.00191134      -0.00867090       0.00719196
C        4.95416451       8.54676763       3.96801635       0.00254854      -0.00144822       0.00157894
C       -0.02416064       1.38403302       3.85144242      -0.00026108      -0.00330260       0.00127634
C       -1.25978348       3.50857651       3.89421667      -0.00182999       0.00252504      -0.00489741
C       -2.41955614       5.69124281       3.89618670      -0.00300716       0.00469588      -0.00196111
C       -3.66058604       7.82951589       3.91607841      -0.00120977       0.00942958       0.00538934
C       -4.91667479       9.95868312       3.89286364      -0.00048813      -0.00506661      -0.00563708
C        2.45542625       1.39514283       3.59192048       0.00109676      -0.00231900      -0.00182385
N        1.06509857       3.43266731       3.40493044       0.00311788       0.00642534      -0.00085689
C        0.03890572       5.60710580       3.49629034      -0.01075415      -0.00151630      -0.00450255
C       -1.20025764       7.81487433       3.62622403       0.00160489      -0.00537535       0.00553168
C       -2.45072874       9.95877026       3.71277477       0.00550462      -0.00719348      -0.00361608
C        4.93340782       1.43158418       3.58162687      -0.00625119       0.00219813       0.00707116
P        3.55437001       3.79772843       3.02243028      -0.01270668       0.01521055      -0.00237328
C        1.27434566       7.91207568       3.33574043      -0.00148899       0.01266954       0.00598521
C        0.00711285       9.97904013       3.63556075       0.00526087       0.00379102      -0.00456633
C        7.39740294       1.43223519       3.80440747       0.00344723       0.00162072       0.00161401
C        6.21720143       3.55855165       3.80599242       0.00952541      -0.00641332      -0.00320905
C        5.01666002       5.71072551       4.00421033      -0.00405131      -0.00090967      -0.00974349
C        3.69985324       7.88016994       3.85514397       0.00182383      -0.00308092       0.01486591
C        2.46823641       9.99615011       3.78878543       0.00010745       0.00343623      -0.00707277
C        9.85845441       1.40838115       3.96250623      -0.00119512       0.00449086      -0.00918900
C        8.65064519       3.55649454       3.98016002       0.00465939      -0.00811418      -0.00215587
C        7.45604665       5.70200079       4.03453385       0.00772067      -0.00129646       0.00767855
C        6.20468039       7.84585396       4.03592819       0.00064235      -0.00610411       0.00291655
C        4.94068424       9.96212449       3.95910391      -0.00669117       0.00225804       0.00396736
Re       1.98561988       5.11472309       4.03896677      -0.00155639      -0.00585886      -0.01214042
