50
Lattice="12.336457 0.0 0.0 -6.168228499999997 10.683685154694365 0.0 0.0 0.0 15.0" Properties=species:S:1:pos:R:3:forces:R:3 energy=-447.1097954599918 free_energy=-447.1097954599918 stress="-0.005036438967933735 1.9375032158183143e-05 1.5389322053578537e-06 1.9375032158183143e-05 -0.00037468582095886944 -8.445865358434095e-06 1.5389322053578537e-06 -8.445865358434095e-06 6.567149981595012e-06" pbc="T T T"
C       -0.00026633      -0.01073660       3.77363352       0.00017984      -0.00297951      -0.00154874
C       -1.24037168       2.11546346       3.69011234      -0.00078074       0.00365850       0.00154625
C       -2.47282362       4.25169300       3.68995394      -0.00520956      -0.00207019      -0.00795178
C       -3.70156729       6.39377712       3.77554855      -0.00044955      -0.00558306      -0.00277705
C       -4.93140033       8.53925469       3.81826850       0.00226654       0.00097070       0.00222568
C        2.46658071      -0.00018638       3.84254861      -0.00206218       0.00428589       0.00102395
C        1.22837862       2.13313801       3.85504108       0.00055314      -0.00330991       0.00339511
C       -0.01166571       4.26825951       3.74844215       0.00161071      -0.00211852       0.00055759
C       -1.25157958       6.40022379       3.77606181      -0.00149919      -0.00370423       0.00116991
C       -2.47182802       8.53914841       3.82717680      -0.00334322       0.00098755      -0.00140353
C        4.93333811      -0.01077355       3.78574575       0.00008936      -0.00106783      -0.00426349
C        3.70494485       2.13317244       3.86197940      -0.00339446       0.00057802      -0.00122139
B        2.46588217       4.32203099       4.20563705      -0.00127758       0.00629112      -0.00865467
O        1.06489252       6.42020114       3.22497125       0.00954903       0.00131282       0.00483977
C       -0.02159711       8.53176962       3.80303092      -0.00010974       0.00055257      -0.00309227
C        7.40302999      -0.03485093       3.63936513       0.00798407       0.00051291       0.00717960
C        6.17336208       2.11583763       3.69818118      -0.00036921       0.00288053      -0.00193451
C        4.94394733       4.26907305       3.74922422       0.00446644      -0.00811329       0.00098574
O        3.86500706       6.41979027       3.22525800      -0.00638130      -0.00322685       0.00079590
C        2.46621235       8.48754245       3.55313608      -0.00071102      -0.00237033       0.00710607
C        9.86558395      -0.03512070       3.63360352       0.00030739       0.00143070       0.00518278
C        8.63469860       2.10817843       3.62833637      -0.00157390       0.00085628      -0.00260334
C        7.40564830       4.25158712       3.68851159       0.00556865       0.00018158      -0.00265227
C        6.18492178       6.40020193       3.76377510      -0.00169280      -0.00069814       0.00671968
C        4.95471361       8.53164412       3.79267740      -0.00275450       0.00188688      -0.00569822
C       -0.00361181       1.41078567       3.76258753      -0.00015966      -0.00200431       0.00593379
C       -1.24713917       3.54266117       3.69084305      -0.00234118       0.00344935      -0.00153741
C       -2.47496696       5.67563925       3.75354300      -0.00247736      -0.00548654      -0.00591701
C       -3.70159805       7.82249829       3.81412436      -0.00016660      -0.00442055      -0.00471615
C       -4.93288916       9.96777584       3.82059323       0.00207187       0.00086622      -0.00023145
C        2.46661494       1.42588767       3.87205643      -0.00123016       0.00034586       0.00118573
C        1.19683046       3.55762811       3.91276263      -0.00035511      -0.00320419       0.00788014
C       -0.05072173       5.68328437       3.69255897      -0.00120638      -0.00216986      -0.00223883
C       -1.24937206       7.82683112       3.81878725      -0.00227169      -0.00012787      -0.00488958
C       -2.47043681       9.96761142       3.82889358      -0.00429264       0.00302004      -0.00264679
C        4.93701165       1.41074646       3.77348809      -0.00326798       0.00133074       0.00180307
C        3.73594044       3.55788447       3.91691443       0.00108179       0.00040666       0.00362623
C        1.20022591       7.79502459       3.70974832      -0.00424407       0.00403926      -0.00276810
C       -0.00199084       9.95471889       3.74558551       0.00635943       0.00093388       0.00367954
C        7.40282123       1.39337744       3.64248853       0.00032370       0.00236642       0.00311489
C        6.17960538       3.54307442       3.69378725       0.00749241      -0.00001878      -0.00415805
C        4.98387052       5.68351087       3.68535718       0.00179709      -0.00724355       0.00085322
C        3.73236474       7.79533406       3.70611793       0.00139524       0.00203198      -0.00235525
C        2.46585413       9.92196378       3.57909208       0.00508365      -0.00369862       0.00603408
C        9.86643854       1.39309100       3.63736521      -0.00146450       0.00323045       0.00366844
C        8.63472058       3.53386968       3.66056633      -0.00144287      -0.00211927      -0.00206251
C        7.40837756       5.67554731       3.74807588      -0.00013404      -0.00151784      -0.00697942
C        6.18277034       7.82683144       3.80518234      -0.00136313       0.00378265       0.00087308
C        4.93479086       9.95466579       3.73440352      -0.00229532       0.00091962       0.00763832
Re       2.46472615       6.31414383       4.65551634       0.00214133       0.01414406      -0.00471671
