49
Lattice="12.336457 0.0 0.0 -6.168228499999997 10.683685154694365 0.0 0.0 0.0 15.0" Properties=species:S:1:pos:R:3:forces:R:3 energy=-444.4644299840157 free_energy=-444.4644299840157 stress="-0.006693240328354699 -0.0001649911984008177 -1.1754167942755948e-06 -0.0001649911984008177 -0.0001761516671433506 4.336373705254372e-06 -1.1754167942755948e-06 4.336373705254372e-06 1.0564683253034785e-06" pbc="T T T"
C        0.00408144       0.01590280       3.71521513       0.00155756       0.00382159       0.00568141
C       -1.24123606       2.12330397       3.64037259      -0.01297307      -0.00458588       0.00238482
C       -2.47194535       4.26901912       3.59486725      -0.00778398       0.00389990      -0.01021957
C       -3.69155268       6.41743298       3.63251106      -0.00643068       0.00095864       0.00521127
C       -4.92835815       8.56447140       3.70771477       0.00574417      -0.00472811      -0.00427719
C        2.46468866       0.03638396       3.74300440       0.00137061      -0.00296308       0.01696044
C        1.21945101       2.18516455       3.77429485       0.00853645       0.00684794      -0.00501492
C       -0.04833148       4.25414764       3.72033029      -0.00529968      -0.00025931      -0.01032135
C       -1.24591728       6.41484544       3.67606262      -0.00614783      -0.00713484      -0.00507906
C       -2.47008327       8.56452419       3.69590786       0.00138066       0.00512663       0.00255926
C        4.93430558       0.00892540       3.73515515       0.00220081       0.01046563       0.00429234
C        3.69831257       2.17596731       3.84609575      -0.00581697       0.00184777       0.00903348
C        1.22103685       6.35050325       3.88870206       0.01241839       0.00138011      -0.01108155
C       -0.00030330       8.53736878       3.74976097      -0.00280932      -0.00466410      -0.00335906
C        7.40470795      -0.01628825       3.70009938       0.00347470       0.00571872       0.00714262
C        6.18463416       2.11801691       3.69390497       0.00521825      -0.00384124      -0.00364741
C        4.99858908       4.25801317       3.81444417      -0.00241803      -0.00292113      -0.01409281
B        3.66150062       6.34164496       4.07400735      -0.00097695      -0.00174229      -0.00236170
C        2.46412068       8.53053234       3.81639270       0.00055896       0.00140172       0.00864627
C        9.86737555      -0.01272434       3.69719897      -0.00211942      -0.01115791      -0.00244709
C        8.63725922       2.12282395       3.61714805       0.00773432      -0.00166885      -0.00101585
C        7.42501041       4.26793194       3.62046442       0.00748241      -0.00149739       0.00666427
C        6.20124753       6.41711322       3.72715027      -0.00073249       0.00777419      -0.00420180
C        4.94226966       8.54963007       3.79200526       0.00016225       0.00241554       0.00998641
C       -0.00316967       1.44146017       3.70219396       0.00013847       0.00645711      -0.00439318
C       -1.25355997       3.53852620       3.61020950      -0.01225222       0.00065164      -0.00840008
C       -2.46761868       5.69823618       3.62130612      -0.01091233      -0.00003810      -0.00223417
C       -3.69693824       7.84797052       3.67304882       0.00625962      -0.00228551       0.00261552
C       -4.92843691       9.99584175       3.72283513       0.00408600      -0.00674097       0.00536093
C        2.45977928       1.47703023       3.80037921       0.00248419      -0.00109072       0.00971417
N        1.15587812       3.58450645       3.83321661      -0.00037620      -0.00207207      -0.00596384
C       -0.02730600       5.67224722       3.76791029       0.00773568       0.00188073      -0.00948151
C       -1.24073828       7.84160857       3.70966878      -0.00511275      -0.00503977      -0.00159961
C       -2.47308598       9.99370103       3.72849916       0.00393660       0.00754511       0.00434162
C        4.93801368       1.43086932       3.75932849      -0.00400751       0.00928189      -0.00217691
C        3.73333177       3.59371779       3.98741650      -0.01281020       0.00517269       0.00176299
C        1.23811406       7.80064330       3.81224134       0.00444835       0.00060289       0.00110549
C       -0.00027901       9.96253367       3.72679440       0.00119778       0.00093976       0.00294869
C        7.41022302       1.40553585       3.65920350       0.00992079       0.00302926      -0.00720216
C        6.21210748       3.53635026       3.67352578       0.00763221      -0.00486340      -0.00088741
C        5.01173635       5.65900105       3.83260250       0.00233016      -0.00034978      -0.00034708
C        3.69641860       7.85052525       3.88525704       0.00000948       0.00213904       0.00733980
C        2.46592555       9.95995125       3.72697503      -0.00180730      -0.00149090       0.01253468
C        9.86698379       1.41049503       3.63823659      -0.00551461      -0.01193200      -0.00251144
C        8.64338156       3.55074012       3.59223883       0.00497731      -0.00206749      -0.00325141
C        7.42699792       5.69828822       3.64443866      -0.00658770       0.00238383      -0.00315471
C        6.18379721       7.84564965       3.74877621      -0.00036943       0.00569812      -0.00184078
C        4.93944710       9.97406605       3.72854826      -0.00058158       0.00058262       0.00941098
Re       2.35552719       4.91439925       4.69705860       0.00084406      -0.01288826      -0.00513380
