49
Lattice="12.336457 0.0 0.0 -6.168228499999997 10.683685154694365 0.0 0.0 0.0 15.0" Properties=species:S:1:pos:R:3:forces:R:3 energy=-442.4866497681042 free_energy=-442.4866497681042 stress="-0.0051168884758518735 -0.0009131869861563226 2.6278538146504263e-06 -0.0009131869861563226 -0.0021806941061733648 1.4212619618493348e-05 2.6278538146504263e-06 1.4212619618493348e-05 -4.1105422733023274e-06" pbc="T T T"
C       -0.00229350      -0.00739396       3.73892710       0.00978308      -0.00032715       0.00657621
C       -1.24669217       2.12229025       3.76251023      -0.00537611       0.00370526       0.00380807
C       -2.48543773       4.26326887       3.61285346       0.00443686       0.00509373       0.00849558
C       -3.70495015       6.40800247       3.52637998      -0.00530519      -0.00262253       0.00296209
C       -4.93000207       8.54945999       3.59579601      -0.00656622       0.00096537      -0.00011977
C        2.46553318      -0.01829919       3.72072103       0.00116760      -0.00395708       0.00721234
C        1.24196809       2.11582483       3.92242607      -0.00528444      -0.00765995      -0.00400771
C       -0.05417117       4.29987167       3.81710820      -0.00187060       0.00068648      -0.01541710
C       -1.26668655       6.41828213       3.59168726      -0.00609151       0.00050571      -0.00194706
C       -2.47152546       8.54480368       3.59603953       0.00820283       0.01057661       0.00481595
C        4.93641722      -0.01570186       3.71493195      -0.00617636       0.00983712       0.00616143
C        3.68795646       2.10189387       3.87693278      -0.00532321      -0.01722566       0.00081033
C        1.20421254       6.37521794       3.93796149       0.01544355      -0.00153843       0.00458228
C        0.00084953       8.52821889       3.71018352       0.01222522      -0.00531584       0.00179566
C        7.40434413      -0.02286278       3.73833286      -0.00907233      -0.00995307      -0.00038761
C        6.16708304       2.12866278       3.74165445       0.00591238       0.00660040      -0.00009128
C        4.95478738       4.32654162       3.80907953      -0.00050939       0.01099943      -0.00896134
N        3.79490128       6.41078413       3.93081679      -0.01207521      -0.00137813      -0.00410807
C        2.47425313       8.50115277       3.81313962       0.00642028       0.00371688       0.00082529
C        9.86330862      -0.02210559       3.74660573       0.00589141       0.00119800       0.00675026
C        8.62851772       2.12230344       3.68782273       0.00003960       0.01164524      -0.00171162
C        7.39784576       4.26870340       3.60985137       0.00505249      -0.00216096       0.00378254
C        6.19164686       6.43505571       3.57256810       0.00547636       0.00308454      -0.00314199
C        4.94329127       8.53381611       3.70718914      -0.01541301      -0.00795132      -0.00206533
C       -0.00167712       1.41979890       3.81746616      -0.00521381       0.00319379      -0.00263519
C       -1.25653802       3.54666406       3.71614691      -0.00340868       0.00241636       0.00366540
C       -2.48391506       5.69039246       3.55720121      -0.00627950      -0.00251704      -0.00391494
C       -3.70123120       7.83343889       3.55314704       0.00096135       0.00704617      -0.00778413
C       -4.93581701       9.96810561       3.68194946       0.00574164       0.00004603       0.00001514
C        2.46257440       1.40367994       3.84868621      -0.00710176      -0.01498405       0.00119893
B        1.31340192       3.63763769       4.10760243       0.00115411      -0.00741870       0.00530110
C       -0.05221841       5.69875653       3.74879681       0.00122010       0.00385415      -0.00241102
C       -1.24281998       7.83587680       3.62134405       0.00824523       0.00177956      -0.00175167
C       -2.46849812       9.96330416       3.67121966       0.00111673       0.00972904       0.00011614
C        4.93260219       1.41154230       3.77843573       0.00379987       0.00303095       0.00918947
B        3.61953625       3.61276761       4.05429593       0.00428649      -0.01371119       0.00151798
C        1.24045162       7.79822780       3.81161384       0.01641289       0.00096741      -0.00696053
C        0.00223249       9.95099044       3.71577879      -0.01295875      -0.00562027       0.00038794
C        7.39651842       1.40890330       3.71703345       0.00277962      -0.00076151      -0.00810230
C        6.16581029       3.55983284       3.70819749       0.00113980       0.00931140      -0.00588037
C        4.98002909       5.73607243       3.72995189      -0.00007233       0.01400517      -0.00678696
C        3.72013919       7.79502570       3.81090276      -0.01135073      -0.00293259       0.01289058
C        2.46861631       9.94011729       3.76225888       0.00112021      -0.00149525      -0.00539350
C        9.86224056       1.40711895       3.72602398      -0.00388326       0.00496123      -0.00138328
C        8.62469102       3.55019848       3.62472006       0.00667334       0.00903987      -0.00432133
C        7.40537029       5.69563937       3.54944046       0.00184082      -0.00868139       0.00728740
C        6.17769727       7.84558575       3.61186069      -0.01078847      -0.00134331      -0.00429599
C        4.93292929       9.95733029       3.72944181       0.00881975      -0.00656200      -0.00314221
Re       2.52011021       5.14375035       4.81968492      -0.00524276      -0.01187847       0.00657419
