49
Lattice="12.336457 0.0 0.0 -6.168228499999997 10.683685154694365 0.0 0.0 0.0 15.0" Properties=species:S:1:pos:R:3:forces:R:3 energy=-436.0636147648012 free_energy=-436.0636147648012 stress="-0.0006174103113006041 -0.0035198755700242973 5.2719176430090065e-06 -0.0035198755700242973 -0.003934995417939475 -4.912369706799393e-06 5.2719176430090065e-06 -4.912369706799393e-06 -9.006978712430715e-08" pbc="T T T"
C        0.00803093      -0.03481110       3.86265284       0.00263247      -0.00518459      -0.00201895
C       -1.24141004       2.10110676       3.99699998       0.00235879       0.00647776       0.00257454
C       -2.44046606       4.26460485       4.04717221      -0.01154102      -0.00834214      -0.00070148
C       -3.65085100       6.40995413       3.94593844       0.00652383      -0.01163996       0.00734882
C       -4.89147607       8.54636849       3.90500461       0.00815846       0.00512672       0.00520464
C        2.47391479      -0.01608633       3.60767370      -0.00054282      -0.00066606      -0.00347600
C        1.16322040       2.04722208       3.48004985       0.00259382      -0.00261495      -0.00098364
C        0.01430597       4.17152091       3.90286183      -0.01094876       0.00764459      -0.00530663
C       -1.19271611       6.38441293       3.72765192       0.00116654      -0.00246601      -0.00808340
C       -2.42567250       8.53630382       3.68838375      -0.00425507       0.00405314       0.00395269
C        4.93974148       0.01621824       3.52732739      -0.00613668      -0.00088728      -0.00147723
C        3.66938813       2.10258763       3.29030602       0.00147655      -0.01438322      -0.00232554
B        1.28883588       6.46436822       3.43304410       0.00939406      -0.00094992       0.00085069
C        0.01820460       8.57405597       3.48928109       0.00064238       0.00343369       0.01102914
C        7.41298985       0.01541958       3.66915139      -0.00165285       0.00574609       0.01257279
C        6.16338408       2.16277082       3.64399306       0.00672267       0.00131321      -0.00049004
C        5.01144399       4.37739373       3.71035935       0.00148934      -0.00163933       0.00862759
N        3.76959325       6.41918794       4.00345434      -0.00998095       0.00877261       0.00667117
C        2.51130580       8.56126292       3.68947857      -0.00182883      -0.00871108      -0.00251231
C        9.87782940      -0.01110291       3.89924817      -0.00362231       0.00094477       0.00079717
C        8.63295946       2.13629002       3.92568251       0.00582091       0.00620595      -0.00911254
C        7.42990289       4.28437570       3.95315725       0.00432596      -0.00347299       0.00243454
C        6.22632187       6.44667733       4.04940759      -0.00243237       0.00325191      -0.00379539
C        4.95926595       8.52535431       3.96596973       0.00344283       0.00138173      -0.00603732
C       -0.01782703       1.38385184       3.80626592       0.00194638      -0.00372129       0.00797100
C       -1.22647670       3.51346301       4.09571385      -0.01284370       0.00535817      -0.01430200
C       -2.42038260       5.68783971       3.92210804       0.00552447      -0.01309752       0.00542188
C       -3.65391298       7.83131422       3.85281713       0.00222580      -0.00534177       0.00676707
C       -4.91260458       9.96079678       3.79455198       0.00499437       0.00229112      -0.00455308
C        2.43692884       1.40537612       3.41376697      -0.00050205      -0.00544449       0.00551604
O        0.98674287       3.42405657       3.14548425       0.00052730       0.00467573      -0.00284788
C        0.02719052       5.60386506       3.66287487       0.00151783       0.00146234      -0.00522237
C       -1.18978930       7.81819839       3.61478135      -0.00227439       0.00352281      -0.00814067
C       -2.44848541       9.96619239       3.59313366      -0.00707932       0.00144190      -0.00849952
C        4.92519634       1.45135985       3.47340857       0.00065569      -0.00461631       0.00914501
P        3.53947752       3.84109684       2.91837435       0.00147952       0.00498740      -0.01677963
C        1.28496485       7.92604577       3.41799954      -0.00374378      -0.00978749       0.01167213
C        0.00922010       9.99608425       3.54792722      -0.00268670       0.00594575       0.01276488
C        7.39609613       1.43995062       3.75346045       0.00635169       0.00900083      -0.00387849
C        6.18946907       3.58961008       3.77588485       0.01093909      -0.00068338      -0.00394115
C        4.97667742       5.77669989       3.97138137      -0.00982625       0.00370142       0.01266547
C        3.72719985       7.78166671       3.90331446       0.00161209       0.00602157      -0.00564821
C        2.48730700       9.97928201       3.76344756      -0.00343144      -0.00698827      -0.00409235
C        9.86678049       1.41063081       3.96330875       0.00354793       0.00689069      -0.00071019
C        8.65222276       3.56161961       3.99651209      -0.00310860      -0.00352857      -0.00550721
C        7.44520871       5.70992392       4.01149497       0.00089244      -0.00419106       0.00083523
C        6.20978360       7.84881467       4.00945196       0.00654417       0.00563635       0.00148282
C        4.94132445       9.94195611       3.92871183      -0.00058614      -0.00125310       0.00134724
Re       1.91703444       4.84339782       4.20429388      -0.00648332       0.00432249      -0.00720932
