49
Lattice="12.336457 0.0 0.0 -6.168228499999997 10.683685154694365 0.0 0.0 0.0 15.0" Properties=species:S:1:pos:R:3:forces:R:3 energy=-434.6747685329075 free_energy=-434.6747685329075 stress="-0.00360306498164159 -8.884356673329646e-06 -1.0653071089146557e-05 -8.884356673329646e-06 -0.011659366424409266 7.709568281096485e-07 -1.0653071089146557e-05 7.709568281096485e-07 1.936818078022523e-06" pbc="T T T"
C        0.01453588      -0.02907618       3.39583507      -0.00256815       0.00304947      -0.00453502
C       -1.20377798       2.14128842       3.61740369       0.00494541      -0.00332276      -0.00007802
C       -2.43151726       4.27034651       3.85500809      -0.00583592      -0.00123056      -0.00086339
C       -3.67136402       6.39652663       3.76751068       0.00083558       0.00082845       0.00653319
C       -4.92523537       8.50859211       3.55013874      -0.00322479      -0.00099962       0.00165266
C        2.48807103      -0.08706457       3.36697635      -0.00815434       0.00638135       0.00247868
C        1.26917667       2.02386661       3.53328496       0.00731401      -0.00446219       0.00154796
C        0.02903500       4.25731632       4.12562117       0.00016750      -0.00161804       0.00040069
C       -1.20650871       6.42352107       3.88114600      -0.00107533       0.00113528      -0.00617346
C       -2.44055101       8.50865851       3.51162917       0.00046872       0.00081478       0.00054594
C        4.95104384      -0.01360368       3.45920661      -0.00338650      -0.00832796       0.00142912
C        3.68453853       1.99208973       3.85239737       0.00257920      -0.00401773       0.01203954
B        1.35696985       6.52653350       4.00054746       0.00862365       0.00823033      -0.00522252
C        0.01282107       8.57447965       3.47282666       0.00696746       0.00271533      -0.00434753
C        7.41003682       0.04954797       3.39205077       0.00118031       0.00084873      -0.00770298
C        6.17864209       2.13686255       3.73857783      -0.00699901       0.00736006      -0.00017663
C        5.01791668       4.28123314       4.23112468      -0.01162717      -0.01168325      -0.00156713
P        3.43452511       6.40058107       4.58248211       0.00401090       0.00308210      -0.00312892
C        2.48646080       8.65790848       3.52739875       0.00157472      -0.00259933       0.00838692
C        9.89915078       0.04467962       3.41306529      -0.00557880      -0.00413696       0.00296277
C        8.65692368       2.16138689       3.60068103      -0.00338338      -0.00443624       0.00836538
C        7.42980649       4.27173483       3.86375766       0.00776431       0.00578429       0.00331542
C        6.20046347       6.42235972       3.94994902       0.00023156      -0.00382726       0.00656385
C        4.95057540       8.56938260       3.68591292      -0.00341221       0.00392745      -0.00696319
C        0.01271794       1.39191329       3.46812194       0.00845807       0.00162409      -0.00620183
C       -1.20623373       3.54298217       3.87776181      -0.00332289      -0.00092848      -0.00698289
C       -2.43169636       5.69622262       3.85627179      -0.00389348      -0.00186635      -0.00065631
C       -3.67967096       7.80538929       3.60344249      -0.00015114      -0.00055047       0.00612732
C       -4.92628473       9.91652685       3.39194103      -0.00554410       0.00115884      -0.01063514
C        2.48592734       1.30874381       3.51786637       0.00450496       0.00238613       0.00756699
B        1.35777001       3.44116662       3.99045248       0.01448642      -0.01097547      -0.00205353
C        0.02848401       5.70878447       4.12903656       0.00274294       0.00460280      -0.00068294
C       -1.20389529       7.82532993       3.62084991       0.00575890       0.00334806      -0.00054731
C       -2.43718045       9.92172767       3.41075754      -0.01035114       0.00119376       0.00104036
C        4.95058755       1.39736598       3.67906190      -0.00514895      -0.00593106      -0.00956954
P        3.43300071       3.56593548       4.57027153      -0.00023598       0.00664419      -0.00235077
C        1.26948220       7.94341605       3.54355157       0.00283859       0.00388681      -0.00232318
C        0.01442006       9.99513462       3.39624117       0.00352708      -0.00042307      -0.00618756
C        7.41141018       1.45789404       3.54699590      -0.00779347       0.00184519       0.00238530
C        6.20002194       3.54403107       3.94615624       0.00409987       0.00958866       0.00350809
C        5.01830116       5.68576469       4.23525629      -0.00509014       0.00162940      -0.00234701
C        3.68497040       7.97485320       3.86302075       0.00166642       0.00622815       0.01230379
C        2.48805327      10.05320930       3.37158546      -0.00244663      -0.00694432       0.00132486
C        9.89592279       1.45796812       3.51030303       0.00029001      -0.00361277      -0.00155776
C        8.66520804       3.57009720       3.76548556      -0.00008013      -0.00411576       0.00592422
C        7.42995766       5.69429843       3.86510340       0.00443278       0.00269409       0.00339548
C        6.17875953       7.82971734       3.74376676      -0.00400655      -0.00266633      -0.00081918
C        4.95104459       9.98011463       3.46323755      -0.00392188       0.00353597      -0.00264201
Re       1.69457660       4.98081076       5.21364844       0.00776267      -0.00584775      -0.00348279
