49
Lattice="12.336457 0.0 0.0 -6.168228499999997 10.683685154694365 0.0 0.0 0.0 15.0" Properties=species:S:1:pos:R:3:forces:R:3 energy=-431.56870906322285 free_energy=-431.56870906322285 stress="-0.0035523059681114915 -0.00012236618853671066 1.9004449613440358e-06 -0.00012236618853671066 -0.0038864363066979466 1.02228591887114e-05 1.9004449613440358e-06 1.02228591887114e-05 -1.7698144065078656e-06" pbc="T T T"
C        0.02143811       0.02446478       3.56924799       0.00231165       0.00044396       0.01665660
C       -1.19807741       2.14510734       3.77536854      -0.00205640       0.00854977       0.00257193
C       -2.44709875       4.28388405       4.01052373       0.00404579       0.00346101      -0.00319724
C       -3.68167040       6.42559640       3.89268441       0.00899207      -0.00435099      -0.00528940
C       -4.92651263       8.54812833       3.63360110      -0.00371383      -0.00826220      -0.00147014
C        2.48351066      -0.00838901       3.66506623      -0.00414348      -0.00033408      -0.00067413
C        1.27804569       2.14659210       3.22054595       0.00463198      -0.00540810       0.00117217
C       -0.02099003       4.29366246       4.00388941      -0.00143801       0.00280944      -0.01097024
C       -1.25257173       6.44492485       4.00809340       0.00483482      -0.00452287      -0.00105602
C       -2.45962331       8.56188949       3.86362002       0.00074056       0.01243500      -0.00010454
C        4.94711611       0.00798887       3.94013674       0.00185857       0.00738228       0.00303813
C        3.67104692       2.07394930       3.99879758      -0.00088237       0.00210874       0.00346238
C        1.20304474       6.46029797       3.79770644       0.00115916      -0.00841690      -0.00396900
C        0.01459919       8.56567344       3.90396535      -0.00399306       0.00159884      -0.00410135
C        7.42107117       0.01597224       3.93663422      -0.00437989       0.00502164      -0.00530193
C        6.18004772       2.14839033       4.10756846      -0.00866657      -0.00632228       0.00705593
C        5.02332639       4.34253203       4.04555886      -0.00275522      -0.00155234       0.00487919
S        3.64890643       6.26754156       2.77138435       0.00358429      -0.01023545       0.00461485
C        2.48345882       8.57553663       3.64500640      -0.00014842       0.00147046      -0.00029939
C        9.89188502       0.01816033       3.74045432       0.00292527      -0.00812668       0.00340751
C        8.66453188       2.14503648       3.98488212       0.00286385      -0.00010840      -0.00598048
C        7.44009428       4.28600676       3.99838980       0.00032073      -0.00323597       0.00811920
C        6.22175465       6.42180793       3.63052513       0.00014533       0.00656198       0.00253741
C        4.94772714       8.55855561       3.48176423      -0.00056633       0.00715588      -0.00182045
C        0.02762963       1.45802929       3.54118840      -0.00173457       0.00533141      -0.00205409
C       -1.21176336       3.55747989       3.96519474      -0.00448329       0.00635659       0.01383921
C       -2.45768138       5.70919006       4.00165947       0.00930272      -0.00332289      -0.00405813
C       -3.68932997       7.84553637       3.79338774       0.00371074      -0.00097416      -0.00133855
C       -4.92072805       9.97403144       3.58828467      -0.00371118      -0.00837869      -0.00480082
C        2.48883206       1.41771473       3.61469138       0.00188532      -0.00175260      -0.00465719
S        1.33509787       3.16203401       1.72985440      -0.00182619       0.01011122      -0.00395382
C       -0.01485608       5.71980925       3.91801474       0.00082001      -0.00910100      -0.00570610
C       -1.22583781       7.85910219       3.94788477      -0.00333141      -0.00103253      -0.00691793
C       -2.45221240       9.97925025       3.82713824       0.00202722       0.01383855      -0.00123402
C        4.94258750       1.43358700       4.03975267      -0.00562197      -0.00116792       0.00634129
S        3.49615790       3.70155808       4.57348380       0.00105356      -0.00949669       0.00198569
C        1.25299587       7.85804976       3.78643728      -0.00316247      -0.00623330      -0.00002503
C        0.01775339       9.98594154       3.93706510      -0.00219117       0.00445164       0.00057500
C        7.41718825       1.44011363       4.02569597      -0.00430826       0.00285953      -0.00107647
C        6.20855620       3.57114815       4.09430917      -0.00636534      -0.00747782      -0.00236850
C        5.04437969       5.64715475       3.57265279       0.00915558       0.00019386      -0.00795336
C        3.69469501       7.90541894       3.36345037       0.00562991       0.00767921       0.00129643
C        2.48724818       9.99532758       3.79112076      -0.00269413       0.00117262      -0.00149707
C        9.89835490       1.43779629       3.84929164       0.00181170      -0.00567936      -0.00789581
C        8.66778085       3.56859134       4.01299770       0.00615186       0.00169352       0.00001129
C        7.43906336       5.70720777       3.85367913       0.00232736       0.00236295       0.01157991
C        6.18314825       7.83849734       3.53028036      -0.00742597       0.00331814       0.00759751
C        4.95077002       9.99187519       3.60227255       0.00507001       0.00038090      -0.00048440
Re       1.74250277       4.66079401       3.36951692      -0.00776054      -0.00325593      -0.00048601
