49
Lattice="12.336457 0.0 0.0 -6.168228499999997 10.683685154694365 0.0 0.0 0.0 15.0" Properties=species:S:1:pos:R:3:forces:R:3 energy=-445.97695492619164 free_energy=-445.97695492619164 stress="-0.0070608631023788265 -3.8569507264684955e-06 -5.058348371815903e-07 -3.8569507264684955e-06 0.000836128440211926 -2.9673210610990787e-06 -5.058348371815903e-07 -2.9673210610990787e-06 -3.444297331155059e-07" pbc="T T T"
C       -0.00288645       0.00367712       3.72317727       0.00403594      -0.00649287       0.00979907
C       -1.24908031       2.12101862       3.73949967      -0.00083944      -0.00325926       0.00250583
C       -2.47976852       4.26788050       3.73241368       0.00343716       0.00360123       0.00042807
C       -3.70102586       6.41708007       3.72254969      -0.00246271       0.00713132      -0.01332268
C       -4.92949365       8.56256527       3.71639090      -0.00458464       0.00605512       0.00020842
C        2.46672770       0.02160270       3.72266255       0.00427899      -0.00421920      -0.00853783
C        1.23039256       2.16278631       3.74264835      -0.00172996      -0.00769284       0.00437675
C       -0.03353075       4.28986258       3.77368972      -0.00321237       0.00058405       0.00721795
C       -1.26325559       6.42892438       3.71088198      -0.00464531      -0.00224384       0.00082211
C       -2.47288498       8.56267985       3.71026812       0.00428734       0.00349242      -0.00059594
C        4.93656060       0.00352735       3.72406871      -0.00430244       0.00230561       0.01211182
C        3.70338905       2.16311890       3.75112127      -0.00021054      -0.00465416      -0.00287636
N        1.14769528       6.39269561       3.76378259      -0.00460332       0.00073735       0.00401405
C       -0.00565180       8.53059423       3.72551777       0.00140085      -0.01006853       0.00025240
C        7.40996192      -0.03446625       3.74160944      -0.00593208       0.00047216      -0.00628266
C        6.18253103       2.12104193       3.75195643       0.00522593      -0.00231088       0.00826092
C        4.96779866       4.29001480       3.79822366      -0.00417039      -0.00247015      -0.00181625
N        3.78649228       6.39243927       3.77889732       0.00778286       0.00660576       0.00157175
C        2.46703585       8.46459629       3.75787911      -0.00006916       0.00055483      -0.00822699
C        9.86044467      -0.03478296       3.73823103       0.00344395       0.00632033       0.00575498
C        8.63495347       2.11565486       3.74211734       0.00232638       0.01279907      -0.00045161
C        7.41344771       4.26824075       3.74673026       0.00102222      -0.00342511      -0.00636117
C        6.19752442       6.42902910       3.73224387       0.00405199      -0.00285550       0.00267798
C        4.93975234       8.53019457       3.73514355      -0.00277767      -0.00469738      -0.00337152
C       -0.00922361       1.42454318       3.73329834      -0.00126528      -0.00770057       0.00176467
C       -1.25527022       3.55183172       3.73871617      -0.00097960      -0.00304905      -0.00529744
C       -2.48243421       5.69793036       3.72151925      -0.00396467       0.00112481      -0.00498235
C       -3.70111852       7.84549396       3.71329784      -0.00120290       0.01222949       0.00216044
C       -4.93195476       9.98868874       3.71835532       0.00483950       0.00149963      -0.00157199
C        2.46689905       1.45143708       3.74088621       0.00165777      -0.00881492      -0.01149974
C        1.21437002       3.59418479       3.80304682      -0.00155537       0.00345903      -0.00379307
C       -0.06026020       5.71210669       3.75232505      -0.00289614       0.00194787       0.00732398
C       -1.24812242       7.84697486       3.71351421       0.00117527      -0.00461196      -0.00253438
C       -2.47095531       9.98876139       3.71598831       0.00147224       0.00004176       0.00347600
C        4.94277740       1.42437539       3.74215159       0.00199482       0.00034354      -0.00056671
C        3.71945421       3.59479094       3.81460964      -0.00736398       0.00063697       0.01293442
C        1.21611093       7.78754135       3.74798619       0.00347700      -0.00488524      -0.00406636
C        0.00259774       9.95551302       3.72771670      -0.00854946      -0.00785646       0.01326785
C        7.40881432       1.39745390       3.74460799       0.00679300       0.00445262       0.00235069
C        6.18927199       3.55187849       3.75986979      -0.00124092      -0.00228441      -0.00891351
C        4.99452400       5.71224064       3.77742238       0.00256895       0.00085871       0.00556663
C        3.71792305       7.78709895       3.75646832      -0.00315487       0.00096764      -0.00387356
C        2.46697862       9.91675395       3.74739547      -0.00035260       0.00301981      -0.00628056
C        9.86111381       1.39722737       3.73819314      -0.00308671       0.00866076       0.00309581
C        8.63495528       3.54746971       3.73981678       0.00398538       0.00802046      -0.00420459
C        7.41662309       5.69828408       3.73576223       0.00229728      -0.00496762      -0.01153135
C        6.18232100       7.84686217       3.72703374      -0.00211313      -0.00368212      -0.00261135
C        4.93143655       9.95515931       3.72907780       0.00293651      -0.00497221       0.01165779
Re       2.46343186       5.03397124       4.33395604       0.00277431       0.00929189      -0.00003039
