49
Lattice="12.336457 0.0 0.0 -6.168228499999997 10.683685154694365 0.0 0.0 0.0 15.0" Properties=species:S:1:pos:R:3:forces:R:3 energy=-445.8260391132005 free_energy=-445.8260391132005 stress="-0.007722920108129584 -1.255543103132857e-06 4.148630527050939e-06 -1.255543103132857e-06 0.001529444841026523 -2.4217510815199877e-06 4.148630527050939e-06 -2.4217510815199877e-06 6.564795444731155e-07" pbc="T T T"
C       -0.00332202       0.00695759       3.73274706       0.00315889      -0.00468075      -0.00631269
C       -1.25568297       2.11803397       3.71048320       0.00202642       0.00476425       0.01286146
C       -2.49218560       4.26703848       3.68229141      -0.00401272      -0.00443116      -0.00918599
C       -3.70896434       6.41948663       3.68677958      -0.00047438       0.00574011      -0.00089796
C       -4.93270185       8.56903723       3.71558362       0.00379197      -0.00596647       0.00171692
C        2.46977252       0.03947515       3.73605467      -0.00987431       0.00471134       0.00426387
C        1.23036635       2.17197797       3.78154685      -0.00481658       0.00468398      -0.00565849
C       -0.06038978       4.27350428       3.77015979       0.01142458       0.00092874      -0.01221840
C       -1.27489811       6.42331492       3.69932282       0.00340626      -0.00692054       0.00261055
C       -2.47941980       8.56879924       3.70307461       0.00033646       0.00476755       0.00509182
C        4.93105885       0.01222670       3.73442921       0.00293440      -0.00393815      -0.00699536
C        3.71703850       2.18751828       3.77382171       0.00337957      -0.00158328       0.00444728
C        1.19660243       6.37964624       3.86591331       0.00185909       0.00162944       0.00384310
C       -0.00932128       8.53830740       3.73882326      -0.00189349       0.01017470       0.00534185
C        7.40605003      -0.03216657       3.72924367       0.00824461       0.00997080      -0.00304757
C        6.17897049       2.11869114       3.73456177      -0.00503643       0.00477824      -0.00768423
C        4.98761502       4.26967101       3.79960490       0.00067404       0.00004557      -0.00420725
N        3.77628446       6.38059163       3.80526609      -0.00341053      -0.00674807       0.00206458
C        2.47594423       8.48776977       3.76971921      -0.00853741      -0.01060556      -0.00133400
C        9.86196328      -0.03105876       3.72214828      -0.00039031      -0.00570894       0.00676923
C        8.63104729       2.11603950       3.69616196      -0.00171151      -0.00776969       0.00101630
C        7.40808593       4.26904366       3.70504298      -0.00016929       0.00043420      -0.00231129
C        6.18772136       6.42402022       3.73645532      -0.00114975       0.00065936      -0.01263376
C        4.93928468       8.52801286       3.74717006       0.00342432       0.00220436      -0.00317420
C       -0.00954268       1.42767340       3.73961558      -0.00101142      -0.00300894      -0.00052278
C       -1.27517702       3.54311105       3.69913420       0.00642909       0.00716306       0.00767803
C       -2.49214689       5.69980515       3.68260044      -0.00385944      -0.00093997      -0.00727858
C       -3.70557350       7.85069698       3.69616223       0.00360960       0.00156156       0.00841969
C       -4.92988598       9.99858042       3.72774885      -0.00156156      -0.00919484       0.00461431
C        2.47578494       1.47888700       3.76948864      -0.00593333       0.00688690       0.00358225
C        1.19615764       3.58666493       3.86611569       0.00462204      -0.00191573       0.01113501
C       -0.05995049       5.69306720       3.76859915       0.00526759      -0.00586551       0.00216547
C       -1.25552253       7.84815148       3.71127343       0.00053986       0.00093506       0.00804372
C       -2.47412825       9.99749557       3.72288400      -0.00604940       0.00591936       0.00597861
C        4.93928971       1.43868885       3.74807312       0.00190344      -0.00513412      -0.00168786
N        3.77574741       3.58627285       3.80527565       0.00884158      -0.00158879      -0.00076098
C        1.23084879       7.79422961       3.78043454      -0.01117063      -0.00213554      -0.00037654
C       -0.00363410       9.95911710       3.73330917       0.01070524       0.01159072      -0.00198518
C        7.40402039       1.39742833       3.71522209      -0.00512537       0.00659308       0.00847533
C        6.18752714       3.54239425       3.73672883       0.00005776       0.00144951      -0.01729699
C        4.98775042       5.69702013       3.79930347      -0.00031082      -0.00303431      -0.00396786
C        3.71728693       7.77927270       3.77283371      -0.00071729      -0.00411730       0.00978462
C        2.46927592       9.92709155       3.73706941      -0.00057037      -0.00597022       0.00074006
C        9.85688145       1.39758882       3.70228348       0.00264386      -0.00360906       0.00667657
C        8.62755431       3.54721351       3.68563878      -0.00326946      -0.00897484       0.00371903
C        7.40818278       5.69725044       3.70585731      -0.00001611       0.00474526      -0.00812923
C        6.17874343       7.84763630       3.73487348       0.00254171       0.00142206      -0.01144987
C        4.93100025       9.95436523       3.73254423       0.00268370       0.00161528       0.00073456
Re       2.51598358       4.98290775       4.40524473      -0.01343417       0.00846723      -0.00265713
