49
Lattice="12.336457 0.0 0.0 -6.168228499999997 10.683685154694365 0.0 0.0 0.0 15.0" Properties=species:S:1:pos:R:3:forces:R:3 energy=-445.7491281717562 free_energy=-445.7491281717562 stress="-0.00680909957480158 -0.0008110514578592641 -1.5334508295779302e-06 -0.0008110514578592641 0.0022703743755734603 -8.762452780310492e-07 -1.5334508295779302e-06 -8.762452780310492e-07 -8.226303287269955e-07" pbc="T T T"
C       -0.00066738       0.01211791       3.75666317       0.00314503      -0.00383334       0.00995129
C       -1.25016188       2.11697073       3.74010598      -0.00716631      -0.01054010      -0.00089872
C       -2.48298406       4.26400042       3.70962594      -0.00631946       0.00307299      -0.00908772
C       -3.69940230       6.41924202       3.71094072       0.00408106       0.00748825      -0.00634323
C       -4.92764785       8.56953752       3.73617670       0.01124251       0.00056630       0.00306216
C        2.46242417       0.04109069       3.74212149      -0.00947555      -0.00610077      -0.00791726
C        1.21346084       2.19122172       3.79428870       0.00817822       0.00419242       0.00073057
C       -0.05544142       4.25118406       3.76046709      -0.00102630       0.00271678       0.01036476
C       -1.26123408       6.41422874       3.69527582       0.00616045       0.00282024      -0.00057066
C       -2.47426854       8.56877936       3.70363612       0.00223690      -0.00585752       0.00715060
C        4.93420037       0.00853320       3.70359244      -0.00773999      -0.00264824       0.01245971
C        3.69833652       2.17557625       3.73382435       0.00165632       0.00419925      -0.00889479
C        1.20878992       6.36993432       3.76005797       0.01183086      -0.00367209      -0.00174502
C       -0.00580917       8.53688389       3.70235785       0.00083950      -0.00783039      -0.00243254
C        7.40870068      -0.03158085       3.71571022       0.00786592       0.01276028       0.00339217
C        6.18215410       2.12253648       3.71167081       0.00045878       0.00526882       0.00303425
C        4.97295878       4.29036655       3.76929441      -0.01064559       0.00298848      -0.00218590
N        3.77811136       6.37522236       3.86158336      -0.00932838      -0.00773290       0.00139440
C        2.47956842       8.48563471       3.76186051      -0.00660696      -0.00383730      -0.00430681
C        9.86464444      -0.03281993       3.74656682       0.00193160       0.01025452      -0.00181080
C        8.63386038       2.11547763       3.71570121      -0.00604068       0.00086079       0.00632315
C        7.41425931       4.27095438       3.71739023       0.00382281      -0.01002194      -0.01380437
C        6.19645022       6.43266989       3.73714897       0.00445513      -0.00173266      -0.00397858
C        4.94269773       8.52707092       3.77090609      -0.00052081       0.00514557       0.00788339
C       -0.00873049       1.43964631       3.76340800       0.00362570      -0.00896094       0.00771466
C       -1.26239031       3.53390891       3.71778193      -0.00573569      -0.00282107      -0.00614818
C       -2.48078659       5.69533711       3.70313061       0.00158887       0.00969743      -0.00851611
C       -3.70014908       7.85082714       3.71404529       0.00932892      -0.00086632       0.00507069
C       -4.93062455       9.99934246       3.74827926       0.00102480      -0.01047458      -0.00324570
C        2.45448378       1.48109632       3.76378249       0.00532652      -0.00344758      -0.00751713
N        1.15596091       3.59190085       3.85003260      -0.00232518      -0.00116322      -0.00457703
C       -0.03893531       5.67572206       3.74390842       0.01044741       0.00572323       0.00786540
C       -1.24833910       7.84352036       3.69730610       0.00249573      -0.00155316       0.00287783
C       -2.47463421       9.99776659       3.71397223      -0.01173465      -0.00745892       0.00088989
C        4.93961763       1.42958721       3.71186354       0.00088275       0.00548538       0.00128115
C        3.72519164       3.59662554       3.77455262      -0.01656895       0.00532366       0.00689205
C        1.23570952       7.79124680       3.72383283      -0.00107201      -0.00839608      -0.00396748
C       -0.00020917       9.95799118       3.70194803       0.00433470      -0.00173172       0.01234789
C        7.40809044       1.39732661       3.71196620      -0.00024194       0.00949359      -0.00324260
C        6.19506380       3.55175955       3.71695721      -0.00460421       0.00184032       0.00127765
C        4.98967579       5.71517897       3.78374719      -0.00262774       0.00074892       0.01040417
C        3.72053965       7.77560570       3.80078466      -0.00959486      -0.01074382      -0.00356063
C        2.47172731       9.92540408       3.74127038       0.00757126       0.00587139      -0.00604986
C        9.86163183       1.39680575       3.73127947      -0.01242970       0.00625707       0.00369808
C        8.63295078       3.54709291       3.71187488       0.00057467      -0.00768191      -0.00626653
C        7.41666438       5.70241935       3.72305123       0.00496535      -0.00636296      -0.01783308
C        6.18416950       7.84963505       3.75200496       0.00564128       0.00782864      -0.00411970
C        4.93465910       9.95432211       3.75749215      -0.00165642       0.01049081       0.01189622
Re       2.46305552       4.98364724       4.43948030       0.00774830       0.00437439       0.00105830
