50
Lattice="12.336457 0.0 0.0 -6.168228499999997 10.683685154694365 0.0 0.0 0.0 15.0" Properties=species:S:1:pos:R:3:forces:R:3 energy=-448.9698250835932 free_energy=-448.9698250835932 stress="0.00017071621230612256 -0.0008885314338892476 -7.500928524824574e-06 -0.0008885314338892476 -0.0026039047208730416 1.0826285837118312e-05 -7.500928524824574e-06 1.0826285837118312e-05 -5.103491527348006e-06" pbc="T T T"
C        0.00555720      -0.00705101       3.96381743      -0.00759005      -0.00777722       0.00273553
C       -1.22568435       2.13980745       3.94893184      -0.00197101       0.00276710      -0.00063912
C       -2.46953344       4.26780722       3.77000822      -0.00061077       0.00460245       0.00511116
C       -3.71233783       6.40275467       3.73211656       0.00652067       0.00435549       0.00458868
C       -4.93922221       8.52835330       3.83003300      -0.00428417       0.00971356       0.00236322
C        2.47151575      -0.02601974       3.91050592       0.00947828      -0.01052355       0.01084097
C        1.24295696       2.12690609       3.89733057       0.00087081      -0.00445305      -0.00518295
C        0.00004132       4.24555325       3.69543515      -0.00695557       0.00318194       0.00001611
C       -1.24523668       6.39733049       3.59913685       0.00665432      -0.00004273      -0.00534040
C       -2.45313087       8.52140073       3.82683601       0.00099420      -0.00885547       0.00796864
C        4.94045685      -0.01749301       3.94160085       0.00080517       0.00931280       0.00026314
C        3.69863018       2.11358807       3.85438080       0.00413234       0.00147387       0.00424879
C        2.47593594       4.26067387       3.70560277      -0.00073940       0.00214927       0.00104742
O        0.77741956       6.02574202       2.33162622       0.00003437      -0.00069212      -0.00185712
C        0.02278290       8.51801831       3.93808369       0.00026605       0.00423050      -0.00734080
C        7.39432970       0.02076748       4.05911880      -0.00107107      -0.00225027       0.00588712
C        6.15899917       2.13859106       3.89907037       0.00048468      -0.00411054      -0.00077001
C        4.92128007       4.25407752       3.59679894       0.00382790       0.00208428      -0.00626893
S        4.10262618       6.18434201       1.75418443      -0.00563037       0.00674689       0.00437571
C        2.47757674       8.61474565       4.02328419       0.00274725       0.00344029      -0.00758969
C        9.88552276       0.02591924       4.07330070      -0.00033534      -0.00495257       0.00527816
C        8.63384205       2.14693742       3.95920459      -0.00567807      -0.00351846       0.00458485
C        7.39331990       4.26885404       3.75247912      -0.00048792      -0.00245094       0.00593882
C        6.14415487       6.40485765       3.60836097       0.00211231       0.00823724       0.00243602
C        4.93309829       8.53407040       3.92835625       0.00582795      -0.00198974      -0.00613631
C        0.00932089       1.42377026       3.95104712      -0.00327686      -0.00589930      -0.00049563
C       -1.23465526       3.55769263       3.82531511      -0.00372424       0.00209988      -0.01004557
C       -2.47107193       5.68975227       3.69011022       0.01007937       0.00335480       0.00339279
C       -3.70029096       7.81950760       3.78388078      -0.00654772       0.00532218      -0.00456384
C       -4.93306796       9.95225238       3.90795061      -0.00160922       0.00344832       0.00041289
C        2.47038370       1.40352169       3.90172600       0.00675548      -0.00742045       0.00571176
C        1.25353552       3.56790865       3.77911280      -0.00408306       0.00345055      -0.00758014
C       -0.06224189       5.61364980       3.26094557      -0.01307083      -0.00348232      -0.00914540
C       -1.21900765       7.80497517       3.77491462       0.00328964      -0.00239335      -0.00173072
C       -2.45980647       9.94788566       3.89812839       0.01024341      -0.00847154       0.00170471
C        4.93196689       1.41314202       3.90745873       0.00201784       0.00673417      -0.00607516
C        3.68859362       3.55354968       3.71340497       0.00728546       0.00036497      -0.00281447
C        1.27555179       7.88312513       3.98816278      -0.00347370      -0.00215810       0.00284801
C        0.00532061       9.96291817       3.99510552      -0.00315516       0.00910874      -0.00754402
C        7.39272320       1.44159202       3.98804964      -0.00423646      -0.00626175       0.00909678
C        6.15669820       3.55995793       3.76508120       0.00018928      -0.00572178      -0.00527513
C        4.91987987       5.66513842       3.27314201      -0.00695467       0.00968660      -0.01248737
C        3.68909721       7.86780974       3.96830851       0.00083948       0.00545951       0.01377685
C        2.47369942      10.03534708       4.12040106      -0.00022872      -0.00105633       0.00554035
C        9.87748944       1.44334702       4.01352197      -0.00250783      -0.00086113      -0.00507906
C        8.63086303       3.56285692       3.83705748      -0.00135176      -0.00198542      -0.00385980
C        7.37857801       5.69464304       3.69585507       0.00187744       0.00301972       0.00178898
C        6.15788865       7.81429679       3.76878727       0.00465787       0.00339478       0.00717851
C        4.94267321       9.97634121       4.00659106      -0.00427283      -0.01193434      -0.00279734
Re       2.50925702       6.42919046       3.29699651       0.00185524      -0.00847741       0.00148301
