49
Lattice="12.336457 0.0 0.0 -6.168228499999997 10.683685154694365 0.0 0.0 0.0 15.0" Properties=species:S:1:pos:R:3:forces:R:3 energy=-436.0335870771693 free_energy=-436.0335870771693 stress="-0.004379128213730544 0.0006786266886196683 -3.6197295914932317e-07 0.0006786266886196683 0.006247446428554069 1.0798803606445605e-06 -3.6197295914932317e-07 1.0798803606445605e-06 1.2135791962216309e-06" pbc="T T T"
C        0.00019135       0.01291206       3.74939651      -0.00270532       0.00045214       0.00701432
C       -1.24782659       2.12319766       3.73928551       0.00201559       0.00728366      -0.00059655
C       -2.47503523       4.27474309       3.72836863      -0.00134659       0.00565081      -0.00982468
C       -3.70605358       6.41838962       3.73710600      -0.00648837       0.01404437      -0.00766562
C       -4.93767206       8.56771679       3.75145616       0.00279996      -0.00736883      -0.01346006
C        2.46448364       0.05961034       3.75014030       0.00335825      -0.00174183      -0.00267268
C        1.20815617       2.15784010       3.75300749       0.00510949       0.00368333       0.00009691
C       -0.09498024       4.30546046       3.73360621       0.00480056      -0.00319773       0.01061917
C       -1.26724043       6.42790252       3.72717242      -0.00821929      -0.00965738       0.00870461
C       -2.47980521       8.57170790       3.73740407      -0.00198351      -0.00278329       0.00774149
C        4.93289978       0.00717210       3.74546039       0.00301979      -0.00446972       0.00717226
C        3.72990172       2.14672491       3.76410618       0.00226846      -0.00074617       0.01387929
N        1.14776129       6.37137751       3.78577555       0.01822682       0.00124640      -0.00217654
C       -0.00152597       8.51473223       3.74445124      -0.01224447       0.01224687       0.00630227
C        7.41117640      -0.04421216       3.74789955       0.00880330      -0.00253054       0.00516344
C        6.18938408       2.11673538       3.75394242       0.00155278       0.00297750      -0.00684278
C        5.03895856       4.28605998       3.76591606      -0.01178285       0.00213868       0.01503495
O        3.74407760       6.34193186       3.77842676      -0.00917478       0.00280343       0.00515656
C        2.47239745       8.45065993       3.76146663       0.00201737      -0.00549053       0.01262104
C        9.86174201      -0.04300378       3.75131638      -0.01116771       0.00381196      -0.00472403
C        8.63806960       2.11558773       3.74409847       0.00385794      -0.00602100      -0.00369240
C        7.41380590       4.27269266       3.74326007       0.01323656      -0.00187885       0.00130740
C        6.18794922       6.42354677       3.75542948       0.00323176      -0.00890532      -0.00720269
C        4.92494692       8.51486962       3.75894874      -0.00545984      -0.00180032       0.00154339
C        0.00964887       1.45647612       3.74523958       0.00634387       0.00524729       0.00794038
C       -1.24709396       3.55005314       3.73081338       0.00257482       0.00738074       0.00019914
C       -2.47779772       5.69692398       3.72509796      -0.01749248       0.00882490       0.00160090
C       -3.70632806       7.85174599       3.74280893       0.00203041       0.00168502      -0.00982638
C       -4.92837789      10.01025575       3.75166883       0.00068017      -0.00776529      -0.00676456
C        2.46588038       1.51824651       3.75687150       0.00401161       0.00678878       0.00019705
O        1.17139628       3.63573089       3.75905244       0.00395058      -0.00924977       0.00906573
C       -0.06448085       5.70704094       3.74049901       0.00731184      -0.00292467       0.00899959
C       -1.25661784       7.84760032       3.73436875      -0.01033143      -0.00603807      -0.00557326
C       -2.47919311      10.00935412       3.74367163       0.00251833      -0.00416550       0.00257138
C        4.92932561       1.44727181       3.75490539       0.00050709       0.00142507      -0.00282286
O        3.77614053       3.60455088       3.79546495      -0.01581028      -0.00953679      -0.00326716
C        1.20360045       7.75861660       3.76217082      -0.00330446       0.01154331       0.00656258
C       -0.00064761       9.94971525       3.74570313       0.00377276       0.01217677      -0.00766956
C        7.40610492       1.39502587       3.74817439       0.00213061      -0.00461293       0.00155922
C        6.19880357       3.53848039       3.75514544      -0.00306252       0.00761999      -0.00747277
C        5.02866246       5.67297361       3.76506493      -0.00592396      -0.00148248      -0.00957569
C        3.71567562       7.81562310       3.76790993       0.00108347      -0.01003599      -0.00807079
C        2.46931265       9.90325333       3.75173936       0.00074028      -0.00458102       0.00657215
C        9.87053723       1.40057111       3.74564566       0.00360182       0.00233240      -0.01193352
C        8.63947750       3.55038835       3.73751730       0.01191461      -0.00578084      -0.00082967
C        7.40887653       5.69344810       3.74477185       0.00834532       0.00212780      -0.01047770
C        6.18141882       7.84666655       3.75384100      -0.00163716      -0.00262042       0.01191926
C        4.93299442       9.95537949       3.75331742      -0.01285961       0.00929450      -0.00251589
Re       2.47431213       4.96880161       3.93581478       0.00517843      -0.00740045      -0.01388662
