49
Lattice="12.336457 0.0 0.0 -6.168228499999997 10.683685154694365 0.0 0.0 0.0 15.0" Properties=species:S:1:pos:R:3:forces:R:3 energy=-437.2752957880741 free_energy=-437.2752957880741 stress="-0.0049946864197251886 3.915033390450559e-06 -1.5226353974321283e-05 3.915033390450559e-06 -0.0026895576062461015 7.814817786575229e-06 -1.5226353974321283e-05 7.814817786575229e-06 1.593758282316524e-06" pbc="T T T"
C        0.00295698       0.00298831       3.53376281      -0.00305223      -0.00286392      -0.00413862
C       -1.23483576       2.12381668       3.44052256      -0.01069525       0.00677177       0.00952254
C       -2.45873891       4.27048251       3.40486580      -0.01009333       0.00349370       0.00332518
C       -3.68715193       6.41099758       3.48167295      -0.00021668      -0.00080316       0.00427851
C       -4.93115328       8.54892578       3.57662581      -0.00125990      -0.00192406      -0.00492432
C        2.46253704       0.00616118       3.56908794       0.01023964       0.00214440      -0.01067479
C        1.21309099       2.16017261       3.72129142       0.01281207       0.00547187      -0.00490160
C       -0.02649149       4.25774130       3.66649998      -0.00543046      -0.00265478      -0.00665214
C       -1.23493590       6.41954015       3.43729702      -0.01255489      -0.00845187       0.00777915
C       -2.46731371       8.55395091       3.43538019      -0.00293022       0.00791070       0.00356378
C        4.93926332      -0.00509511       3.59089363       0.00130088       0.00738409      -0.00359656
C        3.69841673       2.03601143       4.08502283      -0.00077370      -0.00532436       0.00388585
N        1.13273444       6.42987284       3.87134269       0.00718425      -0.00570319      -0.01130955
C       -0.00409437       8.53855036       3.52784857      -0.00538322      -0.00028995      -0.00198038
C        7.40365774      -0.00937062       3.53875988       0.00838085       0.00079568      -0.01208379
C        6.19212572       2.12304457       3.80591090      -0.00793208      -0.01319016       0.00478772
C        5.16133997       4.28058882       4.50414263       0.01605670       0.00089309      -0.00151527
P        3.65788596       6.45703187       5.04400318      -0.00316220       0.00412557      -0.00114024
C        2.45927927       8.54081368       3.77760360       0.00665828       0.00400575       0.00344560
C        9.86818321      -0.01304928       3.51951034       0.00549794      -0.00637831      -0.01073454
C        8.63883458       2.12827239       3.47890327       0.00137809       0.00316718       0.00600093
C        7.44233898       4.26829993       3.69570754       0.00215218       0.00291156       0.00335839
C        6.25342554       6.42801666       3.98476508      -0.00264420       0.00866727       0.01203363
C        4.95098686       8.56320872       3.82462286      -0.00358336      -0.00436535       0.00993556
C       -0.00436854       1.42753228       3.52678418      -0.00210121       0.00512140       0.00707509
C       -1.23536030       3.54661095       3.44055690      -0.01252762       0.00728947      -0.00051440
C       -2.45854612       5.69565399       3.40278326      -0.00964413      -0.00595360       0.01050260
C       -3.69728253       7.83776331       3.47781588       0.00126377      -0.00143706       0.00312538
C       -4.93243916       9.97573898       3.53785038       0.00596479      -0.00210100      -0.01518916
C        2.45877572       1.42530743       3.77886197       0.00833906      -0.00133658      -0.00115370
N        1.13223326       3.53652564       3.87278025       0.01029426       0.00648341      -0.00320091
C       -0.02615746       5.70878697       3.66418547      -0.00660241      -0.00328731      -0.00078778
C       -1.23455859       7.84230142       3.44044898      -0.01083143      -0.00420766      -0.00150164
C       -2.46823247       9.97938483       3.51762588       0.00764152       0.00876475       0.00208220
C        4.95101692       1.40310007       3.82831162      -0.00936388      -0.00148267      -0.00245737
P        3.65629879       3.51137967       5.04028632       0.00031468      -0.00850836       0.00225767
C        1.21395721       7.80578602       3.71834729       0.00495568       0.00120133       0.00736110
C        0.00270572       9.96312964       3.53599986       0.00094125       0.00576774      -0.00717890
C        7.40470993       1.41754493       3.57689583       0.00278854      -0.00243782       0.00951228
C        6.25285989       3.53854528       3.98619131       0.00275864      -0.00992404       0.00711358
C        5.16261089       5.68705700       4.50572574       0.00557443       0.00082026      -0.00724281
C        3.69883420       7.93121849       4.08592126       0.00204671       0.00035393      -0.00682569
C        2.46239501       9.96030478       3.56998947       0.01045638      -0.00134978      -0.01363516
C        9.86889701       1.41212135       3.43723844      -0.00294357      -0.00193339      -0.00275441
C        8.64906286       3.55488208       3.48340335       0.00088792       0.00363150       0.00167029
C        7.44277609       5.69746780       3.69521471      -0.00435719       0.00676805      -0.00057745
C        6.19225941       7.84340193       3.80236210      -0.00558805       0.00715581       0.01655803
C        4.93950198       9.97146605       3.58875973      -0.00306067      -0.01104820      -0.00131189
Re       2.01310158       4.98456496       4.92433595       0.00084339      -0.00414370      -0.00119199
