49
Lattice="12.336457 0.0 0.0 -6.168228499999997 10.683685154694365 0.0 0.0 0.0 15.0" Properties=species:S:1:pos:R:3:forces:R:3 energy=-432.7845743272642 free_energy=-432.7845743272642 stress="0.001808186343479436 -0.0015857131957683953 2.5177656637780543e-06 -0.0015857131957683953 0.0012228943973275688 -1.0256796889880318e-05 2.5177656637780543e-06 -1.0256796889880318e-05 -4.850624022858152e-06" pbc="T T T"
C       -0.00928409       0.00611443       3.80156520       0.00590060       0.00123910      -0.00024327
C       -1.25562768       2.14502157       3.66413555       0.00094909       0.00453532      -0.00037813
C       -2.51071377       4.27963743       3.90545006      -0.01200845       0.00342438       0.00249890
C       -3.70839804       6.41328257       4.09781869      -0.00187444      -0.00169929       0.00409504
C       -4.93696760       8.56608777       4.05981900       0.00274463       0.00007542      -0.00404084
C        2.46343599      -0.02573522       3.68156736       0.00168951       0.00851803      -0.00055501
C        1.22219410       2.03198727       3.26809373       0.00359638       0.00190151      -0.00233671
C       -0.10918379       4.34295919       3.52490394      -0.00226825      -0.00122970       0.00136388
C       -1.25094777       6.42423099       3.92217913      -0.00449472      -0.00043285       0.00181143
C       -2.47143582       8.54306298       3.94416714       0.00540852       0.00210401      -0.00120436
C        4.92921493      -0.02037773       3.67931153      -0.00570212      -0.00874311       0.00582887
C        3.69994595       2.01751488       3.02323076       0.00121407      -0.00643358      -0.00611313
N        1.19318166       6.37883254       3.57369372       0.00708483       0.00131999      -0.00336169
C        0.00597935       8.51048895       3.81912595       0.00409618       0.00173376       0.00241409
C        7.38762878      -0.01227422       3.77652750      -0.00060081       0.00124363       0.00226757
C        6.12029793       2.15043725       3.70574400      -0.00548318      -0.00717047       0.00792696
C        4.86876589       4.35619202       4.00455806       0.00249017      -0.01114616       0.00734030
O        3.75809788       6.50119163       4.34844823       0.00897444       0.01281192       0.00429419
C        2.46488100       8.49551670       3.86653745      -0.00388621      -0.00141926       0.00157663
C        9.84600961      -0.00455090       3.83301008      -0.00056630      -0.00178746       0.00522655
C        8.59733848       2.14334912       3.82687685       0.00382474       0.00493148       0.00942952
C        7.34669543       4.28067069       4.01718052       0.00469660      -0.00030192       0.00206011
C        6.18971029       6.45810467       4.23476928      -0.00104606      -0.00062068      -0.00394304
C        4.93464196       8.57327842       4.06099821      -0.00450430       0.00623428       0.00034748
C       -0.01630677       1.42383548       3.58383337       0.00283457       0.00146946      -0.00896388
C       -1.27837646       3.57288603       3.70700430      -0.01158181       0.00705392       0.00173424
C       -2.47903480       5.69981723       3.99517238      -0.00801717      -0.00089211      -0.00752735
C       -3.70370923       7.83891991       4.06040427       0.00636696      -0.00000948      -0.00289400
C       -4.94081302       9.98024557       3.86671710       0.00551873       0.00353387      -0.00169585
C        2.45855848       1.35695380       3.30666546       0.00275378       0.00164801      -0.00536696
S        1.24978856       3.66678975       2.75190977       0.00318865      -0.01070225      -0.01141870
C       -0.01479083       5.74164535       3.69502999       0.00477493      -0.00047720       0.00517959
C       -1.23749971       7.83184338       3.91511135       0.00408994      -0.00003932      -0.00150441
C       -2.46955462       9.95532811       3.77346650      -0.00445280       0.00228019       0.00211871
C        4.91727757       1.40565686       3.47863370      -0.00756245      -0.01339532       0.00313310
S        3.75206392       3.29574811       1.80614567       0.00437614       0.00401602       0.00314684
C        1.22602853       7.74430956       3.75613136       0.00053143       0.00352364      -0.00519107
C       -0.00049588       9.94325225       3.77458673      -0.00067661      -0.00140508      -0.00729676
C        7.36049243       1.43033249       3.78007042       0.00114415       0.00471079       0.00867826
C        6.08101355       3.58005252       3.91057193       0.00632303      -0.00304641      -0.00238039
C        4.97423796       5.77930775       4.14141228      -0.00273867      -0.00481957       0.00321818
C        3.71516004       7.88397382       4.03503683      -0.00238122       0.00401845      -0.00140278
C        2.45087874       9.94334336       3.83092463      -0.00237678      -0.00376739      -0.00085032
C        9.84704827       1.43367651       3.77751811       0.00294546       0.00087329       0.00698358
C        8.58546516       3.56769425       3.92207068      -0.00203598       0.00297757      -0.00356673
C        7.39231634       5.69858772       4.14072917      -0.00033673      -0.00255877       0.00094227
C        6.17664499       7.87729397       4.16342186      -0.00381389       0.00217694      -0.00659287
C        4.92045403       9.98962690       3.90870364       0.00244782       0.00264606      -0.00874717
Re       3.13508541       4.98240544       3.23373613      -0.01155641      -0.00890368       0.00395914
