49
Lattice="12.336457 0.0 0.0 -6.168228499999997 10.683685154694365 0.0 0.0 0.0 15.0" Properties=species:S:1:pos:R:3:forces:R:3 energy=-436.39875579116944 free_energy=-436.39875579116944 stress="-0.0004723698955705419 0.004741670767559213 1.9389087734013888e-05 0.004741670767559213 0.004152114228834839 3.717459626111258e-06 1.9389087734013888e-05 3.717459626111258e-06 -5.5770584740411635e-06" pbc="T T T"
C        0.03251419       0.04286414       3.68671630       0.01068047       0.00855818      -0.00729966
C       -1.18791908       2.15985478       3.85709437      -0.00552747       0.00774560       0.00260195
C       -2.46638061       4.28779608       4.02317759       0.00260280      -0.00748118       0.01336504
C       -3.72232030       6.42211623       3.94571760       0.00753742      -0.01003845       0.00181185
C       -4.95072564       8.55073552       3.74058801      -0.00508700      -0.01072934      -0.00492709
C        2.47973392       0.02303245       3.80214633      -0.00201034      -0.00383614      -0.00706531
C        1.32586352       2.24739506       3.64524815      -0.01229598      -0.01232591      -0.00589801
C       -0.00402154       4.33090992       3.98051387       0.01761906       0.00227104       0.00182426
C       -1.27900714       6.45385276       4.04689186       0.00336349      -0.00111903       0.00735059
C       -2.47940499       8.56817019       3.92635859      -0.00807247       0.00114951       0.00729522
C        4.96053021      -0.00792894       3.94609128      -0.00243599       0.00470443      -0.00802312
C        3.76707238       2.13835871       3.84778786      -0.00213421       0.00159127      -0.00902175
N        1.14834757       6.38886229       3.90345397      -0.00589058       0.01392078       0.00970907
C        0.01237790       8.52398117       3.92473997      -0.00947810      -0.00122151       0.00040425
C        7.43533909      -0.02402248       3.93694282      -0.00638886       0.00752327       0.00192906
C        6.21441785       2.11001634       3.99823012      -0.00673812       0.00356880      -0.01124601
C        4.96767632       4.20272050       3.75723930       0.00567079      -0.00410214      -0.00007087
S        3.60610561       6.23268228       2.76946014      -0.00287215       0.00992549      -0.00259861
C        2.46825876       8.51623989       3.68738166      -0.00199003      -0.00012443      -0.00054491
C        9.89727870      -0.00032787       3.78386771       0.00923657      -0.00604223      -0.00557497
C        8.67733707       2.12906543       3.97168687       0.00700174      -0.01050517       0.01200334
C        7.41468990       4.26338076       3.97200045      -0.00504045      -0.00319475      -0.00752965
C        6.16529882       6.38740416       3.68388729       0.00236792       0.01004449      -0.00778275
C        4.93478861       8.54635799       3.53880282      -0.00391169       0.00825876       0.00893659
C        0.07285546       1.50011668       3.71834244      -0.00593630       0.00806165       0.00262359
C       -1.21483341       3.58243363       3.99231417       0.00761709       0.00429395       0.01071082
C       -2.49185514       5.71448986       4.02636237       0.00886451      -0.00731221       0.00535129
C       -3.71762080       7.84799976       3.87644241      -0.00188708      -0.01121541      -0.00605804
C       -4.92460836       9.99188347       3.72548609       0.00170697      -0.00947103       0.00045381
C        2.50404692       1.46449222       3.76447158      -0.00597178      -0.00048031      -0.00560557
S        1.25797930       4.23795231       1.19188311       0.01601962      -0.00325574       0.00005755
C       -0.04701550       5.76710612       3.99010969       0.00135057       0.00403043       0.01112111
C       -1.24892323       7.85827294       3.98161171      -0.00882402       0.00063169       0.00876889
C       -2.46185561       9.99087783       3.89257563      -0.00159858       0.00257333      -0.00096030
C        4.98578499       1.41233295       3.95507750      -0.00425708       0.00424902      -0.01144699
N        3.77079284       3.50165684       3.74835306       0.00938359      -0.00535206      -0.00214195
C        1.22281907       7.77748844       3.81183418      -0.00557058       0.00294916      -0.00259240
C        0.02735959       9.95101510       3.94512310      -0.00668705       0.00060614      -0.00455115
C        7.44754524       1.40280338       3.98721908      -0.00355416       0.00669660       0.00829097
C        6.20083321       3.52422786       3.95471197      -0.00394923      -0.00249908      -0.00375889
C        5.00362594       5.58971763       3.51030858       0.01804504      -0.00318170      -0.00592119
C        3.68661898       7.87186710       3.40284697       0.00374501      -0.00311558      -0.00325043
C        2.49277315       9.94697317       3.82337915      -0.00100542       0.00026670       0.00116867
C        9.91348958       1.42956957       3.87908772       0.00827297      -0.01058117       0.00304252
C        8.65777232       3.55821431       4.00745445      -0.00200946      -0.00946979      -0.00026300
C        7.39707860       5.68927600       3.89059622      -0.00069345       0.00318696      -0.00218897
C        6.15759185       7.82193000       3.61773521      -0.01159961       0.01051377      -0.00208969
C        4.96103424       9.99291815       3.66536870       0.01245240       0.00693268       0.00047561
Re       1.80625296       4.25941645       3.21999957      -0.01012077       0.00240066       0.00911521
