49
Lattice="12.336457 0.0 0.0 -6.168228499999997 10.683685154694365 0.0 0.0 0.0 15.0" Properties=species:S:1:pos:R:3:forces:R:3 energy=-432.55978828332826 free_energy=-432.55978828332826 stress="-0.0020215128534157335 -0.00405175617236519 1.0326628869621438e-06 -0.00405175617236519 -0.003916407204223273 -1.0828842355145769e-06 1.0326628869621438e-06 -1.0828842355145769e-06 -1.0504608967674419e-06" pbc="T T T"
C       -0.00697500       0.01669615       3.94052891       0.00160088       0.00527320       0.00137654
C       -1.28409184       2.13242279       3.71743404      -0.00114572      -0.00400850      -0.00486387
C       -2.53020511       4.28457541       3.89725867       0.00734449      -0.00493474      -0.00284884
C       -3.69358412       6.43404559       4.12984981      -0.00129726      -0.00689010       0.00447830
C       -4.90971549       8.58794909       4.15745405       0.00150091       0.00889122      -0.00872478
C        2.46575334      -0.00567307       3.77038905      -0.00913516       0.00635960      -0.00948976
C        1.18090131       2.01398491       3.25235172      -0.00036593      -0.00273893       0.00095173
C       -0.21731959       4.27666000       3.18213123      -0.01108211       0.00121598      -0.01251936
C       -1.26961176       6.41716599       3.69013519      -0.00404354      -0.00352697      -0.00737842
C       -2.44570478       8.55202002       3.90984073       0.00081639      -0.00673792       0.00037266
C        4.93142202       0.00677797       3.73874489      -0.01000199       0.00358710       0.00389759
C        3.69661247       2.03967502       3.16088935       0.00462274      -0.00279386       0.00319545
S        1.38486389       6.32661481       2.81685998       0.00704304      -0.00780758      -0.00448100
C        0.01904890       8.54137360       3.70327677       0.00781759       0.00156469       0.01397224
C        7.38318309       0.01711485       3.90355411      -0.00006783      -0.00064468       0.00196960
C        6.11192745       2.17134589       3.87436556       0.00917543      -0.00331632       0.00051398
C        4.90924267       4.40380764       4.03014500      -0.01022565      -0.00437260       0.01105430
N        3.84523333       6.48321815       3.85188717       0.00603894       0.00052454       0.00216951
C        2.48667417       8.55746816       3.84189312      -0.00488816       0.00218695       0.00591580
C        9.85019298       0.01901714       4.00567383       0.00468936      -0.00572207      -0.00097140
C        8.58593282       2.15718609       3.98850200      -0.00386371       0.00462273      -0.00376746
C        7.35274018       4.30511465       4.14074425      -0.00475820      -0.00079176      -0.00695408
C        6.21412096       6.49032349       4.30343481       0.01031732       0.00847356       0.00452876
C        4.94981621       8.58207207       4.12917508      -0.00455681      -0.00628156      -0.00334003
C       -0.03712323       1.41590030       3.65093066       0.00239752       0.00353693       0.00398496
C       -1.33815427       3.54562807       3.61511947       0.00413481      -0.00549630      -0.00906475
C       -2.49268284       5.70723757       3.92857120       0.00048152      -0.00441888       0.00267258
C       -3.68087822       7.85789496       4.09143600      -0.00345158      -0.00518778      -0.00358373
C       -4.93042533       9.99856616       3.98103656      -0.00415437       0.00747491      -0.01187459
C        2.43421420       1.37578079       3.40026064       0.00227030       0.00924572       0.00255264
S        1.10568708       3.50210850       2.36195765      -0.00434254      -0.00167054      -0.00235163
C       -0.15281955       5.65328013       3.27923118      -0.00875566      -0.00032131       0.00964474
C       -1.22112028       7.83636856       3.75469008       0.00886478      -0.00326736       0.00468992
C       -2.46296806       9.97655503       3.80677174      -0.01196190      -0.00091093      -0.00402541
C        4.92153900       1.42825605       3.62430586       0.00245941       0.00455463       0.00398632
O        3.78503315       3.10486176       2.37946653       0.00891037       0.00346650       0.00641061
C        1.27943626       7.88470515       3.57172371       0.00344713       0.00890606      -0.00365751
C        0.00211299       9.97643816       3.80644460      -0.00286539       0.00490376       0.00341637
C        7.34843224       1.45410851       3.95105811       0.00211272      -0.00333169       0.00204473
C        6.07958003       3.61281994       4.04122289      -0.00019925      -0.00650612      -0.00679088
C        5.00469195       5.81757868       4.08086558       0.00623083       0.00404797       0.01118467
C        3.73996172       7.84515946       3.93811550      -0.00814763      -0.00073581      -0.00108145
C        2.45684568       9.98733020       3.95985506       0.00101705       0.00083771       0.00177709
C        9.83423346       1.44258290       3.93272344      -0.00470639      -0.00231311      -0.00389375
C        8.57421332       3.58105603       4.03382599       0.00067840       0.00463757      -0.00381301
C        7.40813448       5.72791538       4.23651220       0.00158410      -0.00251806       0.01865907
C        6.19519641       7.90014696       4.24696934       0.00428920       0.00817899      -0.00575685
C        4.92555227      10.00015681       4.05703399       0.00548439      -0.00649470      -0.00231053
Re       3.08824276       4.73515666       3.08807228      -0.00131284       0.00124988      -0.00187705
