49
Lattice="12.336457 0.0 0.0 -6.168228499999997 10.683685154694365 0.0 0.0 0.0 15.0" Properties=species:S:1:pos:R:3:forces:R:3 energy=-428.1197354395572 free_energy=-428.1197354395572 stress="-0.0033244446710965097 -3.807897198133965e-05 1.2139958815435209e-06 -3.807897198133965e-05 -0.010146644236301693 -5.405777305929211e-07 1.2139958815435209e-06 -5.405777305929211e-07 -2.6089499919713557e-06" pbc="T T T"
C       -0.01979588      -0.00974109       3.73401742       0.00323262       0.00967028      -0.00673555
C       -1.25388536       2.13065413       4.05626791       0.00309679       0.00279490      -0.00149741
C       -2.51304032       4.27003628       4.11428171       0.00176208      -0.00020453       0.00283567
C       -3.72614075       6.40381410       3.88040128      -0.00204364      -0.00173043       0.00484204
C       -4.95567738       8.53163075       3.64720171      -0.00926587       0.00307439      -0.00099551
C        2.45340194      -0.05545152       3.64128563       0.00499665      -0.00112160      -0.00099629
C        1.25243561       2.02910391       4.00906541      -0.00428516       0.00321003      -0.00272020
C       -0.13870256       4.28014530       4.62963499       0.00260345       0.00215319      -0.00090829
C       -1.29537308       6.42736996       4.26907214       0.00269708       0.00099978       0.00007817
C       -2.47889433       8.52293116       3.83384363       0.00178239      -0.00329850       0.00202066
C        4.91396595      -0.01964634       3.61394972       0.00455489      -0.00268098      -0.00317832
C        3.65776936       2.04602455       3.29042245      -0.00607290       0.00740797       0.00037023
P        1.47525146       6.39050269       4.75565094       0.00240943       0.00609404       0.00181385
C       -0.01557846       8.56218411       3.93224090       0.00185414       0.00077139      -0.00077852
C        7.37771170       0.01964777       3.67115534      -0.00382071      -0.01296007      -0.00369836
C        6.15055493       2.12131439       3.49938385      -0.00353441      -0.00247578      -0.00051300
C        4.99794850       4.26336868       3.22529505      -0.00154024       0.00132091      -0.00117371
S        3.54364606       6.39548101       2.39866946       0.00376517       0.01243950      -0.00033582
C        2.45144638       8.60794012       3.59741658      -0.00612632       0.00238047      -0.00597165
C        9.85860653       0.03341542       3.66984982       0.00258733      -0.00017568       0.00179165
C        8.61579870       2.14765811       3.79883559      -0.00587288      -0.00160185       0.00152843
C        7.38582444       4.27000017       3.72319044      -0.00225151       0.00434097       0.00241190
C        6.18880610       6.43758845       3.48415577       0.00420774      -0.00003771       0.01003759
C        4.91161342       8.56682028       3.41980374      -0.00463819       0.00111329      -0.00790331
C       -0.01594443       1.40344777       3.95771845      -0.00127673       0.00688839      -0.00639329
C       -1.29707012       3.53813605       4.28735888       0.00743111       0.00115043       0.00089258
C       -2.51270964       5.69677926       4.10813189       0.00009752      -0.00232100       0.00160427
C       -3.72021287       7.81959754       3.79010521      -0.00616615       0.00028541       0.00369259
C       -4.95892839       9.94861604       3.67557710       0.00094501       0.00613720       0.00225177
C        2.44964592       1.36227339       3.62652087      -0.00724425      -0.00108302      -0.00692993
P        1.47239026       3.56806036       4.81999531       0.00473049      -0.00871185      -0.00042822
C       -0.13700640       5.68398218       4.61190876      -0.00272586       0.00214783       0.00277727
C       -1.25237130       7.83422396       4.03481144       0.00517121       0.00071153      -0.00307999
C       -2.47855334       9.93510548       3.66938842       0.00762928      -0.00358812      -0.00016131
C        4.91035943       1.40268822       3.43139963      -0.00383346      -0.00246526      -0.00144367
S        3.53786951       3.56459602       2.40185848       0.01260669      -0.00765050       0.00472585
C        1.25318951       7.93658709       3.97040239      -0.00083500       0.00010389      -0.00155166
C       -0.01965473       9.97743382       3.72362460      -0.00087179      -0.00822988      -0.00770230
C        7.38045550       1.43646240       3.65165808      -0.00521868      -0.01204386       0.00134689
C        6.18971518       3.52993718       3.48506791      -0.00265624       0.00021018       0.00379357
C        4.99580834       5.70214613       3.23000077       0.00962109      -0.00161307      -0.00079985
C        3.66050348       7.92630959       3.26467259      -0.00358107      -0.00669996       0.00127658
C        2.45420618      10.02481994       3.62993045      -0.00043599      -0.00266556      -0.00043538
C        9.85702293       1.44395722       3.84583856      -0.00029147       0.00126311      -0.00339141
C        8.61014549       3.56340834       3.88693886      -0.00458493       0.00362052       0.00563241
C        7.38531780       5.69757707       3.72135484       0.00364350       0.00083524       0.00581082
C        6.15122813       7.84646655       3.49315661      -0.00743752      -0.00165651      -0.00188197
C        4.91458925       9.98832829       3.61299783       0.00515181       0.00363016      -0.00367600
Re       3.20970463       4.97481685       4.12921021       0.00003355       0.00026069       0.01374619
