50
Lattice="12.336457 0.0 0.0 -6.168228499999997 10.683685154694365 0.0 0.0 0.0 15.0" Properties=species:S:1:pos:R:3:forces:R:3 energy=-446.9522332429237 free_energy=-446.9522332429237 stress="-0.004106329057488071 0.004909955597451335 -9.988513647584196e-07 0.004909955597451335 -0.004555413431179436 2.0448706771722703e-06 -9.988513647584196e-07 2.0448706771722703e-06 6.188421581583541e-07" pbc="T T T"
C       -0.02209305      -0.01044020       3.77705172       0.00161201       0.00378484       0.00379686
C       -1.22901571       2.14497920       3.83456845       0.00489082       0.00379101      -0.00047864
C       -2.45377972       4.27650830       3.85495085       0.00233417       0.00291458       0.00008786
C       -3.71665759       6.40365011       3.80882081      -0.00183970      -0.00675468       0.00483897
C       -4.97182304       8.53267939       3.76552284       0.00047388       0.00304188      -0.00198368
C        2.43789119      -0.00850863       3.73508493      -0.00110778       0.00190670       0.00266523
C        1.22787471       2.14356500       3.81160196      -0.00550957       0.00065365      -0.00227061
C        0.01789523       4.30331116       3.92962772      -0.00162903       0.00083048      -0.00542567
C       -1.24412739       6.42618387       3.85531788       0.00439113      -0.00539085       0.00013281
C       -2.50786765       8.54490045       3.75743651       0.00638209      -0.00472398      -0.00435961
C        4.91213260      -0.01383188       3.67431596       0.00214855       0.01008682      -0.00481317
C        3.70122856       2.09285922       3.65449758      -0.00128057      -0.01106914      -0.00147180
B        2.54883167       4.32249724       3.91970461      -0.00044626       0.00603254       0.00238823
N        1.16390021       6.52272711       3.98046377       0.00024400      -0.00632844      -0.00173857
C       -0.06067908       8.55637800       3.68688785       0.00091542       0.00720118      -0.00175750
C        7.38504872      -0.00745438       3.67294820      -0.00828942      -0.00464805       0.00388913
C        6.18283384       2.10031556       3.66379960      -0.00282535       0.00186171      -0.00668603
C        4.98703007       4.18718655       3.60538392       0.00172108      -0.00450109      -0.00082724
P        3.54649242       6.23906566       2.63907234      -0.00220106       0.00363770       0.00241754
C        2.40057911       8.56527136       3.60814896      -0.00389199       0.00226488      -0.00184834
C        9.85905502      -0.00132320       3.73541313       0.00481411      -0.00478898       0.00799249
C        8.64551668       2.12998532       3.76191383      -0.00997195      -0.00218896      -0.00526264
C        7.42744145       4.25603386       3.75223446      -0.00084433       0.00390799      -0.00203637
C        6.15168721       6.39281881       3.74599793       0.00300732       0.00456690       0.00696242
C        4.90002095       8.51979338       3.71665997       0.00445288      -0.00066744       0.00358717
C       -0.00759562       1.42140157       3.81200189       0.00107824       0.00241973       0.00098195
C       -1.21901761       3.57785736       3.88307631       0.00293938       0.00344559      -0.00654195
C       -2.46942871       5.70150744       3.84823611       0.00209526      -0.00101558      -0.00172978
C       -3.73787047       7.82657915       3.78316641      -0.00063759      -0.00585497       0.00467040
C       -4.96522254       9.95660736       3.76202917      -0.00150356       0.00583603       0.00301520
C        2.45016800       1.41072908       3.73355127      -0.00675057      -0.00027238      -0.00024995
C        1.22234403       3.57858228       3.88826880      -0.00646738      -0.00648726       0.00154414
C        0.02305064       5.75498328       3.93804511       0.00163403      -0.00024170       0.00466525
C       -1.27568015       7.83945239       3.77002474       0.00931821      -0.00562684      -0.00684085
C       -2.49832650       9.96468956       3.71496794       0.00484560       0.00329675      -0.00380394
C        4.93826749       1.39403110       3.64885134       0.00273805       0.00475597       0.00136723
C        3.77396537       3.49223862       3.61972875       0.00722100      -0.01361127      -0.00207982
C        1.16416547       7.85409972       3.69139362      -0.00306388       0.00296361       0.00608569
C       -0.02522234       9.96893050       3.66574231      -0.00513544       0.00612516      -0.00562651
C        7.41020206       1.40732821       3.70181438      -0.01245725      -0.00538184      -0.01038559
C        6.21383388       3.51920535       3.66002539       0.00532715       0.00041881      -0.00796805
C        4.90987035       5.62915574       3.72791146      -0.00327132       0.01016995      -0.00190013
C        3.62172211       7.80803736       3.67509235       0.00264145      -0.00464581       0.01577071
C        2.44588619       9.97159589       3.66849684      -0.00229411      -0.00186315       0.00317541
C        9.87418951       1.42298945       3.78201343       0.00050113       0.00061185       0.00369671
C        8.65489680       3.55428791       3.79579893      -0.00166888       0.00264165      -0.00115922
C        7.38990083       5.68653813       3.78140002      -0.00449244       0.00021796       0.00560782
C        6.12377588       7.80768410       3.74356665       0.00306447       0.00153056      -0.00264006
C        4.91080655       9.94803445       3.75325755       0.00806322      -0.00447313       0.00179403
Rh       3.10018153       6.05900871       4.71477269      -0.00127522      -0.00038093       0.00075245
