49
Lattice="12.336457 0.0 0.0 -6.168228499999997 10.683685154694365 0.0 0.0 0.0 15.0" Properties=species:S:1:pos:R:3:forces:R:3 energy=-437.5834385126265 free_energy=-437.5834385126265 stress="-0.0077226283053995915 -0.0021310701068889618 6.93547212223215e-07 -0.0021310701068889618 -0.002346070649769562 -4.917690410903343e-06 6.93547212223215e-07 -4.917690410903343e-06 1.6689131133372685e-06" pbc="T T T"
C       -0.00029448       0.00273422       3.90302189       0.01266484      -0.00267284       0.00357968
C       -1.24982101       2.11730210       3.77027718      -0.01297169       0.00042351       0.00510104
C       -2.46693829       4.26363074       3.61552696      -0.00364031       0.00071056       0.00663055
C       -3.67886205       6.41383884       3.67198773      -0.00304041      -0.00085813      -0.00478638
C       -4.91869576       8.55526345       3.85452975      -0.01219672      -0.00742219      -0.00387345
C        2.47096703      -0.00037846       3.84547314       0.00225040       0.00130344      -0.00410606
C        1.22336652       2.14849152       3.88590034       0.00316254       0.00050752       0.00630596
C       -0.03806285       4.25884790       3.76146996       0.00407202      -0.00342026       0.00654728
C       -1.23918973       6.41789752       3.68581853      -0.00262204      -0.00809466       0.00555865
C       -2.46127400       8.55158388       3.76131048      -0.00754887       0.00680340       0.00268762
C        4.93908499      -0.00438233       3.68198149       0.00241825      -0.00304609       0.00821030
C        3.67024472       2.09597098       3.51826006       0.00732052      -0.00136173       0.01353598
C        1.19086996       6.36303858       3.99414264       0.00371768       0.00740740       0.00568500
C        0.00721065       8.52621925       3.81019670       0.00525654      -0.00067311      -0.00558078
C        7.40284244      -0.01760726       3.72587796      -0.00346295       0.00616394      -0.00308429
C        6.17440166       2.12281226       3.46898123       0.00384777      -0.01031309       0.00406214
C        5.03399002       4.32915541       3.35026578       0.01608597       0.00499078      -0.00038824
B        3.72671196       6.36166336       4.08562027      -0.01045140       0.00403858      -0.01593222
C        2.47037038       8.52863731       3.96264294       0.00312639       0.00532191      -0.00534547
C        9.86221879      -0.01457889       3.84171397      -0.00626350      -0.00615405       0.00664380
C        8.63232933       2.11865740       3.62322802      -0.00459945       0.00906582      -0.00358475
C        7.43311815       4.27216865       3.51937901       0.00238496      -0.00365472      -0.00477872
C        6.22606596       6.42935346       3.73482846       0.00502375       0.00239483      -0.00076971
C        4.95226551       8.55251184       3.95058668      -0.00767669       0.00009454      -0.00524326
C       -0.01250251       1.42333563       3.87504601      -0.00226416       0.00255943       0.00494837
C       -1.25823698       3.53474182       3.68328163      -0.00432505       0.00215806       0.00638946
C       -2.45685773       5.69585320       3.63392752      -0.00582173      -0.00513043       0.00469959
C       -3.68691294       7.83956544       3.76616078      -0.00994139       0.00127255      -0.00594474
C       -4.92797811       9.97693250       3.89433029       0.00787317      -0.00906443       0.00426018
C        2.46317947       1.42234113       3.79436415       0.00574978       0.00206440      -0.00252259
C        1.16358915       3.56321789       3.94050117       0.00696891       0.00070054       0.01399713
C       -0.02318281       5.68930003       3.77129426       0.00545099      -0.00213182       0.00672436
C       -1.22959184       7.83562810       3.74410307      -0.00222457      -0.00224871       0.00011749
C       -2.46189029       9.97398622       3.77225343      -0.00158162       0.00710442       0.00392435
C        4.92930059       1.42184707       3.53760063       0.00359511      -0.00886369       0.01327754
P        3.42322794       3.75613900       2.92395521      -0.00378311       0.00224861      -0.01861833
C        1.24489516       7.78552854       3.93303665       0.00907462       0.00621845      -0.00792684
C        0.00294310       9.95262836       3.73801485       0.00265607       0.00093800       0.00173972
C        7.39823471       1.40698127       3.59642535       0.00241874       0.00430444      -0.00333121
C        6.20882342       3.55076362       3.39769241       0.00603972      -0.00930984      -0.00356749
C        5.03276812       5.69358644       3.67062562       0.00494535       0.00539946      -0.01043844
C        3.70832977       7.86243513       4.01903625      -0.00373969       0.00144280      -0.00423569
C        2.46161562       9.95482368       3.84837281      -0.00854421       0.00046713       0.00287757
C        9.85606470       1.40471004       3.74197341      -0.01525905      -0.00334557       0.00557856
C        8.64458760       3.54855335       3.57337373       0.00061025       0.00411745      -0.00483155
C        7.44110887       5.69972950       3.62798249       0.00317696      -0.00307354      -0.00340588
C        6.19472101       7.84625355       3.87376867      -0.01239789      -0.00109393      -0.00369299
C        4.93812555       9.97146556       3.91220780       0.00544263      -0.00109406      -0.00629460
Rh       2.46011187       4.97537032       4.66237022       0.00902255       0.00280491      -0.01079862
