49
Lattice="12.336457 0.0 0.0 -6.168228499999997 10.683685154694365 0.0 0.0 0.0 15.0" Properties=species:S:1:pos:R:3:forces:R:3 energy=-437.71950742282297 free_energy=-437.71950742282297 stress="-0.008367948887652693 0.002891099211613367 -3.5547350117021853e-06 0.002891099211613367 -0.002081569982821558 2.9919732373824664e-06 -3.5547350117021853e-06 2.9919732373824664e-06 -6.802467599857431e-07" pbc="T T T"
C       -0.00149187       0.00479136       3.70183011       0.00290027      -0.00387056       0.00278669
C       -1.23246712       2.12858889       3.45671233      -0.00632532      -0.00066502      -0.00340587
C       -2.48942831       4.27663787       3.50416595       0.00326444       0.00524793       0.00183861
C       -3.71680686       6.41577420       3.70021277      -0.00006729       0.00290355      -0.00023301
C       -4.94569555       8.55400457       3.81244481      -0.00166915       0.00066049      -0.00009712
C        2.46120799       0.01079670       3.87243461       0.00103100      -0.00377628      -0.00006744
C        1.26774520       2.10326232       3.50887521      -0.00168461      -0.01043026       0.00352282
C       -0.10140782       4.33816786       3.22551974       0.00338905      -0.00164229       0.00223365
C       -1.29512757       6.45076841       3.57173645       0.00341008      -0.00365117      -0.00172917
C       -2.49000862       8.56476911       3.81739963       0.00314240       0.00267087      -0.00168438
C        4.93738621       0.00014308       3.91681668      -0.00108327       0.00769751      -0.00284098
C        3.71362141       2.15840554       3.97217403       0.00099419       0.00016382      -0.00629293
C        1.13760819       6.38524454       3.78031576      -0.00182260       0.00153962       0.00093796
C       -0.01848028       8.53932098       3.83098667      -0.00317514       0.00211672      -0.00029782
C        7.40985191      -0.02285135       3.82902794       0.00290829      -0.00130967      -0.00384025
C        6.19883407       2.10635489       3.88295611      -0.00239015      -0.00287161       0.00419698
C        5.00439035       4.24186711       3.97452205      -0.00435760       0.00146462      -0.00183064
B        3.67102571       6.33126686       4.03604636      -0.00061656      -0.00023120      -0.00033984
C        2.45969104       8.52360479       3.88117131       0.00218455      -0.00171928      -0.00045537
C        9.86924606      -0.01372319       3.71857716       0.00504233      -0.00167955      -0.00160713
C        8.64713120       2.11814211       3.66465747      -0.00475184       0.00289772       0.00008316
C        7.42324363       4.25829840       3.74720557      -0.00545846      -0.00721054       0.00820000
C        6.18814882       6.40639034       3.83971278       0.00344024       0.00214053      -0.00390164
C        4.92816878       8.54101139       3.83991635      -0.00076985       0.00224763       0.00380829
C        0.00927297       1.42879769       3.53392963      -0.00353380      -0.00507108       0.00038611
C       -1.26503468       3.55895814       3.35161483       0.00176625       0.00159825      -0.00129452
C       -2.49953066       5.70716967       3.57366652       0.00144231       0.00369453      -0.00099080
C       -3.71638162       7.84375663       3.78034407       0.00061066       0.00507615      -0.00305890
C       -4.94063258       9.98150011       3.80349683       0.00135711      -0.00279052       0.00260229
C        2.47032284       1.43582913       3.82809827       0.00324443      -0.00577876      -0.00922325
P        1.48451457       3.71520929       2.76688084      -0.00557178       0.01169167      -0.00785954
C       -0.07848615       5.74032565       3.46014312       0.00213734      -0.00320542      -0.00109442
C       -1.26431587       7.85548987       3.75160758       0.00066122      -0.00445069       0.00353300
C       -2.47692485       9.98262392       3.89701797       0.00227282       0.00323880       0.00377648
C        4.95382669       1.41869116       3.95337358      -0.00080310       0.00432813      -0.00316721
C        3.77840658       3.56108576       4.08246694      -0.00101847      -0.00080126       0.00542016
C        1.21844250       7.79757198       3.85321729      -0.00203989       0.00065043       0.00433578
C       -0.00158792       9.95678664       3.87402170      -0.00203837       0.00446839      -0.00275055
C        7.42516247       1.39747197       3.79317707      -0.00131585      -0.00076851       0.00766761
C        6.22286921       3.52214985       3.86808728      -0.00881469      -0.00531016      -0.00045353
C        5.01218348       5.64816423       3.93774710       0.00278903       0.00306118      -0.00364950
C        3.68461919       7.84177243       3.91592160       0.00101855      -0.00081527      -0.00192027
C        2.46899307       9.95093250       3.80877788       0.00562513      -0.00187916       0.00176121
C        9.87974380       1.41197089       3.60214318      -0.00616224      -0.00092944      -0.00412663
C        8.64391991       3.54834469       3.63013791       0.00054501       0.00387749       0.00510133
C        7.41144584       5.68913374       3.75363160       0.00187848      -0.00462322       0.00657912
C        6.16572848       7.83643608       3.83060419      -0.00176686       0.00272347       0.00098269
C        4.93502984       9.96763176       3.74778186       0.00521789      -0.00067331       0.00447760
Rh       2.32941968       4.95970857       4.47141290       0.00496383      -0.00000526      -0.00601883
