50
Lattice="12.336457 0.0 0.0 -6.168228499999997 10.683685154694365 0.0 0.0 0.0 15.0" Properties=species:S:1:pos:R:3:forces:R:3 energy=-445.7373694766413 free_energy=-445.7373694766413 stress="-0.005119281410464868 0.0026696192119579163 1.5746864233806752e-06 0.0026696192119579163 -0.008208304814433314 2.214127038101716e-06 1.5746864233806752e-06 2.214127038101716e-06 -4.113848114704365e-06" pbc="T T T"
C       -0.01763788      -0.01275506       3.78654243       0.00444073       0.00602571      -0.00601088
C       -1.23941491       2.13341612       3.79966063       0.00339170      -0.00004567       0.00537789
C       -2.47138163       4.26742383       3.79936929      -0.00063909       0.00253424       0.00886179
C       -3.71932026       6.39822076       3.78664779       0.00769794       0.00727670      -0.00469325
C       -4.96137737       8.52963648       3.77236106      -0.00572473      -0.00427116       0.00540006
C        2.44481565      -0.01877400       3.76141581       0.00621211      -0.00183336       0.00232546
C        1.22529027       2.12886356       3.84570313      -0.00135377       0.00451852       0.00101870
C       -0.01122567       4.26538534       3.91765598      -0.00286292      -0.00238223       0.01401384
C       -1.24296024       6.40459880       3.84363666      -0.00077512      -0.00792573      -0.00178268
C       -2.49343249       8.53415518       3.75809514       0.00403070       0.00842581       0.00845290
C        4.91387986      -0.01327382       3.68066362       0.00835697      -0.00231343      -0.01731723
C        3.69473707       2.09169352       3.70729063      -0.00826533      -0.00101631       0.00782954
B        2.52722619       4.33130613       4.01085417      -0.00219628      -0.00117826       0.00310058
B        1.31503031       6.43112213       4.00792285       0.00098788      -0.00102878       0.00711994
C       -0.04063273       8.56173267       3.70258713      -0.00815337      -0.00684142       0.00740514
C        7.38012934       0.01047345       3.64059056      -0.00428835       0.00546344      -0.00243255
C        6.16825891       2.11017009       3.64530158      -0.00650511      -0.00698960      -0.00642466
C        4.96522795       4.19517944       3.62637140       0.00233423      -0.00258791       0.00499166
P        3.47105696       6.27485858       2.66453421      -0.00060007       0.00112809       0.01615923
C        2.41639662       8.61038811       3.62200830      -0.00207319      -0.00039315      -0.00008731
C        9.86412217       0.01188475       3.70460447      -0.00638089      -0.00233177       0.00701358
C        8.63373673       2.13382369       3.70172747       0.01213784       0.00815451       0.00780391
C        7.41095217       4.26025776       3.71043365      -0.00342999      -0.00087953       0.00154995
C        6.14678151       6.39788331       3.72959684       0.00299224      -0.00511472      -0.01082139
C        4.91478798       8.53216419       3.72626136      -0.00167352       0.00319903      -0.00872415
C       -0.01153724       1.41276590       3.81509257       0.00393348       0.00498830      -0.00278379
C       -1.24546134       3.55258514       3.83875541      -0.00442037      -0.00191889       0.01242728
C       -2.48141809       5.69117725       3.81356491       0.00097786      -0.00016240       0.00238715
C       -3.72887285       7.82071561       3.77983012       0.00349629       0.00838998      -0.00515263
C       -4.95874771       9.95148181       3.78152673       0.00296472      -0.00207455      -0.00842564
C        2.45193781       1.39829407       3.77606010      -0.00645719      -0.00209422       0.00794861
C        1.21516940       3.55273222       3.93104944      -0.00150559       0.00196740       0.00741520
C       -0.01511309       5.68388820       3.93033362      -0.00004780      -0.00408164       0.00113001
C       -1.26245576       7.83209930       3.77217788      -0.00759948      -0.00683409       0.00874928
C       -2.49063814       9.95630723       3.72886784       0.01150985       0.00602111      -0.00532978
C        4.93084262       1.39816556       3.66271879      -0.00917033      -0.00437411      -0.01309843
C        3.75399710       3.49878149       3.70796273       0.00357735      -0.00004247      -0.00137458
C        1.20771432       7.90956294       3.70414151      -0.00218190       0.00601161      -0.00615494
C       -0.02376367       9.97899056       3.65820950       0.00238685      -0.00671474      -0.00816963
C        7.39751419       1.42000329       3.65762042       0.00533584       0.00874083      -0.01075894
C        6.19371466       3.52760227       3.64236865      -0.00288905      -0.00690296      -0.00072622
C        4.90202563       5.63889386       3.69622622       0.00027524       0.00158630      -0.00688823
C        3.63501654       7.83410190       3.69289940       0.00346950      -0.00760796      -0.00650532
C        2.45251343      10.00794741       3.63631972      -0.00829112       0.00023296      -0.00106718
C        9.86531656       1.42659116       3.73351355       0.00859614      -0.00121744       0.00193252
C        8.63692691       3.55401419       3.73582170       0.00262046       0.00846213       0.00186376
C        7.37986660       5.68853865       3.75467036       0.00736821       0.00076881      -0.01227563
C        6.13217468       7.81218199       3.74674210      -0.00653698      -0.00519102      -0.01215683
C        4.91735206       9.95458129       3.75002796      -0.00070089       0.00599271      -0.00525298
Rh       3.16915806       6.10286769       4.81232185      -0.00437173      -0.00353868       0.01213687
