49
Lattice="12.336457 0.0 0.0 -6.168228499999997 10.683685154694365 0.0 0.0 0.0 15.0" Properties=species:S:1:pos:R:3:forces:R:3 energy=-433.3122440800654 free_energy=-433.3122440800654 stress="-0.007884258546514129 -0.0034329044689413507 7.621381629254683e-06 -0.0034329044689413507 -0.007085629700280715 2.4503012313645494e-06 7.621381629254683e-06 2.4503012313645494e-06 9.789150001066792e-07" pbc="T T T"
C       -0.00097124       0.00030285       4.04192491       0.00055156      -0.00284950      -0.00244774
C       -1.25988226       2.11840319       3.91712799      -0.00159852      -0.01044561      -0.00625854
C       -2.48503214       4.26291085       3.69488879      -0.00575063       0.00394581      -0.00094050
C       -3.68362956       6.41207309       3.72704483       0.00613212       0.00659655       0.00775547
C       -4.91457535       8.55052709       3.94418747      -0.01176704       0.00238543       0.00089113
C        2.47260350      -0.01408630       3.88599095      -0.00323340       0.00545926       0.01044555
C        1.21756760       2.12834860       3.91955931      -0.00165956       0.00600182      -0.01758411
C       -0.06056111       4.22440311       3.62873174      -0.00744881       0.00082831      -0.00738768
C       -1.23938294       6.39726538       3.51111422      -0.00262785       0.00498051      -0.00077187
C       -2.44908808       8.53867431       3.71877034      -0.00131006      -0.00215461      -0.00090558
C        4.93268252      -0.00034183       3.67094337       0.00000891      -0.00372904       0.00140714
C        3.65802991       2.08251345       3.52739374      -0.00016241       0.00831845      -0.00432170
P        1.52951567       6.24812253       2.97887385       0.00449110       0.01117281       0.01158603
C        0.01545683       8.54402986       3.60775458       0.00573658      -0.00549837       0.00307233
C        7.39125938       0.01111182       3.77028754       0.00564205       0.01085448       0.00316319
C        6.16003998       2.13865909       3.53275881      -0.00091748       0.00042966      -0.00249535
C        5.02632270       4.34259535       3.38668142      -0.00268836      -0.00543483      -0.01882576
B        3.69794594       6.36866128       4.09486519      -0.01396953      -0.01202455      -0.00042836
C        2.47259453       8.58325154       3.90886378       0.00584671      -0.00549671       0.01284259
C        9.86013998       0.00951010       3.99799208      -0.00083934      -0.00766280       0.01149127
C        8.61812018       2.13385439       3.76399243       0.00925678       0.00221016       0.01268273
C        7.41627161       4.28072186       3.62199777       0.00404646      -0.00364073       0.00386763
C        6.21759387       6.43627895       3.82654637       0.00562759      -0.00014826      -0.00014069
C        4.94855386       8.56028654       4.07185375      -0.00942739       0.00434992      -0.01045907
C       -0.01811047       1.41728638       3.99418246       0.00256282      -0.00705082      -0.01520058
C       -1.28140339       3.52308037       3.74689861      -0.00906613      -0.00462456      -0.00588337
C       -2.47031491       5.68774305       3.63717325       0.00105047       0.00641186      -0.00364064
C       -3.68357372       7.83572063       3.79965092      -0.00471413       0.00359439       0.00783489
C       -4.92644039       9.97031048       3.98784955      -0.00093318      -0.00041345       0.00323095
C        2.45833329       1.40682941       3.81974762      -0.00341414       0.00574494       0.00671661
C        1.15600222       3.53852312       3.85499087      -0.00624588       0.00530449       0.00145946
C       -0.07526716       5.61555101       3.38942599       0.00199965       0.00648147      -0.01282456
C       -1.22215101       7.82783888       3.57683671       0.00402296       0.00056169      -0.00663237
C       -2.46056833       9.96479761       3.76413655      -0.00431330      -0.00153339       0.00122401
C        4.91861378       1.42827940       3.56252304      -0.00057310       0.00051188      -0.00386128
P        3.43131883       3.73817973       2.90968363       0.00160117      -0.01056995      -0.00397188
C        1.27341680       7.89315801       3.60386655       0.00694829      -0.00721766       0.00327461
C       -0.00158045       9.97611277       3.68510743       0.00525017       0.00012466       0.00947597
C        7.38360281       1.43131953       3.68981643       0.00601574       0.01267735       0.00925743
C        6.19437497       3.56345853       3.47201700       0.00693244      -0.00672235       0.00235482
C        5.01723304       5.70330838       3.72460834       0.00213872      -0.00232577      -0.00368850
C        3.70248005       7.88208782       4.06278185       0.00032194      -0.00984287      -0.00466842
C        2.45619259      10.00220738       3.92529779       0.00135548      -0.00421252       0.01138987
C        9.84526003       1.42169664       3.91240911       0.00247201      -0.00868863       0.00278911
C        8.62541327       3.55630347       3.69640500       0.00105801      -0.00010315       0.00848790
C        7.42931467       5.70482324       3.72462195       0.00885016      -0.00056701       0.00373269
C        6.19508784       7.84930992       3.98537766      -0.01227038       0.00530483      -0.00573178
C        4.93534229       9.98277234       4.06658057      -0.00307158       0.00233184      -0.00885031
Rh       2.45324130       4.89977390       4.61258547       0.00808230       0.00637454      -0.00251274
