49
Lattice="12.336457 0.0 0.0 -6.168228499999997 10.683685154694365 0.0 0.0 0.0 15.0" Properties=species:S:1:pos:R:3:forces:R:3 energy=-434.61261673770247 free_energy=-434.61261673770247 stress="-0.0037610687025459756 0.0031510870895254243 4.61901539355655e-06 0.0031510870895254243 -0.00045175040028020525 -9.795659941677317e-06 4.61901539355655e-06 -9.795659941677317e-06 4.174442729663675e-07" pbc="T T T"
C        0.00811833       0.00802129       3.77556450       0.00292721      -0.00272723       0.00111034
C       -1.22163703       2.13371761       3.70715528       0.00222307      -0.00157525       0.00337138
C       -2.48472255       4.27437029       3.50980403       0.00131188       0.00224049       0.00560803
C       -3.72360434       6.41495876       3.50509488       0.00567909      -0.00508832      -0.00534699
C       -4.94794235       8.54926487       3.65740551       0.01428652       0.00280729       0.00374849
C        2.47845033       0.02636476       3.74093278      -0.00239015       0.00074758      -0.00840792
C        1.27080850       2.15532325       3.95364357      -0.00017809      -0.00723650      -0.00164568
C       -0.08891603       4.30080281       3.86226004      -0.00741153       0.00679685       0.01145357
C       -1.28370292       6.43104509       3.68311828      -0.00344883       0.00926075      -0.00801352
C       -2.48385080       8.55964819       3.64708086       0.00468094       0.00220405       0.00026809
C        4.93814446      -0.00105228       3.67101690      -0.01089123       0.00060274      -0.00497989
C        3.75921026       2.12888226       3.75561438      -0.00852836      -0.00178056      -0.00495287
B        1.20029215       6.38435751       4.26643121       0.00382477      -0.00203379       0.00124418
C       -0.01078420       8.55132946       3.82595616      -0.00026853       0.00472734      -0.01134190
C        7.41368037      -0.01110161       3.69192288       0.00788157       0.00100761      -0.00108981
C        6.19492470       2.11066236       3.51992040      -0.00439532      -0.00854362      -0.01420170
C        4.99304050       4.21080791       3.60449256      -0.00604953      -0.00838552      -0.01321552
B        3.67453193       6.31630400       4.09661275      -0.01057632      -0.00283171      -0.00905031
C        2.46752723       8.55023615       3.95160298      -0.00525744      -0.00304527      -0.00371412
C        9.87895157      -0.00378013       3.74414179       0.00489478       0.00319638      -0.01245697
C        8.65320362       2.12495108       3.53177534       0.00831182       0.00205579       0.00616374
C        7.40616632       4.26489121       3.42852033       0.00209400      -0.00961733       0.00782900
C        6.15498315       6.38470294       3.60510164       0.00140498       0.00269363       0.00909262
C        4.92691004       8.53201309       3.81638872      -0.00578756       0.00871448       0.00625620
C        0.02719509       1.44530913       3.82328017       0.00073986      -0.00580106       0.00014866
C       -1.25987346       3.55344157       3.65249886      -0.00358184       0.00017547       0.00363976
C       -2.49979016       5.70304940       3.52610298       0.00232241      -0.00024073       0.01733153
C       -3.71796398       7.84193529       3.58871989       0.01249881      -0.00462341       0.00590343
C       -4.92902631       9.98340321       3.73438562       0.00507978       0.00162065      -0.00202709
C        2.50556273       1.46161130       3.83652071      -0.00214007      -0.00546447       0.00300123
B        1.22656164       3.64250053       4.22379948       0.01151661       0.00146474       0.00045264
C       -0.10326457       5.69266577       3.88698344      -0.00645251       0.00846867      -0.00378608
C       -1.25896712       7.85265617       3.72079259       0.00133419       0.00639663      -0.00271606
C       -2.47099754       9.98813890       3.68466299      -0.00739240      -0.00029053       0.00743040
C        4.95702906       1.42109839       3.62809093      -0.01089685      -0.00219734      -0.00756353
O        3.82306245       3.50262301       3.80078630      -0.01036286      -0.00536370      -0.01572656
C        1.22496043       7.86865017       4.01394700      -0.00596009       0.00016096       0.01291279
C        0.00211165       9.96989340       3.71849315      -0.00245434       0.00684431       0.00851059
C        7.41891454       1.40912590       3.55682503       0.00623015       0.00272296       0.00547618
C        6.19374014       3.52275878       3.45381816      -0.00234738      -0.00958602      -0.00545887
C        4.95653514       5.61061921       3.71118842      -0.00208597      -0.00683354       0.00490816
C        3.68941985       7.83385601       3.96358190      -0.00603281      -0.00087138      -0.00032349
C        2.47586547       9.97359136       3.79355527       0.00790501      -0.00291473      -0.01077395
C        9.88504372       1.41817257       3.64310659       0.00509838       0.00186429       0.00650578
C        8.63777529       3.55193979       3.45500719       0.00578249      -0.00147607       0.00805539
C        7.38769343       5.68733620       3.47719533       0.00299831      -0.00593628      -0.00162286
C        6.15682944       7.81796404       3.69529116       0.00231514       0.01214050       0.00291655
C        4.94208579       9.96955787       3.78136449       0.00056115       0.00630303      -0.00007400
Rh       2.43310734       5.05993029       5.03316416       0.00098712       0.00924722       0.00515092
