49
Lattice="12.336457 0.0 0.0 -6.168228499999997 10.683685154694365 0.0 0.0 0.0 15.0" Properties=species:S:1:pos:R:3:forces:R:3 energy=-432.1082022751642 free_energy=-432.1082022751642 stress="-0.0027075307732384144 -3.1878059764904555e-05 -4.054646528239428e-06 -3.1878059764904555e-05 -0.006747486116649256 -7.243876142903594e-06 -4.054646528239428e-06 -7.243876142903594e-06 2.0592931168025164e-07" pbc="T T T"
C       -0.00376246      -0.02933767       3.86683569       0.00372510       0.00011692      -0.00610464
C       -1.22842470       2.12102221       3.81851268      -0.00217417       0.00672526      -0.00806969
C       -2.47677012       4.26032783       3.63381273      -0.00525044       0.00278278       0.00243086
C       -3.71010085       6.39289679       3.62858004       0.00043522      -0.00207514       0.00458757
C       -4.93995523       8.51852235       3.75968243       0.00308044       0.00293104       0.00158219
C        2.46967979      -0.06345321       3.73126278       0.00391779      -0.00717971       0.00651294
C        1.27754331       2.04763204       3.96824912       0.00459356      -0.00115534      -0.00553206
C       -0.05813038       4.31280786       3.86051954      -0.00350245       0.00241768       0.00281946
C       -1.26268196       6.41733620       3.74404174       0.00038544      -0.00291040       0.00338470
C       -2.47040620       8.52340652       3.70133121       0.00414957       0.00146628      -0.00774966
C        4.93519986      -0.02307926       3.59958443       0.00027566      -0.00580732       0.00014077
C        3.67347829       2.03510065       3.35894755      -0.00549467      -0.00925081       0.00500362
B        1.24382004       6.40282670       4.30754960       0.00852885       0.00672499      -0.00518616
C       -0.00683263       8.55347232       3.84239149       0.00359002      -0.00398378      -0.00724808
C        7.40160242      -0.00161027       3.69515517       0.00304930      -0.00599056      -0.00534814
C        6.15820197       2.12658951       3.40723886      -0.00241888       0.00106061      -0.00003131
C        4.95608045       4.31119142       3.30863372       0.00137164       0.00242147       0.00587314
C        3.73151825       6.38022107       4.03063146      -0.01333051       0.00019470      -0.00703576
C        2.46427316       8.55398430       3.98350803       0.00107370      -0.00603297       0.00329805
C        9.86832270      -0.00778461       3.81468162      -0.00388055       0.00359214       0.00201636
C        8.63590016       2.12613039       3.61110154      -0.00494235       0.01074547       0.00659808
C        7.39428789       4.26378666       3.50632506       0.00518621      -0.00137156      -0.00904834
C        6.16641029       6.40269890       3.66853814       0.00080735      -0.00043862       0.00275208
C        4.92980531       8.52421447       3.87356851      -0.00673890      -0.00127571       0.01217217
C        0.00624399       1.39948485       3.91801648       0.00293324       0.00353631      -0.00417397
C       -1.24417768       3.54260851       3.74569094      -0.00689865       0.00725536      -0.00018292
C       -2.48249878       5.68487734       3.63804487      -0.00221388      -0.00255739       0.00297430
C       -3.70726504       7.81204907       3.69139374       0.00336118       0.00195603       0.00193828
C       -4.94211960       9.93257916       3.80848212       0.00475564       0.00137671       0.00174701
C        2.48102591       1.34715105       3.71003921      -0.00184613      -0.01206065      -0.00228140
P        1.52149869       3.72456581       4.31819656       0.00733581      -0.00002143       0.00386517
C       -0.05936545       5.70567891       3.90199682       0.00515652       0.00072524       0.00149828
C       -1.24150866       7.83361690       3.76233480       0.00164751      -0.00220939       0.00404335
C       -2.46200833       9.93782236       3.67156530       0.00252038      -0.00224890      -0.00414360
C        4.92920647       1.40330558       3.42960850      -0.00427139      -0.00664186       0.00324581
S        3.49421464       3.62469774       2.66992887       0.00019106       0.00219112      -0.00348493
C        1.23266664       7.88789206       4.04176520       0.00138772       0.00091056      -0.00276589
C       -0.00019355       9.96792948       3.70464422       0.00233438      -0.00495121       0.00232331
C        7.39252343       1.42180290       3.55764378      -0.00109264       0.00245946       0.00018441
C        6.15214249       3.55342720       3.37945646       0.00356435       0.00319207      -0.00511632
C        4.92541581       5.69162678       3.65657293      -0.00562802       0.00502803      -0.00001736
C        3.68953973       7.80565285       3.99062347      -0.00582338      -0.00166367       0.00760460
C        2.46663212       9.97572102       3.82695411       0.00158805      -0.00936740       0.00181461
C        9.87263965       1.41588770       3.74424696      -0.00541923       0.00879087      -0.00234417
C        8.62977278       3.54948556       3.56756813      -0.00109441       0.00509375       0.00644827
C        7.39132230       5.68434567       3.58536005       0.00414040      -0.00484732      -0.00702614
C        6.16128298       7.81637512       3.78456497      -0.00118384       0.00289303      -0.00019950
C        4.92928093       9.94879172       3.86230385      -0.00200757       0.00024700      -0.00492606
Rh       2.59206252       5.36227061       5.26703411       0.00012601       0.00720628       0.00115673
