49
Lattice="12.336457 0.0 0.0 -6.168228499999997 10.683685154694365 0.0 0.0 0.0 15.0" Properties=species:S:1:pos:R:3:forces:R:3 energy=-433.3175439901244 free_energy=-433.3175439901244 stress="-0.004575803518022698 -0.0019038700903047693 6.981878977782405e-06 -0.0019038700903047693 -0.004726883075391913 -1.3624817955952348e-06 6.981878977782405e-06 -1.3624817955952348e-06 2.558175573796078e-06" pbc="T T T"
C       -0.00448646      -0.02099502       3.65413605       0.00871212      -0.00135157       0.00489421
C       -1.25554268       2.10879438       3.77719469      -0.00094474       0.00958755      -0.00240997
C       -2.47844828       4.25699638       3.47912312      -0.00514758      -0.01145464       0.00458264
C       -3.68993398       6.40308319       3.31466253      -0.00804492      -0.00536191      -0.00213193
C       -4.92170981       8.54774719       3.41071359      -0.00158085      -0.00238991      -0.00273248
C        2.46479367      -0.02892818       3.70404785       0.00026785      -0.00042887       0.00321254
C        1.20176107       2.01710838       4.27392547      -0.00522803       0.00035396      -0.00078123
C       -0.14510421       4.29106447       4.13516062       0.00860049      -0.00312682       0.00374259
C       -1.24278002       6.39867364       3.56960054       0.00628713      -0.00722803      -0.00586312
C       -2.45712265       8.53709497       3.45960619       0.00386475       0.00709055       0.00431610
C        4.93802717      -0.01834775       3.64453882      -0.00000816      -0.00305103       0.00495608
C        3.70052765       2.03621089       4.11977710      -0.00345567      -0.00207784       0.00136291
B        1.24939465       6.38234556       4.19510483       0.00025836       0.01601691      -0.00192696
C        0.00541255       8.53302382       3.66214730       0.00393883       0.01277096      -0.00107072
C        7.40264869      -0.01403278       3.59984312       0.00092473       0.00577522       0.00338826
C        6.16510377       2.12530656       3.64791290      -0.00383586      -0.00349673      -0.00926571
C        5.03809128       4.33169340       3.78588280       0.01019463       0.00120835      -0.00482625
C        3.79840096       6.42899671       4.06503588       0.00542213       0.00522142      -0.00949562
C        2.47304312       8.54027590       3.79499976      -0.00358344      -0.00928980      -0.00445026
C        9.86529009      -0.01820231       3.60452494       0.00079341      -0.00215092       0.00119091
C        8.63040621       2.12029582       3.50323601      -0.00016861      -0.00190668      -0.00777431
C        7.41276897       4.26597576       3.37616752       0.00113400      -0.00225337       0.00631772
C        6.19451381       6.43007756       3.40451533      -0.00792351       0.00506641      -0.01309688
C        4.94292562       8.53401815       3.58656724      -0.00101222       0.00159201       0.00036226
C       -0.01771942       1.38719532       3.90119507       0.00128135       0.00429752       0.00514527
C       -1.28444045       3.53434442       3.77712611      -0.00286910       0.00517727       0.00184154
C       -2.46727434       5.68357702       3.41158388      -0.00466408      -0.01123306      -0.00372748
C       -3.69011357       7.83043017       3.36432386       0.00189977       0.00248134      -0.00736591
C       -4.93316016       9.95843673       3.57200283       0.00298962      -0.00452725       0.00645255
C        2.44735239       1.35362731       4.05074169      -0.00176500      -0.00489917       0.00066631
P        1.06193084       3.55674081       5.19968451      -0.01444500      -0.00816551       0.00635518
C       -0.07175875       5.66995204       3.91091591       0.01324185      -0.00934654      -0.00244569
C       -1.22805250       7.82307007       3.54372928       0.00746977       0.00467014       0.00408387
C       -2.46508409       9.95607648       3.58714769       0.00075573       0.00466777       0.00191186
C        4.94034543       1.40044185       3.79567609      -0.00438050      -0.00847756       0.00268408
P        3.70958496       3.67713696       4.64833186      -0.00446770       0.01008260      -0.01582779
C        1.24618245       7.85810137       3.86159519      -0.00561401       0.00340655      -0.00294755
C        0.00212448       9.95699317       3.60919067       0.00455749       0.00874877       0.00448183
C        7.39542558       1.41216669       3.55438904      -0.00407974       0.00497454      -0.00203220
C        6.19483192       3.55228382       3.56884176       0.00434385       0.00117445      -0.00409537
C        4.98474943       5.74322929       3.70005538       0.00759631       0.00075998      -0.00337337
C        3.71336792       7.81624638       3.81569612      -0.00064910       0.00220452       0.00662560
C        2.46885857       9.95856505       3.64018003      -0.00258419      -0.00685663       0.00808929
C        9.86262070       1.40576948       3.59733658       0.00247148       0.00405055       0.00499321
C        8.63366555       3.54523957       3.40930708      -0.00165817      -0.00819385       0.00253885
C        7.41235705       5.69504601       3.31790459      -0.01115403      -0.00215648       0.00534750
C        6.18137682       7.84381354       3.43444707      -0.00549283       0.00246835      -0.00165625
C        4.93334533       9.95200639       3.59012877       0.00720934      -0.00064499       0.00885245
Rh       2.55889596       5.41978252       5.32476433       0.00054207      -0.00377852       0.00090143
