49
Lattice="12.336457 0.0 0.0 -6.168228499999997 10.683685154694365 0.0 0.0 0.0 15.0" Properties=species:S:1:pos:R:3:forces:R:3 energy=-443.0721405462384 free_energy=-443.0721405462384 stress="-0.013018306227426238 -0.0008460602721695091 3.954552249201867e-08 -0.0008460602721695091 0.0014597568605343493 -4.0475602045593184e-07 3.954552249201867e-08 -4.0475602045593184e-07 1.1103912689314168e-06" pbc="T T T"
C       -0.00123930       0.01186549       3.74857620       0.00010845       0.00852384       0.00620490
C       -1.26090403       2.10713036       3.73585510      -0.01233847      -0.00661076      -0.00346371
C       -2.49442679       4.26380879       3.72338151      -0.00256143      -0.01399081      -0.00395407
C       -3.69756032       6.42555321       3.73239376       0.00240821       0.00833483      -0.00560302
C       -4.91888005       8.58212430       3.74661510       0.00027254       0.00940795      -0.00057373
C        2.46338239       0.06674030       3.75773061       0.00273903      -0.00551429      -0.01443126
C        1.19809289       2.19633111       3.76687188       0.00127900      -0.00287571      -0.00574667
C       -0.08510977       4.24140801       3.74392369       0.00377313       0.00114999      -0.00014379
C       -1.28320462       6.42783226       3.72784458      -0.00520701      -0.00205384       0.00209140
C       -2.47777106       8.58345187       3.73509939      -0.00888466       0.00435915       0.01420252
C        4.93682183       0.01336316       3.74763589      -0.00158419       0.00629105       0.01552162
C        3.71040919       2.19702202       3.77828609      -0.00796804       0.00130690      -0.01022494
C        1.11860698       6.37961213       3.77456086       0.00560411       0.00004121      -0.00058088
C       -0.01434856       8.53364751       3.74793249      -0.00046633      -0.01038105       0.01179754
C        7.41056825      -0.04708946       3.75040888       0.00228693       0.00896175       0.00747745
C        6.19154449       2.11240633       3.75237763       0.01417159      -0.00239632       0.00945483
C        5.00493532       4.27795583       3.78019646      -0.01400574      -0.00094703      -0.00572727
N        3.85654237       6.40621720       3.79564040       0.00950664       0.00803987      -0.00419130
C        2.47862806       8.46730834       3.77389772       0.00172498       0.00232478      -0.00350736
C        9.86202414      -0.04683915       3.75040625       0.00325815       0.00102318       0.00283676
C        8.63299289       2.10397488       3.73866511       0.00657013      -0.00285806      -0.01183306
C        7.42421499       4.26532010       3.74118114       0.00528780       0.00114024       0.00785914
C        6.22575057       6.44010230       3.75856518      -0.00201002      -0.00153852       0.00260277
C        4.95601444       8.53310901       3.76309714       0.00564413      -0.00512621       0.00618104
C       -0.02036672       1.43165921       3.74788557      -0.00514659       0.00302510       0.00923278
C       -1.29323569       3.52322819       3.72681511       0.00068863      -0.00553504       0.00450615
C       -2.48855224       5.69914639       3.72279784      -0.00373330      -0.00889134       0.00514845
C       -3.69721022       7.86031634       3.73797442      -0.00302060       0.00680187      -0.01062758
C       -4.92696176      10.01096813       3.74987563       0.00393956       0.00373668       0.00993755
C        2.45441703       1.49711270       3.77223429      -0.00079014      -0.00823560      -0.00929571
N        1.07547111       3.56246192       3.77379964      -0.00607745      -0.01041138       0.00074911
C       -0.07638979       5.68118503       3.74466798       0.00770338       0.00579364       0.00233452
C       -1.25485955       7.85278608       3.73443848      -0.00931098       0.00201173      -0.00308512
C       -2.47515388      10.01176967       3.74670783      -0.00070422      -0.00001883       0.00086881
C        4.95072768       1.43134360       3.75950997       0.00270644       0.00950241       0.00529683
C        3.82858558       3.57868544       3.79332251      -0.01664150       0.00347075       0.00410631
C        1.22464349       7.77596589       3.76864382       0.00861187      -0.00524009      -0.01185513
C       -0.00118854       9.95216731       3.74735831      -0.00043092      -0.00488719       0.00131302
C        7.41425003       1.38087548       3.74583986       0.01688913       0.00085778      -0.00118571
C        6.22183579       3.53596433       3.75802708       0.00114228       0.00129195      -0.00499880
C        5.01635258       5.72282722       3.77992365      -0.00588674       0.00067947       0.00410972
C        3.73741001       7.76959049       3.78093577       0.00038618      -0.00162816      -0.00828584
C        2.47152767       9.89931898       3.75989580       0.00094828       0.00730658      -0.01235477
C        9.85465599       1.38150704       3.73848731      -0.00696127      -0.00087514       0.00606250
C        8.63272395       3.53890219       3.73114518      -0.00000196      -0.01028260       0.00067504
C        7.42875026       5.70167021       3.74289534      -0.00076974       0.00578520      -0.00485183
C        6.19627337       7.85636391       3.75571121       0.00421971      -0.00131755       0.00180239
C        4.93645764       9.95255115       3.75216167       0.00143711      -0.00143936       0.00618722
Rh       2.43014521       5.02782631       3.81252222       0.00119392       0.00188697      -0.01203883
