49
Lattice="12.336457 0.0 0.0 -6.168228499999997 10.683685154694365 0.0 0.0 0.0 15.0" Properties=species:S:1:pos:R:3:forces:R:3 energy=-437.25649123733876 free_energy=-437.25649123733876 stress="-0.00960485834615841 -3.77439927571064e-06 2.776717540962941e-07 -3.77439927571064e-06 0.004803530844467521 4.814629734799955e-08 2.776717540962941e-07 4.814629734799955e-08 1.121061703663315e-06" pbc="T T T"
C        0.00341254       0.02045615       3.75600720       0.00602498      -0.00660004       0.00505574
C       -1.25750772       2.11190139       3.73997881       0.01503035       0.00188353       0.01105345
C       -2.50413068       4.26539349       3.72355520      -0.00507315       0.00511014       0.01242425
C       -3.71217970       6.42413189       3.73179079      -0.00875551      -0.00201236      -0.00024776
C       -4.92754529       8.58114030       3.74973762       0.00628861      -0.00608225       0.00117321
C        2.47885630       0.07137841       3.75877786      -0.01285987       0.00209352       0.00218848
C        1.22993173       2.20075441       3.77408177      -0.01244528      -0.00250060      -0.00249623
C       -0.10099093       4.27725551       3.75863111      -0.00711032      -0.00507820       0.00046541
C       -1.29734526       6.43430667       3.73214147       0.00049386       0.00085250       0.00482879
C       -2.47880378       8.58136014       3.73778849       0.00481875       0.00190575      -0.00104402
C        4.94012872       0.00938471       3.75295899       0.00572558      -0.00567369       0.00488184
C        3.74161924       2.16130856       3.76857543      -0.00155450      -0.00953950      -0.00556272
C        1.13285239       6.34823430       3.78781998      -0.00379256      -0.00075902      -0.00474556
C       -0.00196761       8.52148022       3.75595487       0.00193004       0.00972765      -0.00494257
C        7.41684760      -0.05138281       3.75576018      -0.00176271      -0.00278830      -0.00703552
C        6.19335427       2.11303463       3.75524038      -0.00078271       0.00569174      -0.00061520
C        5.02385707       4.27479169       3.75938930       0.00818633       0.00150988      -0.00386144
O        3.82110154       6.40947113       3.75209387       0.00232423       0.00044068      -0.00880427
C        2.49419166       8.45267409       3.77386387      -0.01204602      -0.00241174      -0.01396207
C        9.86552827      -0.04791689       3.75013534      -0.00378240      -0.00315466       0.00930570
C        8.63455102       2.10573611       3.73801783      -0.00010983      -0.00250035       0.00340298
C        7.40947055       4.27100973       3.74474779      -0.00214005       0.00065250      -0.00640123
C        6.20208631       6.42796130       3.75681399       0.00664730       0.00233818      -0.00197110
C        4.94869631       8.52938585       3.76292565       0.00363581       0.00683763       0.00058173
C       -0.00215272       1.44497398       3.75762431       0.00402189      -0.00871941      -0.00568675
C       -1.29714969       3.53197979       3.73392279      -0.00372267       0.00062753      -0.00000893
C       -2.50413619       5.70053418       3.72354786      -0.00711605       0.00757296       0.00467906
C       -3.70203704       7.86104239       3.73670189       0.00263047      -0.00358324       0.00870986
C       -4.91956535      10.01830243       3.75648328      -0.00450156      -0.00828103      -0.00644574
C        2.49430302       1.51381411       3.77172607      -0.01354122       0.00348847      -0.00865049
C        1.13289611       3.61806901       3.78729068      -0.00613739       0.00232958      -0.00795463
C       -0.10112030       5.68941900       3.75833517      -0.00421040      -0.00402552      -0.00253304
C       -1.25721463       7.85437259       3.73738297       0.00691029       0.00210897       0.01521883
C       -2.47075177      10.01425764       3.74849893      -0.00432998       0.00600999       0.00810479
C        4.94872776       1.43715840       3.76045103       0.00380708      -0.00431667       0.00364466
O        3.82053293       3.55713599       3.73738036       0.01543172      -0.00388772      -0.00834502
C        1.22997186       7.76554429       3.77521871      -0.01149874       0.00600930      -0.00683758
C        0.00348716       9.94619889       3.75335493       0.00627836       0.00389260       0.01196208
C        7.40933729       1.38565319       3.74895640      -0.00569074      -0.00064915       0.00129771
C        6.20206189       3.53832582       3.75648419       0.00303382       0.00169894      -0.00212911
C        5.02406478       5.69139823       3.76032911       0.00853727       0.00048678       0.00176131
C        3.74168068       7.80541971       3.77049109      -0.00281616       0.00593655       0.00257367
C        2.47858115       9.89515545       3.76015915      -0.00843619      -0.00394573      -0.00053047
C        9.85739824       1.38503937       3.73931978       0.01166718      -0.00191913       0.00325393
C        8.62407991       3.54240571       3.73243738      -0.00407462       0.00209924      -0.00046164
C        7.40958001       5.69560105       3.74446729      -0.00096488      -0.00343891      -0.00604386
C        6.19308877       7.85324798       3.75782209       0.00641182       0.00240458      -0.00730403
C        4.94007948       9.95713953       3.75513776       0.00507498       0.00635821       0.00768257
Rh       2.36563544       4.98310941       3.81440854       0.01434475       0.00179980       0.00037096
