49
Lattice="12.336457 0.0 0.0 -6.168228499999997 10.683685154694365 0.0 0.0 0.0 15.0" Properties=species:S:1:pos:R:3:forces:R:3 energy=-432.6533756095654 free_energy=-432.6533756095654 stress="-0.003984748885491666 0.003013101235061877 7.086622756017731e-06 0.003013101235061877 0.0033721201377169678 1.9840829574091746e-06 7.086622756017731e-06 1.9840829574091746e-06 5.222754588403469e-07" pbc="T T T"
C        0.00368983      -0.00276038       3.75071092       0.00134072      -0.00109145       0.00192399
C       -1.22777564       2.13733282       3.55619284       0.00424469       0.00510784      -0.00218728
C       -2.46486119       4.28044718       3.75444979       0.00536519      -0.00543245      -0.00644574
C       -3.70586573       6.41636446       3.97240754      -0.00329429       0.00007650       0.00072238
C       -4.93339879       8.56330060       3.96577053      -0.00359501      -0.00821274      -0.00249579
C        2.47674383       0.03786261       3.84053223      -0.00103696      -0.00165803      -0.00286100
C        1.25858605       2.09656719       3.34277809      -0.00378135       0.00529542       0.01108124
C       -0.09402848       4.37131715       3.19580207       0.00545476       0.00451684      -0.00212385
C       -1.29194184       6.45425496       3.68825603       0.00616620       0.00275538      -0.00207184
C       -2.47865624       8.56995648       3.91063430      -0.00601150      -0.00031114       0.00258240
C        4.93870280       0.00595652       3.86904455       0.00821437       0.00919423       0.00230346
C        3.75228441       2.13627014       3.77917529       0.00005535       0.00052824      -0.00250722
O        1.05586652       6.48983663       3.19484935      -0.00367096      -0.00747849      -0.01026768
C       -0.01848993       8.54456129       3.76161175      -0.00037635       0.00207019      -0.00264013
C        7.41769576      -0.03590179       3.81329100      -0.00665246       0.00270013      -0.00097686
C        6.20576251       2.11099825       3.93613838       0.00573693      -0.00609022      -0.00003031
C        5.01981760       4.24275717       4.04548893      -0.00843538       0.00008457       0.00299678
C        3.77788292       6.37585342       3.94121395       0.00715040      -0.00350486       0.01777829
C        2.43814302       8.46827177       3.73077846      -0.00754334       0.00291279      -0.00133704
C        9.86933809      -0.03427491       3.74796317       0.00381148       0.00192166       0.00994973
C        8.65837573       2.11997195       3.81848085      -0.00392987      -0.01211925       0.00597524
C        7.43058514       4.26201245       4.00434238      -0.00885488       0.00685997       0.00436547
C        6.19339875       6.40346922       4.07269660      -0.00195955       0.00934228       0.00079131
C        4.93179759       8.52377501       3.89448343       0.01184178      -0.00913266      -0.00036624
C        0.01344052       1.41925612       3.53932009      -0.00070145       0.00450061       0.00476357
C       -1.25316480       3.57659164       3.50168853       0.00724638      -0.00014751      -0.00926025
C       -2.49168255       5.70388959       3.82546650       0.00515146       0.00032583       0.00251028
C       -3.70927927       7.84828520       3.96945386      -0.00648279      -0.00627952      -0.00230447
C       -4.92742397       9.99174293       3.86078202      -0.00263801      -0.01134366       0.00334152
C        2.50020664       1.47109553       3.66409230      -0.00104390       0.00085337      -0.00612436
P        1.22144075       3.55082559       2.28174485       0.00276599       0.00280327       0.00629096
C       -0.14237050       5.77075877       3.32780314       0.00201158       0.00089664      -0.00248959
C       -1.26586856       7.86576249       3.80220228      -0.00174369       0.00523507      -0.00623152
C       -2.47173758      10.00251126       3.89403604       0.00400363       0.00690186      -0.00036341
C        4.95560659       1.43167343       3.87520813       0.00551426       0.00716392       0.00222956
O        3.82493036       3.53512818       3.89804166      -0.00811069       0.00175071       0.01775440
C        1.18300099       7.83075940       3.62793255      -0.00650228      -0.01439491      -0.00611108
C        0.00465087       9.96442923       3.83373675       0.00008644       0.00564880      -0.00939715
C        7.42477416       1.40094475       3.86843872      -0.00305431      -0.01316916      -0.00138141
C        6.21149096       3.52798883       4.02703494      -0.00732775      -0.00358174      -0.00531119
C        4.96549967       5.65425187       4.05779297       0.00821105       0.00427198      -0.00119351
C        3.69252682       7.76329435       3.85037216       0.00418000      -0.00202215      -0.00349286
C        2.46683550       9.91159830       3.76451476      -0.00590424       0.00927611      -0.00138525
C        9.88551201       1.40554653       3.70819715       0.00372313       0.00348837       0.00535529
C        8.65512314       3.55117895       3.87547338      -0.00319778      -0.00515120      -0.00025645
C        7.41048874       5.68826320       4.04188321      -0.01211642       0.01245503      -0.00616352
C        6.17214715       7.83143519       3.99420791       0.00617658      -0.00188965      -0.00474593
C        4.93737185       9.94908963       3.79522338       0.00534336      -0.00504015      -0.00146853
Rh       2.40022109       4.99404796       3.48297984       0.00416949      -0.00088670       0.00127559
