49
Lattice="12.336457 0.0 0.0 -6.168228499999997 10.683685154694365 0.0 0.0 0.0 15.0" Properties=species:S:1:pos:R:3:forces:R:3 energy=-437.6443225890894 free_energy=-437.6443225890894 stress="-0.007430053782590196 -1.9157729337794802e-05 -7.716687191528097e-07 -1.9157729337794802e-05 0.0023055545900927846 -6.32588649198309e-07 -7.716687191528097e-07 -6.32588649198309e-07 8.34365868645736e-08" pbc="T T T"
C       -0.00461416       0.00658634       3.75035807      -0.01133050       0.00066087       0.00781410
C       -1.25259617       2.12344212       3.73797806       0.00575192       0.00422772      -0.00167338
C       -2.47929575       4.27230411       3.72172361       0.00683643       0.01181822       0.00263982
C       -3.70109470       6.41950963       3.73600517       0.00065965      -0.01150869      -0.01408472
C       -4.93177381       8.57007980       3.74692244       0.00294552      -0.00293602      -0.00033336
C        2.46696726       0.03578141       3.76113911      -0.00097817       0.00261494       0.00033128
C        1.22216715       2.16737689       3.77827272       0.00225257      -0.00320216      -0.00062719
C       -0.05353697       4.30323620       3.73607999      -0.00197789      -0.01354114       0.00310092
C       -1.27346930       6.43657237       3.71666647      -0.00071881       0.00914018      -0.00072214
C       -2.47046573       8.57006985       3.73843760      -0.00377610      -0.00051676       0.00175885
C        4.93831364       0.00711226       3.75072044       0.01198741      -0.00352135       0.01210335
C        3.71106846       2.16768436       3.79051593      -0.00236412       0.00108044      -0.00754453
O        1.10164545       6.40833545       3.72335595      -0.01887010      -0.00250165       0.00189662
C        0.00002884       8.52681495       3.74816501       0.00120895      -0.00310593      -0.00190603
C        7.41137008      -0.04061010       3.75282012      -0.00009035      -0.00630108      -0.00262596
C        6.18605468       2.12390427       3.75044122      -0.00391439       0.00022989       0.00535169
C        4.98716167       4.30344094       3.77076920       0.00405683      -0.01427151      -0.00428173
O        3.83358699       6.40843004       3.78052786       0.01642238       0.00094607       0.00770480
C        2.46692220       8.45021865       3.77071327      -0.00007820       0.00519284      -0.01101324
C        9.85855994      -0.04069523       3.75106973       0.00131355      -0.00615786      -0.00078898
C        8.63495586       2.11500787       3.73661464      -0.00001376       0.00598988       0.00099511
C        7.41311468       4.27233064       3.73610248      -0.00860941       0.01406508      -0.00520077
C        6.20790530       6.43673956       3.74288646      -0.00092742       0.00816619       0.00155738
C        4.93394444       8.52693089       3.75743179      -0.00112577      -0.00432435       0.00189653
C       -0.01603252       1.42822198       3.75261543       0.00050378       0.00487190       0.00733576
C       -1.26218680       3.55350122       3.72494957      -0.00162417      -0.00099346      -0.00237644
C       -2.48442273       5.69859242       3.72419554       0.00749613       0.00554151      -0.00778894
C       -3.70109605       7.85289286       3.74105670      -0.00017778      -0.01211916      -0.00889957
C       -4.93017633       9.99857586       3.75272986      -0.00883971       0.00405041       0.00255917
C        2.46669859       1.47030835       3.78292433       0.00153856       0.00128269      -0.00068954
C        1.17417582       3.58192107       3.79694845       0.00548618      -0.00038674      -0.00748658
C       -0.09476724       5.71352575       3.71482208      -0.01345157      -0.01026251       0.00383956
C       -1.25218508       7.85418723       3.73071740      -0.00183620       0.00656727       0.00577905
C       -2.47222888       9.99873906       3.74942355       0.00506493       0.00201927       0.00800258
C        4.94947781       1.42888394       3.76287174      -0.00099221      -0.00222031       0.00481700
C        3.75853916       3.58223742       3.81894686      -0.00293043       0.00297363      -0.00238852
C        1.19866512       7.80649266       3.76364168      -0.00134943      -0.00028244      -0.00479569
C        0.00191043       9.95648347       3.74959102       0.00845335      -0.01028789       0.00840276
C        7.41194844       1.39555944       3.74560874      -0.00455301      -0.00125486      -0.00193173
C        6.19577602       3.55386658       3.74726270       0.00210542      -0.00263549       0.00492536
C        5.02930395       5.71360116       3.75587727       0.01183269      -0.01050070       0.00224183
C        3.73540185       7.80670748       3.77364958      -0.00008478       0.00124649       0.00022133
C        2.46679836       9.90117616       3.75966392      -0.00110819       0.00134476      -0.00772786
C        9.85790295       1.39545432       3.73996283       0.00601821      -0.00386416       0.00042876
C        8.63512405       3.54838471       3.72955609      -0.00235812       0.01880422      -0.00095120
C        7.41862505       5.69855976       3.73811535      -0.00589988       0.00863813      -0.00408942
C        6.18636279       7.85432978       3.74893465       0.00150214       0.00412243      -0.00605462
C        4.93160698       9.95640351       3.75102829      -0.00358189      -0.01168932       0.00706810
Rh       2.46525151       4.85933968       3.91390858       0.00012577       0.01279049       0.00321040
