50
Lattice="12.336457 0.0 0.0 -6.168228499999997 10.683685154694365 0.0 0.0 0.0 15.0" Properties=species:S:1:pos:R:3:forces:R:3 energy=-442.9972000228655 free_energy=-442.9972000228655 stress="0.0003228534749237375 0.0030275273998170526 7.268740293509807e-07 0.0030275273998170526 -0.003556485055731327 8.93968774367939e-06 7.268740293509807e-07 8.93968774367939e-06 1.2429624619134908e-06" pbc="T T T"
C       -0.01359804      -0.02664954       3.90972522       0.00423584       0.00026341      -0.00215450
C       -1.22464408       2.12597757       3.95421987      -0.00514079       0.00227033      -0.00048195
C       -2.46309623       4.25055082       3.93969740       0.00566664      -0.00071506       0.00128033
C       -3.73978326       6.36944819       3.88563708       0.00146415       0.00060330      -0.00289142
C       -4.98776787       8.49566995       3.84457513      -0.00286088      -0.00014346       0.00182916
C        2.43993460      -0.05801468       4.02523880       0.00447221      -0.00053102       0.00120338
C        1.23952794       2.11165551       3.94580943      -0.00523603      -0.00048666       0.00181332
C        0.01127720       4.26517038       3.66452135       0.00132481      -0.00675493      -0.00118356
C       -1.27372579       6.38668893       3.61630087      -0.00205185      -0.00279194      -0.00128782
C       -2.49578099       8.50234801       3.84622920      -0.00441483      -0.00070902       0.00980805
C        4.91462652      -0.04763124       4.07123018      -0.00412971       0.00015205      -0.00778806
C        3.68754477       2.05420556       4.17920796       0.00009152      -0.00252467       0.00169648
C        2.53402234       4.16315154       3.75811189      -0.00417413       0.00400952       0.00076982
S        1.07184978       6.43686209       2.33270412       0.01692444      -0.01049352       0.00019517
C       -0.04561463       8.56089254       3.57470633      -0.00518166       0.00683665       0.00002557
C        7.38192795      -0.01410719       3.95028557      -0.00319777       0.00726240      -0.00509655
C        6.16996469       2.08618458       4.22240617      -0.00002505      -0.00248028       0.00383198
C        4.95194725       4.18616466       4.08774438      -0.00233956      -0.00142473      -0.00535267
S        3.84110381       7.28983728       1.34253658      -0.00721808       0.01305588       0.00142192
C        2.40831414       8.65643013       3.25946332       0.00201331      -0.00715076       0.00318400
C        9.86163731       0.00278860       3.83982173       0.00207968      -0.00149419      -0.00049782
C        8.63899312       2.11379958       4.08803242       0.00465254       0.00087061       0.00078749
C        7.40536262       4.23854634       4.09843544       0.00167555       0.00033932      -0.00482576
C        6.10656916       6.34907631       3.80024225      -0.00004542       0.00532720       0.00219162
C        4.91120597       8.54650267       3.53821756       0.00199239       0.00178921      -0.00245636
C        0.00311475       1.40499521       3.94285004      -0.00707304       0.00190143      -0.00117924
C       -1.21970730       3.55046746       3.88317397       0.00277948      -0.00074102       0.00301200
C       -2.49154620       5.66808688       3.84215719       0.00150318      -0.00198807       0.00421428
C       -3.74563098       7.79120954       3.85805974      -0.00366458       0.00045894      -0.00297998
C       -4.96669851       9.92264572       3.92424206       0.00535416      -0.00110172       0.00106449
C        2.44819834       1.36854793       4.07131396      -0.00131735       0.00086021      -0.00074567
C        1.27195107       3.55411233       3.77140115      -0.00210040      -0.00575083      -0.00692630
C       -0.09060045       5.63979128       3.35281282      -0.00626102      -0.01049796       0.00022505
C       -1.26710338       7.81164078       3.64543181      -0.00528340       0.00128509       0.00237783
C       -2.49254261       9.92323764       3.99468698       0.00013172      -0.00167803      -0.00517133
C        4.92684355       1.36569030       4.20177371       0.00007716      -0.00423665       0.00614769
C        3.71016803       3.47302428       4.07214034      -0.00211700      -0.00309071       0.00079964
C        1.17464460       7.99569339       3.13282881       0.00230583       0.00689006      -0.00454040
C       -0.02215984       9.95345240       3.89845884      -0.00473551       0.00723255      -0.00247899
C        7.40219908       1.39221930       4.12913984       0.00272614       0.00371998      -0.00097724
C        6.19293068       3.50368448       4.20413963      -0.00171419      -0.00096518       0.00002457
C        4.95073406       5.55190646       3.79339104       0.01272815      -0.00616976       0.00180268
C        3.68250536       8.01321570       2.91802094      -0.00227779      -0.00655471      -0.00158603
C        2.44483846       9.99828176       3.71939236      -0.00093745       0.00076679       0.00347228
C        9.87436099       1.41410584       3.98714189       0.00068292      -0.00320346       0.00515766
C        8.64547492       3.53439088       4.07642940       0.00652610       0.00080774       0.00127726
C        7.37084583       5.65269585       3.94626996       0.00248575       0.00298862      -0.00058229
C        6.09841618       7.79177514       3.70393650      -0.00438660       0.00383037       0.00097299
C        4.91879759       9.95437534       3.77290466       0.00429730      -0.00070922      -0.00144937
Rh       3.16644667       5.89991148       3.09346137      -0.00030689       0.01086590       0.00204660
