49
Lattice="12.336457 0.0 0.0 -6.168228499999997 10.683685154694365 0.0 0.0 0.0 15.0" Properties=species:S:1:pos:R:3:forces:R:3 energy=-434.22516692308034 free_energy=-434.22516692308034 stress="-0.008143965303094712 0.003292252412930504 -8.097104004059231e-07 0.003292252412930504 -0.0015102037020941286 -1.2720063548271418e-07 -8.097104004059231e-07 -1.2720063548271418e-07 4.699455707396068e-06" pbc="T T T"
C       -0.00004888       0.00380866       3.69199835       0.00092193       0.00192303       0.00195831
C       -1.22888826       2.13833972       3.66259985      -0.00245186      -0.00090481      -0.00322985
C       -2.47168270       4.27871316       3.91863969      -0.00889907       0.00979480      -0.00739186
C       -3.72609787       6.41960533       3.99420836      -0.00679086       0.00537912      -0.00186414
C       -4.95446883       8.55365372       3.82175341      -0.00146562       0.00525620       0.00856986
C        2.46245532       0.03016970       3.84189767       0.00821109       0.00323797       0.00955653
C        1.25922236       2.10981350       3.41630319       0.00203086       0.00738763      -0.00281058
C       -0.10827499       4.36027298       3.44153285       0.01263908      -0.00690587       0.01259611
C       -1.30670233       6.45893278       3.91937796       0.00021111      -0.00147189      -0.00373368
C       -2.49958788       8.57640927       4.00071397      -0.00186092      -0.00985732      -0.00491659
C        4.93459833       0.00516914       3.98211545       0.00318627      -0.00623946       0.00770265
C        3.74324415       2.16898834       3.80749909       0.00303746      -0.00718280      -0.00789201
N        1.07916014       6.42984747       3.72701768       0.00859665       0.00690127      -0.00155801
C       -0.02492519       8.54442755       3.93588110      -0.00473858       0.00450518      -0.00790506
C        7.41749028      -0.03222345       3.95706095      -0.00162097       0.00400761       0.00977685
C        6.20520882       2.09932375       4.00852320       0.00423452       0.00720059      -0.01010499
C        5.04246404       4.19967328       3.71128364      -0.00895205       0.00085166      -0.00071753
P        3.67012057       6.28117816       2.53214915       0.01442769      -0.00947787       0.00440643
C        2.45516681       8.50591950       3.68489472      -0.00649368      -0.00172730      -0.00334302
C        9.87184105      -0.01958649       3.77814658      -0.00893767      -0.00452476       0.00338389
C        8.66103474       2.11675308       3.95622307       0.00292501      -0.00175942      -0.00007728
C        7.43580930       4.25907779       3.99430736       0.00852910      -0.00583608       0.00770818
C        6.18742157       6.39429806       3.70418966       0.01223643      -0.00929696      -0.00514494
C        4.92531575       8.53455917       3.58289630      -0.00133509      -0.00470216      -0.00380028
C        0.00888214       1.43253305       3.57875482       0.00230600       0.00093562      -0.00275056
C       -1.25531059       3.57302106       3.68094940      -0.00924585       0.00428293      -0.00036912
C       -2.50207314       5.70747342       3.97804886      -0.00795680       0.01012479       0.00845172
C       -3.72685472       7.84994923       3.95630006      -0.00684109       0.00090972       0.00363586
C       -4.93810381       9.98664773       3.78447877       0.00739258       0.00599870      -0.00041571
C        2.47880473       1.46098371       3.69647497       0.00100289       0.00183551      -0.00177032
P        1.27232055       3.67938853       2.52354706      -0.01406084       0.00867798      -0.00170691
C       -0.11056887       5.76750597       3.67654809       0.00953550       0.00419496       0.00020568
C       -1.27149352       7.86701186       3.98905535      -0.00038559      -0.00396997      -0.01284943
C       -2.48358450       9.99899381       3.95953468       0.00324802      -0.00945984       0.01256101
C        4.95849457       1.42219328       3.95430389       0.00792907      -0.00533881      -0.01325416
N        3.85321993       3.53631011       3.75132510      -0.00962340      -0.00345353       0.00147444
C        1.18997588       7.79746797       3.78674043      -0.00502120       0.00702456      -0.00228348
C       -0.00074685       9.96137059       3.97679083       0.00136622       0.00148079       0.00994432
C        7.43380316       1.39024294       4.00739691       0.00194051       0.00430635      -0.00757068
C        6.23951647       3.50784883       3.94876532       0.00173177       0.00781316      -0.00586519
C        5.03883106       5.60636680       3.47242163      -0.00892422       0.00660758       0.00855972
C        3.67632105       7.85687287       3.41372366      -0.00554970      -0.00437042       0.00180425
C        2.47117043       9.93671422       3.83391503      -0.00881389      -0.00450413       0.00855987
C        9.88821421       1.41342528       3.81404998      -0.00123632      -0.00312976       0.00840220
C        8.66021827       3.54706035       3.99437589       0.00477338      -0.00386058       0.00012606
C        7.40499406       5.68807165       3.93379084       0.00741205      -0.01007334      -0.00641828
C        6.16223226       7.82874585       3.67552403       0.00438765      -0.00561282      -0.00576888
C        4.93424329       9.96346786       3.69089581      -0.00503568       0.00002558       0.00039593
Rh       2.46501098       4.98175799       3.80579491       0.00202812       0.00299660      -0.00426734
