49
Lattice="12.336457 0.0 0.0 -6.168228499999997 10.683685154694365 0.0 0.0 0.0 15.0" Properties=species:S:1:pos:R:3:forces:R:3 energy=-439.23563579457544 free_energy=-439.23563579457544 stress="-0.008076414517654833 0.000768775206613562 4.2708043503128974e-07 0.000768775206613562 0.006259466997468622 -1.4978323888931662e-07 4.2708043503128974e-07 -1.4978323888931662e-07 8.538872041014405e-07" pbc="T T T"
C        0.00201839       0.01804341       3.75284200       0.00235976       0.00668581       0.00148518
C       -1.25181290       2.11575946       3.74114130      -0.00606551      -0.00082818      -0.00279044
C       -2.48992073       4.26758401       3.72776591      -0.00134938      -0.00655921       0.00240925
C       -3.70569692       6.42355793       3.73484403       0.00094661       0.00077180      -0.00035481
C       -4.92643683       8.58066087       3.74995138      -0.00046077       0.00189076       0.00262004
C        2.47113584       0.07925188       3.75531126       0.00108990       0.00066300      -0.00953992
C        1.21068974       2.22226093       3.76242439       0.01046224       0.00954330      -0.00538054
C       -0.07476324       4.26363585       3.74979000       0.00614023       0.00461848      -0.00542611
C       -1.28185949       6.42908389       3.73234704       0.00292314       0.00282125       0.00487620
C       -2.47910478       8.57910202       3.73729963      -0.01022249      -0.00046202       0.01251151
C        4.93477033       0.00834600       3.74840166      -0.00278617      -0.00150912       0.01093643
C        3.74123860       2.15497806       3.76715955      -0.00065084       0.00739784      -0.00364436
N        1.09567192       6.38734540       3.77006871      -0.00110187      -0.00126555      -0.00513138
C       -0.01260803       8.52350924       3.75078492       0.00173749      -0.01415541       0.00516266
C        7.41132397      -0.05227056       3.75246525       0.00134689       0.01304132       0.00740657
C        6.19167630       2.10986844       3.75355294       0.00637840      -0.00589335       0.00284990
C        5.04004524       4.27036179       3.77348497      -0.00153594      -0.00191875      -0.00278748
N        3.81574195       6.37756540       3.78323816      -0.00201326      -0.00214538       0.00119449
C        2.46594217       8.44501929       3.77057807      -0.00427739       0.00104652      -0.00611512
C        9.86189913      -0.05078805       3.75175772       0.00617637       0.00547849       0.00531166
C        8.63595824       2.10526428       3.74122304       0.00709079      -0.00178082      -0.00446278
C        7.41905898       4.26802294       3.74479764       0.00129619      -0.00347333       0.00016642
C        6.20691774       6.42412512       3.76192884      -0.00983639      -0.00340741      -0.00386835
C        4.94328306       8.52250258       3.76522172      -0.00063804      -0.00821286       0.00247649
C       -0.00072238       1.44971731       3.75069686       0.00263631       0.00715882       0.00996871
C       -1.27956076       3.53614119       3.73491477       0.00440187       0.00118160       0.00380697
C       -2.49363803       5.69706046       3.72616061       0.00297190      -0.00287844       0.00933535
C       -3.70403495       7.85899024       3.73957294      -0.00337639      -0.00320668      -0.00260993
C       -4.92371412      10.01773548       3.75257083       0.00542480      -0.00120072       0.00513959
C        2.48440914       1.52900188       3.76428146       0.00474966       0.00060535      -0.00641116
N        1.10761349       3.59742030       3.76689547       0.00625787       0.00414257       0.00184407
C       -0.08356746       5.70348317       3.74973389       0.00311867       0.00439444      -0.00436733
C       -1.25721206       7.85178138       3.73770386      -0.00679839       0.00374831       0.00090141
C       -2.47707038      10.01734565       3.74692610      -0.00457597      -0.00238003      -0.00106375
C        4.94185960       1.43779286       3.75595168      -0.00203701       0.00291610       0.00345076
O        3.84048085       3.56567223       3.78968864      -0.01002409       0.00620340       0.00703173
C        1.20362267       7.76290045       3.76696041       0.00401185      -0.01072247      -0.01131987
C       -0.00010884       9.94990967       3.75040834       0.00175689      -0.00855396      -0.00131831
C        7.40695239       1.38528053       3.74880712       0.01086344       0.00524639      -0.00384691
C        6.20780375       3.53329498       3.75706863       0.00211738      -0.00573868      -0.00329862
C        5.00646293       5.68524585       3.77471090      -0.00795397      -0.00313973       0.00241201
C        3.72551696       7.75327248       3.77598732      -0.00667596      -0.00754756      -0.00893638
C        2.46839730       9.88950757       3.75932549       0.00200552       0.01047418      -0.00819427
C        9.86076401       1.38364587       3.74155896      -0.00125470       0.00509193       0.00881749
C        8.63202191       3.54113362       3.73475711       0.00122188      -0.00874745       0.00334038
C        7.41409741       5.69461033       3.74685451      -0.00844369       0.00057822      -0.00528004
C        6.18639292       7.84713861       3.76015046      -0.00125384      -0.00207738      -0.00355199
C        4.93623261       9.95116059       3.75548472       0.00041117      -0.00123521       0.00634882
Rh       2.44922565       5.06651624       3.78916835      -0.00656516       0.00333982      -0.01210426
