49
Lattice="12.336457 0.0 0.0 -6.168228499999997 10.683685154694365 0.0 0.0 0.0 15.0" Properties=species:S:1:pos:R:3:forces:R:3 energy=-430.6863824336894 free_energy=-430.6863824336894 stress="-0.00416382202323668 -0.0006108575618730109 8.251394602244837e-07 -0.0006108575618730109 0.0014302011834801686 1.885069204128903e-05 8.251394602244837e-07 1.885069204128903e-05 1.695128364122625e-06" pbc="T T T"
C       -0.00922309      -0.01347858       3.89171056       0.00256023       0.00025860      -0.00608339
C       -1.25588482       2.12008137       4.06450014      -0.00378273      -0.00358275       0.00452868
C       -2.49663970       4.26965349       3.89173743      -0.00080550       0.00399323       0.00235987
C       -3.70225947       6.41244023       3.68212195       0.00038404       0.01125584      -0.00276196
C       -4.93543252       8.55204899       3.69920108      -0.00017434       0.00265379       0.01248543
C        2.46745297      -0.01398247       3.79462258      -0.00556798       0.00269535      -0.00133127
C        1.24888795       2.07489809       4.17955364       0.00067522      -0.01339619      -0.01344268
C       -0.13951330       4.35019522       4.40986334       0.00733109      -0.00717618      -0.00569969
C       -1.29070967       6.44056730       3.94726519      -0.00638981      -0.00026568       0.00074089
C       -2.47390445       8.55244299       3.74030956       0.00137995       0.00037528       0.00052337
C        4.93957107      -0.00893261       3.65671360      -0.01222140      -0.00542305      -0.00612023
C        3.67320036       2.08538179       3.47976658       0.00843813      -0.00995672       0.00257730
N        1.11083624       6.41459422       4.13617510       0.00080418       0.00183262       0.00932357
C       -0.00234625       8.52273706       3.80786032       0.00110142      -0.00072047      -0.00127649
C        7.40952793      -0.03612188       3.69151769      -0.00128531      -0.00948190       0.00132873
C        6.17152125       2.13014099       3.44292887       0.00247240       0.00303692      -0.00325185
C        5.04237742       4.35520680       3.06805558      -0.01215483      -0.00578049       0.00389808
O        3.80572844       6.42328140       3.30587081      -0.00090243       0.01056302      -0.00164781
C        2.48018904       8.45077327       3.76452314       0.00664151       0.00077251      -0.00724872
C        9.85794027      -0.03957605       3.81733936      -0.00104106       0.00675709      -0.00018576
C        8.63093471       2.11844650       3.73030762      -0.00104513      -0.00260841      -0.01125342
C        7.41612674       4.27166019       3.50014250       0.01066774       0.00440223       0.00538699
C        6.21839061       6.44553665       3.43044720       0.00135732       0.00166052      -0.00837962
C        4.93396258       8.52279365       3.67882965       0.00051183       0.01068627       0.00452384
C       -0.00888802       1.40984877       4.07083932      -0.00065741      -0.00549750       0.00154895
C       -1.28088306       3.56144534       4.13785477      -0.00392136      -0.00244705       0.01132612
C       -2.49165793       5.69642929       3.83948772      -0.00749796       0.00560626      -0.00600175
C       -3.70210487       7.83833048       3.70081196       0.00149044       0.00746218       0.00008776
C       -4.93924310       9.97034214       3.80876488       0.00124149       0.00170614       0.00364806
C        2.46566236       1.40806468       3.84997116       0.00382297      -0.00508054      -0.00917190
P        1.37799559       3.64892750       5.03903668       0.00367568      -0.01149877       0.00627746
C       -0.08647196       5.75606814       4.20000431      -0.00115927      -0.00023672       0.00342837
C       -1.25015886       7.84285109       3.81858834      -0.00005554      -0.00130647       0.01216992
C       -2.46553514       9.97247645       3.71842044      -0.01222806      -0.00157409       0.00477014
C        4.93260675       1.42049353       3.50949715       0.00176330      -0.00465769       0.00116820
S        3.52118006       3.60630589       2.64230516       0.00735728       0.00429965      -0.00186907
C        1.21180479       7.76318909       3.89130503       0.00644924       0.00160907       0.00124055
C        0.00538869       9.94719335       3.70537231      -0.00864383      -0.00328132      -0.00890039
C        7.39726782       1.40599659       3.61199082      -0.00028104      -0.00773556      -0.00466636
C        6.19475333       3.56206545       3.31140547       0.00012819       0.00629833       0.00732416
C        5.04569082       5.74741147       3.20498171      -0.00281621      -0.00332060       0.00976892
C        3.72644505       7.79992868       3.64450258       0.00501332       0.00136621       0.00895235
C        2.46812259       9.90278892       3.75565417       0.00493705      -0.00182695      -0.00393509
C        9.86150481       1.40287513       3.87882743      -0.00445249       0.00279464      -0.00239554
C        8.63225596       3.54908886       3.70379031       0.00738088       0.00132789       0.00709046
C        7.42373833       5.69667708       3.52468648       0.00739096       0.00651670       0.00438169
C        6.18400663       7.85082656       3.60359929      -0.00171568       0.00542918      -0.00916389
C        4.92640619       9.94753259       3.81139608      -0.00033169       0.01051103      -0.00444918
Rh       2.62677220       5.07060343       4.16026253      -0.00584478      -0.00901544      -0.01162375
