49
Lattice="12.336457 0.0 0.0 -6.168228499999997 10.683685154694365 0.0 0.0 0.0 15.0" Properties=species:S:1:pos:R:3:forces:R:3 energy=-432.6899766566253 free_energy=-432.6899766566253 stress="-0.003790863321519224 -3.913212715649193e-06 1.1290603791904822e-05 -3.913212715649193e-06 0.003164377617046074 -9.515474816795991e-07 1.1290603791904822e-05 -9.515474816795991e-07 1.4768212020402601e-07" pbc="T T T"
C       -0.00602296       0.01825558       3.89334361      -0.00571123       0.00327163       0.00629136
C       -1.25200438       2.12189076       4.06581007      -0.00751360       0.00626217       0.00162955
C       -2.48114894       4.26779871       4.17827844      -0.00356374      -0.00192877      -0.00802892
C       -3.70208347       6.41920360       4.05530161      -0.00072861       0.00725133      -0.00328487
C       -4.94400559       8.56285736       3.87406022      -0.00212294       0.00079410      -0.00141856
C        2.45530728       0.03926842       3.86088973       0.00647431      -0.00516998       0.00238237
C        1.20221187       2.20399581       3.78280147      -0.00082494      -0.00076958       0.00776406
C       -0.04638717       4.25600613       4.05195899      -0.00025469      -0.00250884      -0.01205742
C       -1.26463600       6.42756131       4.15911353      -0.00025193      -0.00418185      -0.00112249
C       -2.48340111       8.56634091       4.03103460       0.00319411       0.00334697      -0.00223253
C        4.92840437      -0.00380181       3.84262560       0.00401457       0.00558962       0.00237703
C        3.69723428       2.07442242       3.36426513       0.00104656      -0.00469669      -0.00411561
N        1.10449681       6.39119225       3.78341344       0.00187053      -0.00203682       0.00684731
C       -0.01017553       8.51841924       3.93784375      -0.00922036      -0.00333667       0.00556408
C        7.39585269      -0.03163372       3.88909711      -0.00291448      -0.00231012       0.00552061
C        6.18327455       2.11622205       3.65896734       0.00018225      -0.00293238      -0.00376072
C        5.17118063       4.28894531       3.01542253       0.00953573       0.00415047      -0.00086497
S        3.76025066       6.48102405       2.33206164       0.00387724      -0.01117126       0.00243766
C        2.45464431       8.49265081       3.67821508       0.00457498       0.00448213       0.01409354
C        9.85383280      -0.02837362       3.91636739       0.00645523       0.00142208       0.00682014
C        8.62580849       2.11768168       4.00644367       0.00449269      -0.00577319      -0.00246077
C        7.43307144       4.26830677       3.84910635      -0.00868345      -0.00147561      -0.00765397
C        6.24730050       6.42846864       3.53085972      -0.01027831      -0.00310186      -0.00825667
C        4.93790405       8.55193635       3.62521876       0.00719012      -0.00312490       0.00054558
C       -0.01013221       1.44802574       3.93810273      -0.00919714       0.00346254       0.00128176
C       -1.26431379       3.53897544       4.15899380      -0.00429808       0.00248234       0.00311447
C       -2.48133105       5.69859327       4.17801468      -0.00171446       0.00216342      -0.00509329
C       -3.71077786       7.84873886       4.00686117       0.00297803       0.00650236      -0.00726859
C       -4.94062336       9.99828114       3.88823934      -0.00271937      -0.00070458       0.01380470
C        2.45466528       1.47364178       3.67762935       0.00649320       0.00000887       0.01810714
N        1.10470293       3.57549521       3.78286377      -0.00248675      -0.00272656       0.00853625
C       -0.04661496       5.71077075       4.05202074       0.00297396      -0.00300179      -0.01074567
C       -1.25210399       7.84445736       4.06487321      -0.00797269      -0.00480183       0.00464554
C       -2.48276103       9.99465501       3.91709932       0.00987226       0.00225046      -0.00029935
C        4.93823144       1.41431844       3.62553031       0.00260910       0.00520541       0.00086450
S        3.76113992       3.48538836       2.33246830      -0.00780424       0.00619132       0.00024294
C        1.20224201       7.76253696       3.78392641      -0.00237927      -0.00027048       0.00223149
C       -0.00597865       9.94814727       3.89379659      -0.00548348      -0.00174709       0.00462520
C        7.39241649       1.40390582       3.87358689       0.00156411      -0.00670250       0.00349127
C        6.24733549       3.53834582       3.53110469      -0.00722550      -0.00236168      -0.01272738
C        5.17042097       5.67755278       3.01695384       0.00911580       0.00233339      -0.01346334
C        3.69674568       7.89192736       3.36336544       0.00750559       0.01004793       0.00327505
C        2.45533350       9.92721050       3.86039151       0.00431965       0.00710845       0.00813163
C        9.85314276       1.39983697       4.03194038       0.00398161       0.00187199      -0.00957425
C        8.63451329       3.54719925       4.05545520      -0.00031209      -0.00603215      -0.00437999
C        7.43297924       5.69822073       3.84895564      -0.00924734       0.00333460      -0.00805382
C        6.18325747       7.85063678       3.65896600      -0.00161052      -0.00556614      -0.00473641
C        4.92844445       9.96992963       3.84266378       0.00150674      -0.00155957      -0.00236071
Rh       2.35554974       4.98311885       3.18841670       0.00869086       0.00045929      -0.00066497
