50
Lattice="12.336457 0.0 0.0 -6.168228499999997 10.683685154694365 0.0 0.0 0.0 15.0" Properties=species:S:1:pos:R:3:forces:R:3 energy=-444.5282685902781 free_energy=-444.5282685902781 stress="0.0014455639617739421 0.0043183838408103695 -1.5111258537561695e-06 0.0043183838408103695 -0.0010612574953020554 8.944309236832672e-06 -1.5111258537561695e-06 8.944309236832672e-06 8.316809526824604e-06" pbc="T T T"
C       -0.01762386      -0.02724247       3.82897461       0.00212773       0.00498901      -0.00014547
C       -1.22139151       2.13226023       3.81639824       0.00053939       0.00625035       0.00444535
C       -2.44710018       4.25236455       3.82062637       0.00481483       0.00018845       0.00245661
C       -3.72925106       6.37278085       3.81156086      -0.00083958      -0.00720918      -0.00880425
C       -4.98399923       8.50063919       3.79883800       0.00149415       0.00322301       0.00275419
C        2.43514485      -0.04509610       3.94846947       0.00021041       0.00589526      -0.01100197
C        1.23981896       2.12626361       3.83144028       0.00414478      -0.00325791      -0.00184893
C        0.05181091       4.30529129       3.74626945       0.00712752      -0.00174163      -0.00279385
C       -1.24987990       6.39247459       3.85490905      -0.00105021      -0.00499709       0.00224144
C       -2.50516407       8.50718297       3.94210156      -0.00082187       0.00216399       0.00024231
C        4.91153011      -0.04008122       4.03814129      -0.00031705       0.00914948       0.00652800
C        3.68538248       2.06302201       3.96910582       0.00305736      -0.00867729       0.00529165
N        2.54325345       4.13004008       3.54751114      -0.00107239       0.00164267      -0.00070491
O        1.12152137       6.47131944       3.83026707       0.00460464      -0.00666994       0.00136494
C       -0.04592266       8.52552136       3.97941776      -0.00039318       0.00398834      -0.00546638
C        7.38400570      -0.03192113       3.99001393      -0.00406102       0.00021559       0.00126551
C        6.16678776       2.09201954       3.98611100       0.00160710      -0.00425739      -0.00101692
C        4.94218235       4.18252465       3.73868718       0.00080406      -0.00404616       0.00135459
S        3.61446011       7.56751722       1.40087050       0.00297719       0.00344458       0.00989001
C        2.39492158       8.52887274       3.72162040      -0.00234580       0.00164129      -0.00121802
C        9.85288775      -0.02129415       3.82519297      -0.00037497      -0.00251351       0.00289541
C        8.64024723       2.10917689       3.90302047      -0.00568412       0.00164451       0.00759544
C        7.40932402       4.23386755       3.83260809       0.00165518      -0.00333708      -0.00177460
C        6.13204534       6.35354346       3.61320356       0.00237426       0.00234773       0.00132722
C        4.89736823       8.51886139       3.61614315      -0.00169320      -0.00236125      -0.00366387
C        0.00135774       1.41011019       3.82904661       0.00140130       0.00533912       0.00609184
C       -1.19155415       3.56775139       3.79471732       0.00640770       0.00558691      -0.00022997
C       -2.47969271       5.66909188       3.82912779      -0.00021374      -0.00421268      -0.00388817
C       -3.74678479       7.79552760       3.84972962      -0.00092082      -0.00465974       0.00093186
C       -4.97029342       9.92654628       3.86087864       0.00010183       0.00605363       0.00374417
C        2.44711998       1.37990193       3.93236676       0.00542260      -0.00312653      -0.00792908
C        1.29636584       3.55852854       3.70332389      -0.00109650      -0.01155035      -0.00668892
C       -0.03373303       5.71159368       3.79269626      -0.00034052      -0.00341570       0.01010488
C       -1.27366546       7.81019008       3.94207410       0.00043380      -0.00290363       0.00256478
C       -2.49925343       9.93286788       3.99328525      -0.00081329       0.00923381      -0.00405130
C        4.92543834       1.37808364       4.02182572       0.00422898       0.00154728       0.00352815
C        3.69429150       3.46892756       3.79233487      -0.00057752      -0.01159429       0.00128833
C        1.16512819       7.84494062       3.85568019      -0.00140993       0.00224817      -0.00850641
C       -0.02034181       9.94561219       4.02181473      -0.00355870       0.00435955       0.01191565
C        7.40132274       1.39115256       3.97785818      -0.00460039      -0.00218433       0.00079074
C        6.18075546       3.50790460       3.88170207       0.00233595      -0.00551096      -0.00383963
C        4.95202098       5.57151219       3.47412836      -0.01471634       0.00818905       0.00714334
C        3.62706581       7.91143887       3.16012479      -0.01124710      -0.00688303      -0.00483472
C        2.44216829       9.93817939       3.87389341      -0.00473586       0.00145599      -0.00683873
C        9.87407107       1.40681322       3.85578385      -0.00438137       0.00139989       0.00076276
C        8.64937668       3.53129793       3.85983057       0.00230206       0.00143165      -0.00000503
C        7.38259401       5.65320741       3.75105114       0.00098533      -0.00504405      -0.00478177
C        6.10575058       7.78712616       3.65124107       0.00315347       0.00324228      -0.00358033
C        4.91185458       9.93873374       3.76654346       0.00245211      -0.00294735      -0.00247413
Rh       3.25455649       5.93775788       2.84809839       0.00050175       0.01622950      -0.00243184
