49
Lattice="12.336457 0.0 0.0 -6.168228499999997 10.683685154694365 0.0 0.0 0.0 15.0" Properties=species:S:1:pos:R:3:forces:R:3 energy=-430.7023650103965 free_energy=-430.7023650103965 stress="-0.008414814970664646 0.0042201181539782764 1.6597717202885656e-06 0.0042201181539782764 -0.0039453000060003275 -6.358923577965658e-06 1.6597717202885656e-06 -6.358923577965658e-06 2.5069271114356615e-06" pbc="T T T"
C       -0.00466782      -0.00506744       3.68953987      -0.00486103       0.00810658      -0.01035094
C       -1.21603032       2.13978609       3.49867933      -0.00244705       0.00653254      -0.01574291
C       -2.47223034       4.28020098       3.47441855      -0.00487054      -0.00217276       0.00633135
C       -3.71099648       6.41597815       3.61676016       0.00557828      -0.00257469       0.00504129
C       -4.95361971       8.54318308       3.70159767      -0.00750729      -0.00217144      -0.01340476
C        2.45702284      -0.02108650       3.91344983      -0.00073345       0.00167220      -0.00527874
C        1.27796873       2.09071922       3.70591788       0.00769342       0.00011014      -0.01642032
C       -0.07390354       4.35745645       3.19404360      -0.00028777      -0.01552495       0.00567737
C       -1.31564732       6.47509082       3.32386344      -0.00179991      -0.00185106       0.00640942
C       -2.49711041       8.56868496       3.65327451       0.00620603       0.00945502       0.00906315
C        4.93525433      -0.00236748       3.92955700       0.00731134      -0.00446794       0.00352467
C        3.70561244       2.03938081       4.39780428      -0.00320792      -0.00578941       0.00004719
N        1.02794914       6.46075531       3.62138446      -0.00541811       0.00078372      -0.00675413
C       -0.04239420       8.57057637       3.57972227       0.00484176       0.00016606       0.00123289
C        7.40769102      -0.01115265       3.78256922      -0.00222979       0.00451707      -0.00158171
C        6.21939298       2.10845300       4.16618065      -0.00650823      -0.00230702      -0.00289772
C        5.14044610       4.30643671       4.54894345       0.00342454      -0.00334508      -0.00269563
P        3.63511128       6.08220145       3.16849206      -0.00186237       0.00269869       0.00720733
C        2.44501780       8.52211368       3.58835974       0.00173795       0.00774513       0.00057375
C        9.86912157      -0.01118123       3.63822483       0.00424952      -0.00570437       0.00183572
C        8.65845715       2.12573918       3.73740240       0.00443548       0.00145539       0.00816946
C        7.45986198       4.25936834       3.92314933      -0.00065701       0.00873606       0.00424874
C        6.21861746       6.40637657       3.84358932      -0.00623563       0.00263493       0.00733087
C        4.91820901       8.52572761       3.60999118      -0.00660272      -0.01072369       0.00152742
C        0.01889024       1.42920683       3.61655770       0.00077267       0.01294833      -0.00914180
C       -1.23553991       3.57351642       3.35428571      -0.01018367       0.00037771      -0.00420635
C       -2.49895577       5.71013975       3.44524581       0.00337839      -0.00773237       0.00021494
C       -3.72073255       7.84149665       3.65163006       0.00209066       0.00147776      -0.00821810
C       -4.94590406       9.96575166       3.76419757      -0.00587435       0.00316835      -0.01046504
C        2.47240425       1.39117045       4.05287723       0.00452036      -0.00136172      -0.01485826
P        1.56275099       3.68560394       2.94289536       0.01405177      -0.00595162      -0.00729897
C       -0.09831944       5.78346814       3.27820706      -0.00717214      -0.01053909      -0.00263416
C       -1.27891168       7.87700015       3.49913114       0.00460851       0.00020076       0.01803474
C       -2.47535448       9.97459995       3.84817685       0.00517946       0.00827378       0.00370311
C        4.95818342       1.40221858       4.19762949      -0.00479123      -0.00710814       0.00067236
P        3.65197627       3.62184236       5.24826038      -0.00351771       0.00115408       0.00016502
C        1.16823962       7.82085272       3.57367495       0.00339964       0.00453858       0.01376813
C       -0.00986307       9.97800511       3.76501490       0.00404897      -0.00188942      -0.00748199
C        7.42608964       1.41015102       3.90012755      -0.00069487       0.00220593       0.00854746
C        6.27950590       3.53219596       4.26177044       0.00485895       0.00003992       0.00515117
C        5.06322864       5.63695694       4.09344852       0.00256825       0.00741380       0.00482504
C        3.67326492       7.84389592       3.51081403      -0.00116085      -0.00511413      -0.00084760
C        2.46039596       9.95577017       3.66654539      -0.00095582       0.00550107       0.00160050
C        9.88811068       1.42186021       3.61198361       0.00453339      -0.00238936      -0.00130379
C        8.66523303       3.55313077       3.70581333      -0.00257499       0.00309405       0.00114750
C        7.43583434       5.68517921       3.80437840      -0.00221515       0.00836567       0.00795156
C        6.16167363       7.82172653       3.67929541      -0.01063712      -0.00465509       0.00586917
C        4.93004910       9.96180489       3.63471734       0.00011612      -0.00776743       0.00275900
Rh       2.23600994       5.07363132       4.54112629       0.00540123      -0.00223254      -0.00104738
