49
Lattice="12.336457 0.0 0.0 -6.168228499999997 10.683685154694365 0.0 0.0 0.0 15.0" Properties=species:S:1:pos:R:3:forces:R:3 energy=-435.13357341074845 free_energy=-435.13357341074845 stress="-0.0048731498596012645 1.3690224103466908e-05 6.434421375859076e-07 1.3690224103466908e-05 0.0023663605188382402 -4.256168910234465e-06 6.434421375859076e-07 -4.256168910234465e-06 -3.400837563246689e-06" pbc="T T T"
C       -0.00724532       0.01504897       3.56144643      -0.00438201      -0.00190006       0.00688366
C       -1.25143696       2.12113831       3.40743363      -0.00214675      -0.00131962       0.00133676
C       -2.48153644       4.26792327       3.33664761      -0.00072134      -0.00495131      -0.01150957
C       -3.70245709       6.41827653       3.46610022       0.00750877      -0.00030355      -0.00118193
C       -4.93920136       8.56432140       3.61229603      -0.00058841      -0.00520017      -0.00559750
C        2.45389382       0.03823482       3.60229977       0.00026548      -0.00558049       0.00837844
C        1.19494923       2.19940486       3.71366248       0.00270480       0.00095326      -0.00332994
C       -0.04610551       4.25224780       3.48365425       0.00100978       0.00059145       0.00229658
C       -1.26409717       6.42588376       3.33909207      -0.00323191       0.00302347      -0.00342137
C       -2.48366575       8.56858073       3.43430886       0.00100433       0.00005126       0.00580743
C        4.93067921      -0.00076779       3.62771101       0.00030428      -0.00116936      -0.00409789
C        3.69479426       2.06440091       4.12541310      -0.00446169       0.00051850       0.00072100
N        1.08332056       6.40146660       3.76919758      -0.00228704       0.00612397      -0.00005585
C       -0.01468503       8.52335781       3.52509228       0.00391276       0.00290462       0.00447493
C        7.39681103      -0.02965558       3.57513845       0.00017521      -0.00070667      -0.00562890
C        6.19302978       2.11397110       3.86437867       0.00114749      -0.00180348       0.00132104
C        5.20550476       4.27889577       4.61229057       0.00710536       0.00822508      -0.00196574
P        3.71763169       6.48278854       5.21366689       0.00557721      -0.00620863       0.00906981
C        2.45208319       8.50327273       3.80050576       0.00747694       0.00086849      -0.00701674
C        9.85583101      -0.02936195       3.53900052      -0.00716216      -0.00197595      -0.00096609
C        8.62703101       2.11662758       3.48750083       0.00264582      -0.00026522       0.00418073
C        7.44237127       4.26628546       3.71857695      -0.00353040       0.00993215       0.00166646
C        6.26688618       6.43198398       4.05121714      -0.00238246       0.00030296       0.00195445
C        4.94146487       8.55679067       3.86310109      -0.00109280      -0.00561120       0.00377088
C       -0.01396626       1.44307154       3.52688072      -0.00140341       0.00054646       0.00460679
C       -1.26437905       3.54042063       3.34173490       0.00025042      -0.00177184      -0.00522622
C       -2.48167775       5.69890642       3.33457490       0.00305582      -0.00474804      -0.00585330
C       -3.70965499       7.84988263       3.48335031       0.00307469      -0.00219605       0.00028697
C       -4.93907368       9.99679298       3.57175465      -0.00156172      -0.00437942       0.00150453
C        2.45282904       1.46337007       3.81097052      -0.00124022      -0.00261343      -0.01042011
N        1.08201124       3.56406613       3.77359278       0.01298674       0.00307002       0.00085033
C       -0.04577264       5.71359600       3.48236302      -0.00439539       0.00163078      -0.00284944
C       -1.25194481       7.84534999       3.40465829       0.00135620       0.00317893       0.00269730
C       -2.48097693       9.99613343       3.54299327       0.00141849      -0.00166597       0.00089201
C        4.94159169       1.40918942       3.87647832      -0.00399690       0.00047916      -0.00023308
P        3.71903900       3.48702948       5.22523633      -0.00338086      -0.00173062      -0.00445442
C        1.19462048       7.76648078       3.70711684       0.00672963       0.00430078       0.00036639
C       -0.00794956       9.95162121       3.56577482       0.00230566       0.00081122       0.00453719
C        7.39717151       1.40256693       3.61837995       0.00245978      -0.00189435      -0.00393339
C        6.26761382       3.53391631       4.05854897      -0.00054693       0.00572704      -0.00303671
C        5.20533437       5.68829617       4.60802695       0.00169443       0.00347380      -0.00377281
C        3.69448915       7.90090640       4.10994471       0.00191850       0.00429442       0.00630138
C        2.45360152       9.92900711       3.59767100      -0.00335255       0.00072178       0.01098808
C        9.85314539       1.39824530       3.43661567      -0.00042357      -0.00263247      -0.00257424
C        8.63466637       3.54790460       3.46995568      -0.00175805      -0.00046041      -0.00256383
C        7.44213136       5.69890014       3.71557936      -0.00220022       0.00632424       0.00083518
C        6.19276235       7.85218146       3.85437875      -0.00116032      -0.00553916       0.00254646
C        4.93117800       9.96726280       3.61844850      -0.00667599      -0.00299430       0.00222756
Rh       2.34475245       4.98233493       4.48995814      -0.01400546       0.00156795      -0.00081328
