49
Lattice="12.336457 0.0 0.0 -6.168228499999997 10.683685154694365 0.0 0.0 0.0 15.0" Properties=species:S:1:pos:R:3:forces:R:3 energy=-431.9013778344066 free_energy=-431.9013778344066 stress="-0.006453446991997671 0.00159261926229868 -2.0819002043650723e-06 0.00159261926229868 0.0005306319276511606 -2.257018761758033e-06 -2.0819002043650723e-06 -2.257018761758033e-06 5.867744780361415e-08" pbc="T T T"
C        0.00115329       0.00295802       3.83962647      -0.00010935      -0.00246339       0.00381104
C       -1.24221852       2.13049688       3.80939823       0.00375322       0.00129253      -0.00324280
C       -2.47865446       4.27581636       4.09129535      -0.01329055       0.01005236      -0.00989768
C       -3.71142045       6.42241743       4.14412120      -0.00423671       0.00091571      -0.01151778
C       -4.94346106       8.55808957       3.94697467       0.00212765       0.00075694       0.00898282
C        2.46802770       0.03844914       3.82371973      -0.00159305       0.00652091       0.00514076
C        1.21809274       2.08198664       3.39167633      -0.00145161       0.00419907       0.00137172
C       -0.16408909       4.33448803       3.44125759       0.00593782      -0.00618663       0.00410023
C       -1.28922941       6.44594338       3.95090797      -0.00883622       0.00340404      -0.00183563
C       -2.48429213       8.57530410       4.00025099       0.00019867      -0.00181979       0.00173155
C        4.93425204       0.00908099       3.87188530       0.00328881      -0.00384991       0.00311273
C        3.73821837       2.18812010       3.62760790      -0.00673510      -0.00393537       0.00065235
N        1.07780009       6.41690569       3.48006046       0.00261320       0.00574972      -0.00265519
C       -0.01500449       8.53315006       3.81696838       0.00210770       0.00012385      -0.00240351
C        7.40950969      -0.03337482       3.90394239       0.00064957      -0.00692469       0.01116719
C        6.19105181       2.10741133       3.95416836       0.00726127       0.00500294      -0.00645308
C        5.03708360       4.22521136       3.63511677       0.00400725       0.00174233      -0.01103645
S        3.92153118       6.44270430       2.42939657      -0.00117679      -0.00391435      -0.00041804
C        2.46280620       8.49698846       3.60611473      -0.00014861      -0.00137253       0.00339556
C        9.86417337      -0.02726194       3.87282200      -0.00644306       0.00384154       0.00372288
C        8.64492668       2.11622268       4.05375739       0.00136780      -0.00530166      -0.00241596
C        7.42045575       4.26045363       4.11619774       0.01653489      -0.00449651       0.00413582
C        6.20440117       6.40557941       3.84313964       0.00518594      -0.01014697      -0.00635252
C        4.94193001       8.54148587       3.70829767      -0.00259011       0.00294498      -0.00326310
C       -0.00824532       1.42517259       3.70328086       0.00490521      -0.00266892       0.00418829
C       -1.27127688       3.56145711       3.83241101      -0.00771217       0.00498110       0.00053168
C       -2.48704939       5.70596637       4.10965310      -0.01050562       0.00883197       0.00708503
C       -3.71120075       7.85060915       4.05331510      -0.00060251      -0.00066503       0.00415717
C       -4.93026054       9.99380695       3.87408805       0.00198295       0.00286567       0.00640178
C        2.47124852       1.46927669       3.60752499      -0.00604108       0.00703924       0.00026208
S        1.01485254       3.52255761       2.42366523       0.00806749      -0.00484967      -0.00065460
C       -0.10412305       5.74149422       3.62338713      -0.00411165      -0.00068494      -0.00671615
C       -1.25775544       7.85877224       3.94782086      -0.00003290       0.00105337      -0.01143976
C       -2.47563732      10.00000284       3.90371239      -0.00208025       0.00076973       0.00968066
C        4.94842293       1.43336834       3.82234767       0.00469387      -0.00254775      -0.00798796
N        3.85615474       3.54933096       3.48676854      -0.00831722       0.00145938      -0.00429020
C        1.19566619       7.77811850       3.62298449       0.00215972       0.00656709      -0.00079593
C       -0.00061275       9.95762587       3.87105555       0.00312899      -0.00633448      -0.00157651
C        7.41797186       1.39125996       4.00344672       0.00170126      -0.00372871      -0.00185968
C        6.22212219       3.52017450       3.96112525       0.01605127       0.00660920      -0.00148706
C        5.09719314       5.63223595       3.45277968      -0.01404812       0.00332950       0.00224906
C        3.71658636       7.88429944       3.39406804      -0.00594736       0.00077642       0.00702467
C        2.46588168       9.92783790       3.82281856      -0.00229978      -0.00160410       0.00471182
C        9.87693324       1.40874194       3.94318621       0.00284915       0.00064046       0.01381062
C        8.64527870       3.54442662       4.14388919       0.00326671      -0.00657142      -0.00811911
C        7.41241892       5.69084826       4.09767223       0.00949448      -0.01097384      -0.00631983
C        6.17552608       7.83639014       3.81644834       0.00150270      -0.00593721      -0.00085498
C        4.93297909       9.96398841       3.83995781      -0.00617384       0.00448607       0.00916199
Rh       2.46727452       4.98215989       3.23860874      -0.00035395       0.00102173      -0.00699596
