49
Lattice="12.336457 0.0 0.0 -6.168228499999997 10.683685154694365 0.0 0.0 0.0 15.0" Properties=species:S:1:pos:R:3:forces:R:3 energy=-442.4453146284209 free_energy=-442.4453146284209 stress="-0.009369911704207968 -1.7956387524564582e-06 1.6318871010981012e-07 -1.7956387524564582e-06 0.005851539878605842 1.5530263304934064e-07 1.6318871010981012e-07 1.5530263304934064e-07 1.0803355846671244e-06" pbc="T T T"
C       -0.00066246       0.01596975       3.75195031       0.00265328      -0.00026700       0.00187407
C       -1.25552154       2.11325909       3.74107627      -0.00649946      -0.00163857      -0.00781245
C       -2.48938058       4.26753400       3.72810459      -0.00545529      -0.00375033      -0.00336639
C       -3.70109239       6.42596714       3.73458325      -0.00282223       0.01125333       0.00047738
C       -4.92453693       8.58359173       3.74891917       0.00246292       0.00408820       0.00277583
C        2.46666082       0.07837369       3.75691771       0.00252172       0.00099634      -0.01319150
C        1.20688241       2.21255593       3.76276176       0.00321715       0.00325177      -0.00420821
C       -0.07749707       4.26188254       3.74631907       0.00693280       0.00311529      -0.00171912
C       -1.28050597       6.43164744       3.73194526      -0.00020722      -0.00633155       0.00129053
C       -2.47781956       8.58384233       3.73695678      -0.00698403      -0.00000985       0.01724489
C        4.93407830       0.01610429       3.74983838       0.00027185      -0.00010972       0.01440978
C        3.72664044       2.21274909       3.77340598      -0.00065134       0.00014860      -0.00700624
N        1.09867929       6.37984609       3.76744896       0.01459906      -0.00529571      -0.00120549
C       -0.01008150       8.52343249       3.74851112      -0.00204641      -0.00409707       0.01210884
C        7.40995423      -0.05166220       3.75076595       0.00463428       0.01054927       0.01161185
C        6.18910325       2.11307515       3.75549418       0.00667658       0.00342286       0.00552884
C        5.01165769       4.26211913       3.77835943      -0.01150877      -0.00077757      -0.00613567
N        3.83477146       6.37975582       3.78610419      -0.00743563      -0.00555418      -0.00305273
C        2.46687733       8.44613167       3.76869388      -0.00112812      -0.00615364      -0.00087862
C        9.86040799      -0.05160910       3.75176421      -0.00754990       0.00604617       0.00307232
C        8.63497489       2.10459934       3.74011881       0.00164067      -0.00441099      -0.00488489
C        7.42301117       4.26764410       3.74446080       0.00932559      -0.00523845       0.00778243
C        6.21460849       6.43157706       3.76264759      -0.00045231      -0.00630606      -0.00333320
C        4.94391818       8.52295973       3.76434046       0.00290718       0.00211509       0.00507814
C       -0.01009477       1.44330256       3.74988936      -0.00080935      -0.00211816       0.01268435
C       -1.28062910       3.53494458       3.73394833       0.00164425       0.00298419       0.00325242
C       -2.48911866       5.69890137       3.72678178      -0.00899369       0.00112919       0.00563169
C       -3.70108667       7.86161379       3.73955595      -0.00300340       0.00432509      -0.00697532
C       -4.92650608      10.01771300       3.75168746       0.00742171      -0.00241260       0.00924171
C        2.46675224       1.52065097       3.76753081       0.00065706       0.00077580      -0.00838365
N        1.09911544       3.58704321       3.76573600       0.00415588      -0.00081025       0.00400662
C       -0.07756697       5.70454547       3.74578804       0.00975615       0.00230032       0.00225193
C       -1.25538885       7.85331575       3.73769225      -0.00670807      -0.00176147      -0.00637394
C       -2.47654626      10.01782993       3.74760784      -0.00165904      -0.00151165       0.00131419
C        4.94350894       1.44322839       3.76043370       0.00386248       0.00387271       0.00158185
N        3.83501140       3.58716359       3.78440987      -0.01395074      -0.00144112      -0.00037897
C        1.20685140       7.75428178       3.76414261       0.00319917      -0.00819109      -0.01045502
C       -0.00089620       9.95043069       3.74974061       0.00396640       0.00307842      -0.00487512
C        7.41153673       1.38237132       3.74747874       0.00641811       0.00418049       0.00100984
C        6.21447906       3.53486464       3.76091625      -0.00130090       0.00487604      -0.00703253
C        5.01146042       5.70477186       3.77861369      -0.00699648      -0.00233811       0.00012081
C        3.72672840       7.75411660       3.77605305       0.00034348      -0.00694624      -0.00804404
C        2.46698234       9.88808664       3.75851258      -0.00179298       0.00087448      -0.01322987
C        9.85854506       1.38241492       3.74138773      -0.00635613       0.00408175       0.00788918
C        8.63492929       3.54041639       3.73376681       0.00418945      -0.01275973       0.00570656
C        7.42329814       5.69903275       3.74624866       0.00348829      -0.00168951      -0.00233369
C        6.18950941       7.85308587       3.75906468       0.00360061       0.00078164      -0.00006371
C        4.93463916       9.94998354       3.75514598      -0.00662320       0.00929396       0.00328289
Rh       2.46675153       4.98309320       3.79109870       0.00038858       0.00437962      -0.01628852
