49
Lattice="12.336457 0.0 0.0 -6.168228499999997 10.683685154694365 0.0 0.0 0.0 15.0" Properties=species:S:1:pos:R:3:forces:R:3 energy=-434.9055560471139 free_energy=-434.9055560471139 stress="-0.005824720182368586 -5.288800176262373e-06 -1.2154899164809994e-05 -5.288800176262373e-06 0.0013804012309570751 1.1770944116823436e-05 -1.2154899164809994e-05 1.1770944116823436e-05 -5.594531606476245e-07" pbc="T T T"
C        0.00299168       0.01731762       3.62114230      -0.00437316      -0.00409764      -0.00608615
C       -1.24690795       2.11590522       3.43474225      -0.00239676       0.00613568      -0.00483697
C       -2.48116404       4.26901306       3.31704396      -0.00246612      -0.00291451      -0.00317410
C       -3.70104228       6.42391237       3.40026261      -0.00623014      -0.00291442       0.00672383
C       -4.93193632       8.56896156       3.61944751       0.00492849       0.00206093       0.01025158
C        2.46748651       0.06353995       3.66734456      -0.00452400      -0.00719734       0.00187797
C        1.20394835       2.19183436       3.77635189       0.00426045       0.00859538       0.00834928
C       -0.09391498       4.21414469       3.79461985       0.00001105      -0.00213018       0.00375256
C       -1.27857776       6.40746158       3.70209308       0.00537361      -0.00332241       0.01677478
C       -2.47021568       8.56921285       3.61644724      -0.00596349      -0.00113070       0.00342591
C        4.93169675       0.01749945       3.61854646      -0.00119932      -0.00311204       0.00149538
C        3.73006203       2.19210738       3.78269063      -0.00150826       0.00301366      -0.00951453
P        1.01095102       6.35574763       5.17928931       0.01046049      -0.00720729      -0.00197846
C       -0.01481536       8.56397124       3.91274758      -0.00366190      -0.00048325      -0.00433321
C        7.40568395      -0.01783038       3.59403533      -0.00038329       0.00724409       0.00086546
C        6.18077855       2.11636304       3.43842341       0.00633789       0.00499179      -0.00146739
C        5.02811686       4.21399807       3.80567292       0.00372747       0.00042648      -0.00467612
P        3.91765219       6.35658978       5.18145052      -0.00630922      -0.00898014       0.00099092
C        2.46646044       8.57536463       4.12929638       0.00156302      -0.00142057      -0.00814594
C        9.86504858      -0.01791172       3.59540060      -0.00098902       0.00642108       0.00506991
C        8.63526291       2.11492848       3.32082785      -0.00374396      -0.00133012      -0.01064509
C        7.41490625       4.26910388       3.32247062       0.00214984      -0.00101986      -0.00378726
C        6.21319455       6.40727808       3.71126218      -0.00558490       0.00037420       0.01277996
C        4.94875063       8.56449204       3.91739032       0.00545242      -0.01141854      -0.00236077
C       -0.00867099       1.43807399       3.58291906      -0.00243851       0.00327739       0.01017441
C       -1.27514580       3.52881936       3.42998146       0.00155689       0.00591054      -0.00623854
C       -2.48253384       5.69949632       3.40675328       0.00520055       0.00115234      -0.00040688
C       -3.70106678       7.85322842       3.52743292      -0.00353894      -0.00216901       0.00026465
C       -4.92609519      10.00641066       3.64201708      -0.00233638      -0.00307253       0.00821811
C        2.46715812       1.49993932       3.76136369      -0.00098249      -0.00392012       0.00411524
N        1.06244453       3.53153637       3.99775420       0.00606291       0.01350511       0.00118668
C       -0.15976829       5.61751908       4.04218057      -0.00527034      -0.00848832      -0.00762023
C       -1.25213737       7.84768266       3.75951995      -0.00379768      -0.00009488       0.00362318
C       -2.47547736      10.00658700       3.63978735      -0.00513842      -0.00353282       0.01056053
C        4.94269868       1.43855071       3.58642921       0.00572337       0.00217703       0.00898056
N        3.87094067       3.53169338       4.00559442      -0.00057487       0.00693795      -0.00099079
C        1.20103297       7.92539333       4.29176838       0.00165167       0.00234568      -0.00073302
C       -0.00374231       9.97620406       3.68524987       0.00150933       0.00051194      -0.00129746
C        7.40827543       1.39760904       3.40494491      -0.00052013       0.00476118       0.00241605
C        6.20896730       3.52919673       3.43870112       0.00640806       0.00349830      -0.00886776
C        5.09411816       5.61764147       4.05130837       0.00822279      -0.00930979      -0.00297275
C        3.73159609       7.92538234       4.29266561       0.00385813       0.00544780       0.00542383
C        2.46701449       9.96102167       3.74133965      -0.00074829       0.00673737       0.00198876
C        9.86220084       1.39733602       3.40538730      -0.00347867       0.00649764      -0.00697669
C        8.63502733       3.54734478       3.25927278      -0.00107299      -0.00723275      -0.01851554
C        7.41682649       5.69954881       3.41251244      -0.01272108       0.00085706       0.00173819
C        6.18634113       7.84777744       3.76652949       0.00613330      -0.00076243      -0.00337325
C        4.93816227       9.97656536       3.68927376      -0.00334224      -0.00802379      -0.00525361
Rh       2.46480981       4.82498594       4.67503334       0.00470287       0.00240483      -0.00679521
