50
Lattice="12.336457 0.0 0.0 -6.168228499999997 10.683685154694365 0.0 0.0 0.0 15.0" Properties=species:S:1:pos:R:3:forces:R:3 energy=-440.40733546316295 free_energy=-440.40733546316295 stress="0.0005137334561597696 -0.0004281561184670555 7.722797125479757e-06 -0.0004281561184670555 -0.006903254114554074 -1.5916948980926113e-05 7.722797125479757e-06 -1.5916948980926113e-05 -2.090596297283345e-06" pbc="T T T"
C       -0.02037204      -0.01793122       3.67635877       0.00519906      -0.00228713      -0.00612767
C       -1.24722984       2.13204049       3.64488413      -0.00399585      -0.00439807      -0.00302562
C       -2.48010227       4.25985881       3.71569126       0.00753667      -0.00435000       0.00646473
C       -3.72300816       6.38824725       3.76719858      -0.00558598      -0.00512699       0.00493667
C       -4.95185908       8.52252657       3.73321364       0.00851578       0.00898087      -0.00228792
C        2.44525339      -0.03479573       3.64005315      -0.00190984      -0.00323442       0.00531861
C        1.21616257       2.09790505       3.60785546       0.00152975       0.00214477      -0.00051761
C        0.01964911       4.23532498       3.83145191       0.00356821      -0.00085598       0.00216801
C       -1.23710833       6.37512500       3.99371332       0.00344930       0.00812906       0.00283721
C       -2.48092269       8.51501730       3.82020772      -0.00229291      -0.00384834       0.00320162
C        4.90705449      -0.02032764       3.67970356      -0.00392274       0.00051565      -0.00121434
C        3.66391953       2.08698735       3.50321064       0.00137542      -0.00217614      -0.00180750
O        2.44047848       4.12651467       3.55170848      -0.00200960      -0.00311952      -0.00115971
P        1.40852910       6.35833892       4.90443641      -0.01319209       0.00408691       0.00199419
C       -0.04277569       8.56653752       4.00721312       0.00680141       0.00151393      -0.01277973
C        7.36209834       0.01970795       3.72670748       0.00559254       0.00070924      -0.00002108
C        6.12622110       2.12500492       3.56797337       0.00764467       0.00474144       0.00526458
C        4.85595879       4.20997045       3.52201595      -0.00259533      -0.00633995      -0.00487360
S        3.60695418       6.54240668       2.55163929       0.00442831      -0.00935435      -0.00646244
C        2.41494330       8.63088401       3.97401109      -0.00559326       0.00139494      -0.01006343
C        9.84927370       0.02015941       3.70697471       0.00537261       0.00250112      -0.00294371
C        8.60851807       2.13960113       3.62708928      -0.00818335       0.00294242      -0.00277273
C        7.36257561       4.26029600       3.63155719      -0.00271186      -0.00391477       0.00775523
C        6.13085685       6.40263687       3.71288016      -0.00432649       0.00551000       0.00075265
C        4.94058797       8.55488771       3.80697980      -0.00228843      -0.00486122       0.00394665
C       -0.02677354       1.40323046       3.64005364       0.00076746      -0.00185104       0.00396474
C       -1.23278719       3.54771058       3.70189745       0.00724250      -0.00430251       0.00313209
C       -2.48343117       5.67796777       3.81377456       0.00244895      -0.00157701       0.01583992
C       -3.72155460       7.80784772       3.77638687      -0.00109071      -0.00308644       0.00052415
C       -4.96072288       9.93979146       3.68490996       0.00359100       0.00360409       0.00285683
C        2.43965144       1.37380616       3.56336669      -0.00006723      -0.00450520      -0.00464188
C        1.22999202       3.48585395       3.68233237       0.00313956       0.00510511       0.00307697
C       -0.02819964       5.62186936       4.14744173       0.00032035       0.00225847      -0.00102868
C       -1.24989467       7.81143723       3.97436124       0.00635361       0.00722222      -0.00831168
C       -2.48687818       9.93675068       3.71070085      -0.00580413      -0.00530437       0.00300378
C        4.90802296       1.39989496       3.56214680       0.00558695       0.00658622       0.01328241
C        3.66193248       3.47633664       3.48643873      -0.00378405      -0.00123458      -0.00149558
C        1.22161663       7.95067346       4.21369563       0.00005008      -0.00238623       0.00274157
C       -0.03117584       9.97558778       3.79683707       0.00171043       0.00312349      -0.00259115
C        7.36862807       1.43048282       3.62823531       0.00165656      -0.00061281      -0.00641961
C        6.11202834       3.54598019       3.55433692      -0.00085612       0.00097305       0.00010052
C        4.85954221       5.67765963       3.61148688      -0.00829526      -0.00671481      -0.00157896
C        3.65735839       7.85265485       3.89149361      -0.01416195      -0.00001428       0.00382320
C        2.43857937      10.01835196       3.77443681       0.00521574       0.00133342      -0.00951595
C        9.84739868       1.43212398       3.64733972      -0.00942456       0.00362657      -0.00150323
C        8.60853850       3.55802268       3.64302080      -0.00073867       0.00013182       0.00334862
C        7.36256637       5.68352757       3.69729780      -0.01012046      -0.00220304       0.00448695
C        6.13003589       7.81271235       3.74352069       0.00627759       0.00813573      -0.00305544
C        4.91253984       9.96710758       3.73724331       0.00615888      -0.00451748      -0.00802351
Rh       3.60560918       6.29039968       5.12317539       0.00141753       0.00690619      -0.00059913
