49
Lattice="12.336457 0.0 0.0 -6.168228499999997 10.683685154694365 0.0 0.0 0.0 15.0" Properties=species:S:1:pos:R:3:forces:R:3 energy=-426.8138402943224 free_energy=-426.8138402943224 stress="-0.005505673342683309 -0.0001835783936495508 -8.762031734926955e-07 -0.0001835783936495508 -0.01376891944482498 3.6301967743524423e-06 -8.762031734926955e-07 3.6301967743524423e-06 -1.677319856786703e-06" pbc="T T T"
C        0.00011530      -0.01501111       3.49530687      -0.00063798      -0.00553006       0.01047687
C       -1.23568466       2.12527835       3.56020858       0.00417376       0.00165318       0.00478348
C       -2.47401477       4.27148903       3.37864793       0.00236147      -0.00063735      -0.00541724
C       -3.70009929       6.40516956       3.32444320       0.00387026       0.00004249       0.00039068
C       -4.93915060       8.53203762       3.40778030       0.00172453      -0.00061242      -0.00585132
C        2.46729432      -0.05316135       3.55367024      -0.00188444       0.00493500       0.00166789
C        1.22215701       1.98102533       4.07727044      -0.00033252       0.00310897      -0.00235865
C       -0.11402671       4.27708866       3.94717934      -0.00313041       0.00336816       0.00406579
C       -1.25833523       6.41894993       3.59274775       0.01098262       0.00343661       0.00031679
C       -2.45919868       8.53095786       3.41846594      -0.00831246      -0.00138733      -0.00587029
C        4.93433588      -0.01515004       3.51969408      -0.00323440       0.00371369       0.00105947
C        3.70457952       1.98629969       4.07501748      -0.00242099      -0.00339730       0.00827004
P        1.26945524       6.38511276       4.72635159       0.00118718       0.00670021      -0.00150021
C       -0.00698912       8.57458572       3.71216525       0.00225412      -0.00548448      -0.01629467
C        7.39577447       0.02109928       3.46608156      -0.00257842       0.00761618       0.00410125
C        6.16489641       2.12810428       3.56894456      -0.00363096      -0.00122880       0.00381498
C        5.04243871       4.28592865       3.94463629       0.00679985       0.00033775       0.00133661
P        3.69034653       6.40547124       4.77023565      -0.00746301      -0.00168785      -0.01516215
C        2.46980796       8.65896258       3.90249174       0.00069491      -0.00569654      -0.01072622
C        9.87332503       0.02090575       3.45237749      -0.00013027      -0.00064639       0.00092619
C        8.63266461       2.14236846       3.34465789       0.00252192      -0.00121106       0.00871586
C        7.40447900       4.27241505       3.38095648       0.00141920      -0.00010199      -0.00356691
C        6.19637318       6.42232758       3.59535152      -0.00909704       0.00639335       0.00123103
C        4.94347993       8.57662820       3.69334347      -0.00023736      -0.00038092       0.00408006
C       -0.00914104       1.39151911       3.69304177       0.00348272       0.00119455      -0.00081338
C       -1.26521318       3.54327481       3.59333063       0.00655180      -0.00134454       0.00021844
C       -2.47107314       5.69488849       3.38187815       0.00707024       0.00079254      -0.00037113
C       -3.69902212       7.82497392       3.35495566      -0.00324383      -0.00255256       0.00273940
C       -4.93858094       9.94711261       3.45669622      -0.00013609      -0.00263990       0.00086529
C        2.46435958       1.31281320       3.90488607      -0.00189915       0.00923961      -0.01150431
P        1.21759378       3.55251217       4.80801740       0.00150798      -0.01223511       0.00004418
C       -0.10364915       5.67633725       3.92831028       0.00050943      -0.00461550       0.00370737
C       -1.23016058       7.83820558       3.57475367      -0.00246117      -0.00081065      -0.00203848
C       -2.46195307       9.94624283       3.47053453      -0.00373992      -0.00041103       0.00699400
C        4.94035055       1.39349641       3.70616143      -0.00609485       0.00392466      -0.00108088
P        3.68950727       3.56917050       4.77321587       0.01379212      -0.01074699       0.00563726
C        1.23141229       7.98365516       4.07394887      -0.00011242       0.00113115       0.00409362
C       -0.00043153       9.98228004       3.52119642      -0.00207972       0.00333141       0.00029835
C        7.39326201       1.43586757       3.40872871      -0.00015967       0.00509641       0.00019753
C        6.19381856       3.54680721       3.59527370      -0.00229595      -0.00433342       0.00137142
C        5.04418549       5.68525663       3.94414524      -0.00188457      -0.00642464      -0.00156177
C        3.71009852       7.98883496       4.07338606       0.00148005       0.00171421      -0.00440237
C        2.46708887      10.02266051       3.55008474      -0.00229330      -0.00125165       0.00139565
C        9.87282531       1.43529166       3.40018372       0.00127918      -0.00091733      -0.00488705
C        8.63303133       3.56227519       3.31781743       0.00144434      -0.00317724      -0.00078343
C        7.40657774       5.69572511       3.38309173      -0.00042035       0.00412348      -0.00801195
C        6.16845039       7.84098937       3.56309013      -0.00133610       0.00352584       0.00590186
C        4.93466127       9.98313036       3.49547680      -0.00082672      -0.00197642       0.00571291
Rh       2.46537103       4.98634538       6.07448871      -0.00303361       0.00606000       0.00778818
