50
Lattice="12.336457 0.0 0.0 -6.168228499999997 10.683685154694365 0.0 0.0 0.0 15.0" Properties=species:S:1:pos:R:3:forces:R:3 energy=-437.37714630552455 free_energy=-437.37714630552455 stress="-0.00504396988195328 -9.33105750252706e-05 3.5054861097106124e-06 -9.33105750252706e-05 -0.00016840042173084347 2.6076266077564155e-06 3.5054861097106124e-06 2.6076266077564155e-06 9.101735612835424e-06" pbc="T T T"
C        0.02649383       0.03279774       4.02134019       0.00276840      -0.00310510       0.00016918
C       -1.22511010       2.15044021       4.09350853       0.00071037      -0.00081071      -0.00141805
C       -2.45206550       4.30495852       4.23530822      -0.00109684       0.00284573      -0.00616298
C       -3.66856161       6.45589294       4.21089494       0.00049714       0.00008647      -0.00559212
C       -4.90564251       8.59102085       4.03263895      -0.00246632      -0.00156659      -0.00003262
C        2.49096026       0.06712874       3.91697277       0.00154923       0.00070855      -0.00010658
C        1.22356418       2.15152360       3.65925962      -0.00195347       0.00258179      -0.00044111
C       -0.10754307       4.28109143       3.58443301      -0.00085648      -0.00244968       0.00284916
C       -1.25520089       6.44684654       3.84186316      -0.00396689       0.00115636      -0.00179851
C       -2.43511873       8.59414646       3.98669667      -0.00157917       0.00002669      -0.00395197
C        4.95983804       0.04867213       3.95258377      -0.00120306      -0.00103276      -0.00234194
C        3.73994847       2.20336152       3.70378624      -0.00041903      -0.00643224       0.00216443
S        1.14897266       3.52935483       1.27837229      -0.00167853       0.00134383       0.00777688
S        1.01709081       6.47633465       2.39716378      -0.00066738      -0.00378370      -0.00026010
C        0.01821215       8.58761947       3.70395444      -0.00279327       0.00067421       0.00116619
C        7.43115380       0.01557499       4.01753183      -0.00055926      -0.00356506      -0.00245897
C        6.20499154       2.15355753       4.09490594       0.00205551      -0.00123778       0.00129419
C        5.06297009       4.28827077       3.68114480      -0.00255276       0.00279581      -0.00215253
S        4.01086403       6.49924754       2.45725443       0.00060620       0.00417235       0.00653033
C        2.49419833       8.59125719       3.51661942       0.00151589      -0.00167108      -0.00159941
C        9.88871115       0.01202781       4.04865834       0.00041230      -0.00033699      -0.00079050
C        8.66095398       2.15061996       4.25572337       0.00108369       0.00222701       0.00192234
C        7.44352622       4.30051640       4.24398541      -0.00148139       0.00095822       0.00135861
C        6.24822034       6.45084744       3.91107852       0.00172326       0.00293177      -0.00152462
C        4.97164588       8.58421003       3.78357254      -0.00245752       0.00343630      -0.00225457
C        0.01786368       1.45494760       3.95559449      -0.00037935      -0.00193432       0.00263159
C       -1.24442693       3.57780479       4.05070912      -0.00162976       0.00014376      -0.00043825
C       -2.44940085       5.73185052       4.15915891       0.00075113       0.00282833       0.00263641
C       -3.66860097       7.87972029       4.09428039      -0.00168775      -0.00158344      -0.00087211
C       -4.90275864      10.02467450       3.99352959       0.00351253      -0.00169595       0.00204104
C        2.47329765       1.49941706       3.73208834      -0.00265045       0.00007290       0.00482439
C        1.00594663       3.47640082       3.04564846       0.01213883       0.00624134      -0.01096088
C       -0.16253663       5.66402619       3.40137416      -0.00370807      -0.00234005      -0.00232508
C       -1.21826624       7.87439415       3.81961533      -0.00185600       0.00015460       0.00390913
C       -2.44568060      10.02943934       3.94792263      -0.00002743       0.00090144      -0.00088356
C        4.97017370       1.46682538       3.93509489       0.00197210      -0.00229010       0.00007034
C        3.87864364       3.57260912       3.44755734       0.00450771      -0.00511089       0.00763196
C        1.23189046       7.94930999       3.33328985       0.00181351       0.00087946      -0.00207705
C        0.02570997      10.00681737       3.91999194      -0.00218894      -0.00217785       0.00419426
C        7.43401503       1.43511401       4.17016225       0.00206857      -0.00192471      -0.00067343
C        6.23892236       3.57340870       4.08351120       0.00082296      -0.00045034      -0.00050569
C        5.14884059       5.68883688       3.48727428       0.00072695       0.00377130       0.00109907
C        3.76424237       7.95224409       3.38150607      -0.00147196      -0.00264557       0.00096406
C        2.49240027       9.98732810       3.90608706       0.00095101      -0.00232406      -0.00047527
C        9.88839007       1.43509831       4.18147798       0.00032001       0.00003543      -0.00012021
C        8.66607479       3.58085381       4.30994714      -0.00033503       0.00311630       0.00009275
C        7.44970342       5.73105533       4.18943983       0.00013255       0.00080595       0.00333139
C        6.21148493       7.87699766       3.89353618      -0.00324885       0.00335552      -0.00097478
C        4.95954318      10.00073544       3.99090437      -0.00050995       0.00116588       0.00033810
Rh       2.55973397       4.73747719       2.65170628       0.00278506       0.00105168      -0.00580289
