49
Lattice="12.336457 0.0 0.0 -6.168228499999997 10.683685154694365 0.0 0.0 0.0 15.0" Properties=species:S:1:pos:R:3:forces:R:3 energy=-443.510241980568 free_energy=-443.510241980568 stress="-0.011158048908726497 -0.0009437700189949837 -7.488738101743007e-08 -0.0009437700189949837 -0.0037221648073894214 1.6149752620706767e-06 -7.488738101743007e-08 1.6149752620706767e-06 1.7685532169774938e-06" pbc="T T T"
C       -0.00199165       0.00612361       3.75487793      -0.00200947      -0.00437612       0.00693838
C       -1.25829094       2.10888178       3.70846925       0.00359408      -0.00270974      -0.01111740
C       -2.49527870       4.26539878       3.60775830      -0.00129216      -0.00500005      -0.00675623
C       -3.70268567       6.42032694       3.60352882      -0.00475523       0.00810343       0.00523565
C       -4.92183931       8.57045274       3.69165620      -0.00129730       0.00131912      -0.00022842
C        2.46887336       0.03128519       3.75015770      -0.00660275       0.00444296      -0.00063082
C        1.22150404       2.16204672       3.87048905      -0.00261860       0.00521644      -0.00507485
C       -0.08722814       4.24735605       3.81898601       0.00382159      -0.00218657      -0.00352811
C       -1.27228109       6.42032658       3.68845116       0.00501223      -0.01505964      -0.00516331
C       -2.47015167       8.56628688       3.66756757       0.00684865       0.00411356       0.00206446
C        4.93461639       0.01125922       3.69866214       0.00578194       0.00453703       0.00602187
C        3.70744912       2.16269478       3.81476779       0.00292691       0.00264057      -0.00350625
B        1.21776945       6.37203847       3.97504734       0.00862533       0.00179031       0.00532661
C       -0.00993569       8.55400365       3.74653696      -0.00149547      -0.00041679       0.01511692
C        7.40556926      -0.01628950       3.69399230       0.00505460       0.00448962       0.00097075
C        6.18228121       2.12057074       3.65790820      -0.00412004       0.00593882      -0.00760528
C        4.99949316       4.27298653       3.78256183       0.00025315       0.00182353      -0.00047201
C        3.78184274       6.39365894       3.97413642      -0.00601370      -0.00964446      -0.00914855
C        2.47334357       8.53321779       3.84485179      -0.00196920       0.00041636       0.00371527
C        9.86556582      -0.02070880       3.72835819       0.00351789       0.00018802      -0.00504050
C        8.63217498       2.11866568       3.61790942      -0.00447017      -0.00382826      -0.00031615
C        7.41481873       4.27101940       3.59685677      -0.00339820      -0.00251285      -0.00794532
C        6.20654304       6.43281479       3.70107859      -0.00078168      -0.00007107      -0.00561911
C        4.94748146       8.54180781       3.79507241      -0.00094744      -0.00276282      -0.00217878
C       -0.01786265       1.42172466       3.77901258       0.00130072      -0.00449845       0.00183652
C       -1.29265331       3.52495037       3.68268934       0.00386218      -0.00032873       0.00064103
C       -2.49174744       5.69723630       3.61353985      -0.00529120      -0.00124405      -0.01113080
C       -3.69897261       7.85057364       3.64389345       0.00223225       0.00938113       0.00607058
C       -4.92777125       9.99361768       3.73536728      -0.00518861      -0.00227711       0.00543431
C        2.46641326       1.45838043       3.83118179      -0.00279158       0.00530240       0.00897039
C        1.13428603       3.56149944       3.97940142      -0.00195207       0.00037074       0.00854937
C       -0.09837768       5.65504559       3.80649706       0.00756959      -0.00326159       0.01401486
C       -1.24522887       7.84772897       3.69847770       0.00273950      -0.01092832       0.00051958
C       -2.47111303       9.99347813       3.70272308       0.00100519       0.00764784       0.01103662
C        4.94637721       1.42832642       3.71651480       0.00275022       0.00414967       0.00265699
C        3.79101037       3.56633913       3.90114931       0.00473268       0.00170437      -0.01077950
C        1.23550898       7.86361580       3.84969266      -0.00357283       0.00025387      -0.00131607
C       -0.00283580       9.97295604       3.70242870       0.00595719       0.00296956       0.01111970
C        7.40918891       1.40400685       3.63975119      -0.00612234       0.00370557       0.00280475
C        6.20611756       3.54138120       3.64846711      -0.00368523       0.00234879       0.00087386
C        4.99401020       5.70125839       3.81795490      -0.00119509       0.00163292      -0.00958674
C        3.70747260       7.80419672       3.88420405      -0.00153324      -0.00484729      -0.00757245
C        2.46982654       9.95461524       3.74918951       0.00420292       0.00190691       0.00197177
C        9.85431186       1.39768094       3.67170673      -0.00002883      -0.00101744      -0.00667376
C        8.62735955       3.54798220       3.58260923      -0.00336597      -0.00544693       0.00761802
C        7.41525984       5.70322990       3.61599894      -0.00171440       0.00068013      -0.00247098
C        6.18745285       7.85207470       3.72964899      -0.00029412       0.00036069      -0.00253290
C        4.93600990       9.96063531       3.75848773       0.00059450      -0.00300226       0.00210406
Ru       2.50370685       4.92979030       4.42445003      -0.00387641      -0.00201383      -0.00521804
