49
Lattice="12.336457 0.0 0.0 -6.168228499999997 10.683685154694365 0.0 0.0 0.0 15.0" Properties=species:S:1:pos:R:3:forces:R:3 energy=-442.8742207040223 free_energy=-442.8742207040223 stress="-0.009975409254840662 -0.0019710646039207734 3.5641508125628674e-06 -0.0019710646039207734 -0.0017767590157322546 7.816190566118889e-07 3.5641508125628674e-06 7.816190566118889e-07 5.128649115797589e-08" pbc="T T T"
C       -0.00059874       0.00675394       3.75294841       0.00575462       0.00192114       0.00537111
C       -1.26242548       2.10559464       3.71993055       0.00222883      -0.00076422      -0.00675769
C       -2.50096776       4.26230328       3.61478721      -0.00759920      -0.00978338      -0.00414415
C       -3.70360704       6.42053170       3.59353195       0.00206702       0.00936978       0.00886575
C       -4.91946881       8.57154602       3.67546453       0.00420326       0.00582050      -0.00052289
C        2.47093626       0.03255592       3.74030635      -0.00772816      -0.00255508       0.00073403
C        1.22207411       2.16241929       3.86629152       0.00278006       0.00124180      -0.00465892
C       -0.08966154       4.24281544       3.81940534       0.00589434      -0.00067274      -0.00150847
C       -1.27677318       6.41836906       3.68119433      -0.00200107      -0.00969815      -0.00600795
C       -2.46542965       8.56572029       3.66019476       0.00392898       0.00522287       0.00313667
C        4.93651452       0.01101373       3.70466943       0.00004348       0.00232631       0.00683695
C        3.70260451       2.16976541       3.79534398      -0.00193340      -0.00140560       0.00429711
B        1.19786259       6.35969379       3.99892656       0.00003455       0.00208775      -0.00085853
C       -0.00244020       8.54556013       3.75547249      -0.00679213      -0.00135004       0.01344729
C        7.40766763      -0.02302285       3.71851608       0.00709076       0.00702823      -0.00051719
C        6.17560823       2.12652337       3.67970505      -0.00047334       0.00549980      -0.01091426
C        4.97125102       4.29485579       3.77321513      -0.00160320       0.00686011      -0.00028149
N        3.84139006       6.41737567       3.94844608      -0.01355419      -0.00526846      -0.00661577
C        2.48947356       8.51087723       3.85117588      -0.00561359      -0.00536429      -0.00395623
C        9.86508387      -0.02654834       3.74173103       0.00587248       0.00690063      -0.00420022
C        8.62640530       2.11666681       3.64415426      -0.00206183      -0.00254051       0.00538331
C        7.40303083       4.27337163       3.61022841       0.00109140      -0.00895097      -0.00968883
C        6.20768083       6.44242820       3.67446516       0.00335275      -0.00443997      -0.01400556
C        4.95456306       8.53778582       3.77753278       0.00394253       0.00039257       0.00220588
C       -0.01703261       1.42261680       3.78334005       0.00461183      -0.00226991      -0.00573347
C       -1.29578439       3.52181856       3.68935916       0.00158869      -0.00057956       0.00060435
C       -2.49537974       5.69488305       3.60818862      -0.00597414      -0.00418290      -0.00415993
C       -3.69501430       7.85060614       3.63017803       0.00502474       0.01020327       0.00816160
C       -4.92541886       9.99627055       3.72634260      -0.00101350      -0.00240000      -0.00286089
C        2.46500987       1.46088338       3.81669743      -0.00438886      -0.00477824       0.00717969
C        1.14837448       3.57071688       3.98187204       0.00154290      -0.00363414       0.01237637
C       -0.10916799       5.64921152       3.80366612       0.00166187      -0.00217394       0.00709210
C       -1.23998371       7.84420179       3.69573584      -0.00225887      -0.00712427       0.00596537
C       -2.46805600       9.99358211       3.69783365      -0.00356788       0.00471437       0.00958784
C        4.94252605       1.43142912       3.71987428       0.00113526       0.00458615       0.00662562
C        3.76188791       3.58645579       3.86452616       0.00544613      -0.00215965      -0.01179408
C        1.24668046       7.84541843       3.86087275      -0.00786798      -0.00164606       0.00261051
C       -0.00000085       9.96790615       3.71709122       0.00324874       0.00343960       0.01488469
C        7.40390190       1.40236574       3.66980531      -0.00061133       0.00568084       0.00073374
C        6.18730557       3.55382621       3.66594838      -0.00141573       0.00128532      -0.00661182
C        4.99458873       5.73337309       3.78702755      -0.00678619       0.00625327      -0.00644319
C        3.73789227       7.78704600       3.87350946      -0.00561756      -0.00787987      -0.00843682
C        2.47495131       9.94007946       3.76664787       0.00748682       0.00144783      -0.00377186
C        9.85017842       1.39392708       3.69105508       0.00016985       0.00691018      -0.00457754
C        8.61846581       3.54725067       3.60189224      -0.00372534      -0.01161208       0.01044292
C        7.41195335       5.70476800       3.60934508       0.00596530      -0.00481014      -0.00933619
C        6.19055253       7.85471741       3.70596651       0.00606720       0.00134656      -0.00453488
C        4.93718264       9.95859917       3.75675536       0.00542645       0.00706279       0.00605445
Ru       2.50100646       4.92164006       4.43355146      -0.00507337       0.00044250       0.00030149
