49
Lattice="12.336457 0.0 0.0 -6.168228499999997 10.683685154694365 0.0 0.0 0.0 15.0" Properties=species:S:1:pos:R:3:forces:R:3 energy=-431.28705741791345 free_energy=-431.28705741791345 stress="-0.00871632377677657 0.0021361580515355857 4.7049650012412505e-06 0.0021361580515355857 -0.01082065799257443 6.9120273513179735e-06 4.7049650012412505e-06 6.9120273513179735e-06 -1.8286552275273206e-06" pbc="T T T"
C        0.00205616      -0.01121134       3.73539322       0.00003493      -0.00779202       0.00030309
C       -1.21980310       2.13743266       3.55872569       0.00036153      -0.00855713       0.00219907
C       -2.47353557       4.27987743       3.58323393      -0.01130742       0.00270002       0.00002220
C       -3.70177114       6.41219882       3.67729984      -0.00013630      -0.00122496       0.01394246
C       -4.94364490       8.53192065       3.72753614       0.00714597       0.00298336      -0.00577761
C        2.46021972      -0.04514156       3.93936050      -0.00546318       0.00296609      -0.00250925
C        1.26836063       2.05409651       3.60827360       0.00792535      -0.00710255      -0.00051264
C       -0.09101077       4.31610896       3.27716561      -0.00676290       0.00037658      -0.00644541
C       -1.26468979       6.43416723       3.67941732       0.00531228      -0.00119239      -0.00628340
C       -2.47299785       8.53926684       3.89234592       0.00485657      -0.00561952      -0.00204303
C        4.93713927      -0.00723765       4.04833717      -0.00663297      -0.00317804       0.00103375
C        3.69417461       2.07733077       4.02152328       0.00741833       0.00172773       0.01288715
B        1.24219346       6.41304226       3.82703109       0.01337161      -0.00058590       0.00244022
C       -0.01407872       8.57049904       3.96141538       0.00080688       0.00548922      -0.00536642
C        7.40711953       0.02471257       3.99851686       0.00943950      -0.00472920      -0.00192679
C        6.18556876       2.13482414       3.98188188       0.00349515      -0.00203455      -0.00680931
C        5.02143582       4.27540759       3.74813883       0.00117096      -0.00259220      -0.00404895
P        3.39332744       6.24570001       3.05375366       0.00732708       0.00925883      -0.01193071
C        2.46684156       8.61240873       3.86011165      -0.00817221      -0.00924854       0.01361278
C        9.88514478       0.02168201       3.81265762      -0.00368521      -0.00224120      -0.01381452
C        8.65186578       2.14494714       3.79928016      -0.00562269       0.00699409       0.00374174
C        7.42894169       4.27203817       3.72276588      -0.00954635       0.00656227       0.00035283
C        6.19420700       6.41193217       3.51224164       0.00097774       0.00795298      -0.00040214
C        4.92762928       8.54594265       3.63977651      -0.01018262       0.00588129       0.00210093
C        0.00844778       1.41742382       3.62164678       0.00663615      -0.01024950       0.00976729
C       -1.25530970       3.55042486       3.43324900      -0.00902888      -0.00283132      -0.00452436
C       -2.47784969       5.70329897       3.64146314      -0.00061574       0.00132578      -0.00091532
C       -3.70622830       7.83054174       3.76437379       0.00610504      -0.00281856      -0.00064290
C       -4.94088052       9.95056961       3.80943440      -0.00124955      -0.00011771       0.00176730
C        2.46808191       1.37586655       3.91073600       0.00741702       0.00281933       0.00695643
S        1.43814319       3.61987562       2.89662722       0.01285623       0.00401161       0.00969705
C       -0.05608432       5.69317384       3.53356837       0.00730325       0.00241794      -0.00889126
C       -1.24337743       7.84315868       3.86839018       0.00707704      -0.00220537      -0.00223301
C       -2.46608563       9.95414524       3.99221644      -0.00925997      -0.00417865      -0.00535138
C        4.94727968       1.41593954       4.05025112       0.00337926      -0.00263582      -0.00554053
B        3.72932205       3.55817638       4.08318021       0.00204159       0.00142645      -0.00537010
C        1.23402487       7.91589601       3.90826002      -0.00649586      -0.00316132       0.00449302
C        0.00020762       9.98977647       4.02965519       0.00149348       0.00526845      -0.00165567
C        7.41714831       1.43880152       3.94920596       0.00353333      -0.00220626       0.00027664
C        6.21812848       3.54286989       3.83750091      -0.00123604      -0.00072430       0.00465612
C        5.01853323       5.63887717       3.43665883       0.00618005      -0.00101765      -0.00018334
C        3.66750796       7.90431232       3.61982887      -0.00962986       0.00203788      -0.00687306
C        2.47831359      10.02417962       3.92588727       0.00491304      -0.01095496       0.00443452
C        9.89104460       1.44168296       3.73160319      -0.00624403      -0.00027282       0.00134850
C        8.64964117       3.56177584       3.70756204      -0.01242235       0.00779512       0.00694263
C        7.41806327       5.69316861       3.62634290      -0.00260087       0.00511402       0.00380012
C        6.16585531       7.83066264       3.58954243      -0.00185517       0.01064200       0.00775128
C        4.93663515       9.97389275       3.73702528      -0.00578391       0.00076897      -0.00653453
Ru       2.35213708       4.91811268       4.58432659      -0.00464526       0.00295244       0.00205853
