49
Lattice="12.336457 0.0 0.0 -6.168228499999997 10.683685154694365 0.0 0.0 0.0 15.0" Properties=species:S:1:pos:R:3:forces:R:3 energy=-443.01668384309505 free_energy=-443.01668384309505 stress="-0.010397509830708477 -0.00036103706139556163 9.84005524608545e-07 -0.00036103706139556163 -0.0019366448890420585 -6.586490690439829e-07 9.84005524608545e-07 -6.586490690439829e-07 -3.2165596212825535e-07" pbc="T T T"
C       -0.00120589       0.01202136       3.70898840      -0.00715881       0.00044112       0.01409229
C       -1.25272353       2.11675643       3.63191413      -0.00036295       0.00630606      -0.00395305
C       -2.47959988       4.26951297       3.57886165      -0.00447642       0.00040198      -0.00618713
C       -3.69086293       6.42162037       3.62205709       0.00225935       0.00665190       0.00067152
C       -4.92705072       8.57011583       3.70068092       0.00013056       0.00354267       0.00596485
C        2.46105921       0.04704122       3.75916216      -0.00416900       0.00453868      -0.00058227
C        1.19504263       2.17813983       3.81098658       0.00436063       0.00374106      -0.00750997
C       -0.06980060       4.24024245       3.74018878       0.00279947      -0.00500786      -0.01043371
C       -1.25520109       6.41933413       3.68574410       0.00372511      -0.00065958      -0.00836449
C       -2.47503084       8.57200673       3.69743884       0.00056691       0.00441450       0.00150496
C        4.93310758       0.01088794       3.74499662      -0.00202209      -0.01097842       0.00322201
C        3.70241062       2.17835917       3.86176640       0.01153078      -0.00043891      -0.00034027
C        1.17338562       6.37520615       3.92302001      -0.00048994      -0.00148046      -0.00265277
C       -0.00973718       8.53887799       3.77132922      -0.00101726      -0.00315115       0.00346858
C        7.40171061      -0.02123008       3.70935970       0.00146293      -0.00460424      -0.00104684
C        6.18848994       2.11213727       3.69496722      -0.00003817      -0.00385445      -0.01038950
C        5.02634890       4.25359308       3.83504568       0.00124076       0.00396479       0.01267098
B        3.72007245       6.37397353       4.04741400      -0.01478271      -0.00252381      -0.00576140
C        2.46091565       8.53011426       3.84581405       0.00549310       0.00191167      -0.00222757
C        9.86207967      -0.02015918       3.69299251       0.00452317       0.01071116       0.00065715
C        8.63419766       2.11844342       3.60092420      -0.00143044      -0.00544545      -0.00147797
C        7.43194521       4.26837473       3.61565649       0.00072742      -0.00432532      -0.00556273
C        6.21431071       6.42377389       3.73932486      -0.00599564      -0.00421650      -0.00196698
C        4.94752685       8.55494354       3.79203145      -0.00086405      -0.00414364       0.00422328
C       -0.01961905       1.43077279       3.70509103      -0.00218165       0.00221794       0.00115497
C       -1.27555422       3.53178573       3.61082486      -0.00279821       0.00317075      -0.00127157
C       -2.47089710       5.70040993       3.61235753       0.00172148       0.00366387      -0.01119647
C       -3.69772639       7.85266196       3.66604390       0.00216707       0.00675462       0.00636866
C       -4.93029829       9.99940973       3.72236136      -0.00514489       0.00306009       0.01393071
C        2.45090952       1.48007663       3.83015257       0.00509287       0.00431438       0.00208872
N        1.07831322       3.54219405       3.87781012       0.00844066       0.00371812      -0.00667154
C       -0.03637418       5.67660582       3.78156197      -0.00068339      -0.00672234       0.00170963
C       -1.24661263       7.84576147       3.71731870      -0.00138120       0.00030679      -0.00142031
C       -2.47607245      10.00017946       3.73861618      -0.00593714       0.00077359       0.00302607
C        4.94338524       1.42839692       3.76645193       0.00604637      -0.01046804       0.00386148
C        3.80633523       3.56678688       3.97489397       0.00895584      -0.00248253      -0.00237084
C        1.23005688       7.79778727       3.85588663       0.00248351       0.00044618      -0.00237937
C       -0.00366803       9.96079752       3.74042841      -0.00073290      -0.00603548       0.00359595
C        7.41139843       1.39843570       3.65363217      -0.00136769      -0.00585067      -0.00225757
C        6.22970305       3.52945603       3.68531560      -0.00137415      -0.00097369      -0.00100340
C        5.03879445       5.66053276       3.86122398      -0.01240549       0.00284497       0.00232308
C        3.70172801       7.86422857       3.89528567       0.00042771      -0.00637137       0.00304720
C        2.46126920       9.95181466       3.74186275       0.00854298       0.00624241      -0.00047101
C        9.85845325       1.40147564       3.62322177       0.00262013       0.00845882      -0.00059653
C        8.64235375       3.54774650       3.57288985      -0.00084838      -0.00746614       0.00173248
C        7.43268322       5.70091271       3.64003751       0.00154356       0.00041691       0.00240661
C        6.18584654       7.85083055       3.74793001      -0.00032415      -0.00139313      -0.00229572
C        4.93623245       9.97185244       3.72179532      -0.00468805      -0.00066627       0.00882657
Ru       2.43536258       4.94355040       4.40106070      -0.00418763       0.00624441      -0.00015678
