49
Lattice="12.336457 0.0 0.0 -6.168228499999997 10.683685154694365 0.0 0.0 0.0 15.0" Properties=species:S:1:pos:R:3:forces:R:3 energy=-432.1461193580441 free_energy=-432.1461193580441 stress="-0.0017659243324588262 -0.0032293373283540944 -5.042108717526175e-06 -0.0032293373283540944 -0.0009877312263716568 4.573026240058657e-06 -5.042108717526175e-06 4.573026240058657e-06 5.611235257145696e-06" pbc="T T T"
C        0.02405775       0.01848354       3.76293907       0.00503896      -0.00729451       0.00438230
C       -1.23580567       2.12675315       3.57252707      -0.00508311       0.00149300       0.01012536
C       -2.48573547       4.27370163       3.66719250       0.00246695       0.00719065      -0.00813833
C       -3.68716198       6.41884633       3.82324371      -0.00250264       0.01022550       0.01062066
C       -4.90160643       8.56003047       3.86923129       0.00333066      -0.00639627       0.00230092
C        2.49314062      -0.00897349       3.72638744       0.00622172       0.00358346       0.00045154
C        1.25695337       2.11414453       3.37168761       0.00120421       0.01486745       0.01036301
C       -0.10339675       4.26061866       3.11260126      -0.01006042       0.00019411      -0.00740513
C       -1.24435213       6.41985130       3.58974541      -0.00432968      -0.01291345      -0.00479034
C       -2.42834846       8.54816685       3.78595536       0.01451485       0.00180108       0.00939656
C        4.96157995       0.00341393       3.82433481      -0.00361446       0.00170470      -0.01372133
C        3.69968463       2.12336775       3.74115228       0.00811556      -0.00739173       0.00806629
B        1.22286563       6.36127818       3.66021840       0.01338792      -0.00539129       0.01362785
C        0.04503258       8.53941732       3.78479664      -0.00792331       0.00146373      -0.00344804
C        7.42545877       0.00429208       3.88650029      -0.00667958      -0.00077522      -0.00201265
C        6.16553540       2.16609803       3.90073727      -0.00375134       0.00310883      -0.00930051
C        4.94059699       4.36941096       3.97997235      -0.00401940       0.00686863       0.00382823
O        3.80520606       6.49545199       4.13483552       0.01042157       0.00704425       0.00672414
C        2.53276176       8.53962407       3.91377737      -0.00394142      -0.00256301      -0.00555796
C        9.89098719       0.00557547       3.86033355      -0.00398970       0.00028023      -0.00359552
C        8.63768616       2.14514743       3.83075051      -0.00216529       0.00237052       0.00299594
C        7.39801062       4.29256761       3.90746416       0.00925376      -0.00494032      -0.01023281
C        6.20053955       6.45174162       3.99703049       0.00265870      -0.00351462       0.00432571
C        4.97739236       8.56714669       3.95900884      -0.00668123      -0.00362444       0.00375550
C        0.00674919       1.43220059       3.57224311      -0.00165254      -0.00046252       0.01044141
C       -1.28347039       3.52986796       3.44890008      -0.00530363       0.00283978      -0.00489748
C       -2.47143957       5.70312023       3.69123929      -0.00874734       0.00349704       0.00251984
C       -3.66747875       7.84284843       3.82671210       0.01143267       0.00934143       0.00787693
C       -4.90801484       9.98190646       3.78646811       0.00974135      -0.00722967      -0.00148923
C        2.49127419       1.41378893       3.60630656       0.00266128       0.00614470       0.00545730
S        1.15658368       3.42446772       2.12636879      -0.00311114       0.00504263       0.00419709
C       -0.05606319       5.66663156       3.32841729       0.00393681      -0.00648261      -0.00347539
C       -1.19264819       7.83225415       3.72706675       0.00183166      -0.01376647      -0.00179553
C       -2.43428070       9.97081420       3.78941892       0.00431740       0.00196722      -0.01270552
C        4.94780129       1.43851199       3.83856869       0.00374817      -0.00528192      -0.00458501
B        3.63378254       3.62614051       3.86380538       0.00467667      -0.00828879      -0.01418732
C        1.29967319       7.83912771       3.79869635      -0.00805253       0.00373601       0.00483204
C        0.02809499       9.97175012       3.84679332      -0.00955561       0.00336298      -0.00396234
C        7.40533656       1.43804758       3.89141041      -0.00530133       0.00228407      -0.01562083
C        6.15535182       3.59950939       3.93782301      -0.00248237       0.00530762       0.00562773
C        4.97747588       5.78006693       4.04317625       0.00000055       0.00744117      -0.00935350
C        3.77633166       7.85612939       3.98860505      -0.00337219      -0.00204432      -0.00085847
C        2.50207265       9.96959977       3.90349032      -0.00359362      -0.00220501       0.01232373
C        9.87480557       1.42903153       3.76786886      -0.00703160       0.00154544       0.00055796
C        8.62583719       3.56836024       3.81340286       0.01246946       0.00034589      -0.00222673
C        7.41556617       5.71230741       3.91598748       0.00472737      -0.00347649       0.00391152
C        6.20980849       7.86310600       3.95649569      -0.00405306      -0.00559766       0.00172219
C        4.95874983       9.99027945       3.86813542      -0.00267775      -0.00388789      -0.00019578
Ru       1.83441154       4.50252478       3.95489628      -0.00648193      -0.00152391      -0.00687600
