49
Lattice="12.336457 0.0 0.0 -6.168228499999997 10.683685154694365 0.0 0.0 0.0 15.0" Properties=species:S:1:pos:R:3:forces:R:3 energy=-431.28788643838885 free_energy=-431.28788643838885 stress="-0.006089167610059384 0.0023050029631679512 1.4060550057654247e-05 0.0023050029631679512 -0.008716382153761734 1.2151682160619593e-05 1.4060550057654247e-05 1.2151682160619593e-05 7.609088738821588e-07" pbc="T T T"
C       -0.00092019       0.00087157       3.68809854       0.00092364      -0.00097436       0.00053024
C       -1.22397419       2.14383030       3.74810982      -0.00636305       0.00214742       0.00554220
C       -2.46245240       4.27941393       3.62418238      -0.00165534       0.00262409      -0.00221736
C       -3.69814365       6.41361948       3.47599936       0.00185608      -0.00158901       0.00208280
C       -4.95328418       8.54046417       3.50421410       0.00478041      -0.00496750      -0.00345394
C        2.46050283      -0.02668187       3.67746287       0.00598358      -0.00463162       0.00396367
C        1.25370209       2.10714551       3.94403416       0.00098734       0.00142286      -0.00041270
C       -0.07634882       4.29413641       4.13046769       0.00093783      -0.00698121       0.00393565
C       -1.29965504       6.43270695       3.96656662       0.00245560       0.00359482       0.00752419
C       -2.47716487       8.54339833       3.68037758      -0.00294821      -0.00303911       0.01202390
C        4.93730624      -0.01242630       3.67311169       0.00142851      -0.00103882       0.00147085
C        3.70419196       2.06836705       3.75999231       0.00348654       0.00323247      -0.00176670
P        1.19495723       6.41933830       5.18758343      -0.00644332      -0.01343281      -0.00132438
C       -0.01788597       8.57060892       4.00447623      -0.01178864       0.00791547       0.00351973
C        7.40124167       0.01743859       3.74355808      -0.00284181      -0.00047344       0.00032012
C        6.18543670       2.12210636       3.54179760       0.00634921      -0.00259707      -0.00249292
C        5.02148699       4.27040911       3.43501548       0.00541477       0.00165956      -0.01206625
S        3.42289269       6.26928339       3.25743363      -0.00070784      -0.00051914      -0.00587048
C        2.45819913       8.60821724       4.02290661      -0.00139663      -0.00492945      -0.00969040
C        9.87764096       0.01710767       3.72060722      -0.00473072      -0.00129029       0.00291734
C        8.65157748       2.14089640       3.56815993       0.00230284      -0.00569079      -0.00721671
C        7.43833955       4.26937201       3.36370919       0.00489329       0.00390722      -0.00537273
C        6.19022381       6.42534720       3.26400104      -0.00131448       0.00812901       0.00595421
C        4.91697899       8.54317475       3.59913388       0.00088655       0.00065450      -0.01044834
C        0.00708181       1.42716840       3.80403865      -0.00340474       0.00145903       0.00417578
C       -1.24795448       3.56063628       3.80224429      -0.00600562       0.00102986       0.00175185
C       -2.48324620       5.70385325       3.66040995       0.00437503       0.00249498       0.00224140
C       -3.71014440       7.83531298       3.53396230       0.00066604      -0.00623952       0.01303854
C       -4.94488050       9.96188841       3.62613599       0.00584156      -0.00543222      -0.00635607
C        2.46791557       1.38974998       3.80960141       0.00351170      -0.00158863       0.00262865
B        1.27680177       3.59157056       4.26115729      -0.00063555       0.00057828       0.00294973
C       -0.16224887       5.68005783       4.33028546       0.00963129       0.00060871      -0.00468498
C       -1.25951381       7.85049526       3.90626098      -0.00486850       0.00304228       0.01360900
C       -2.47164734       9.96238936       3.66411400       0.00439203      -0.00455453       0.00172638
C        4.94912718       1.40579204       3.63207181       0.00461160      -0.00045027       0.00735520
B        3.76672799       3.55773055       3.87431112      -0.00649075       0.00949796       0.00257633
C        1.22247626       7.94098825       4.27744684      -0.00909624       0.01162683       0.00006007
C       -0.00165055       9.98184770       3.78127433      -0.00385576       0.00226262       0.00244452
C        7.41399176       1.42695723       3.59276361       0.00379608      -0.00444063      -0.00804358
C        6.22439979       3.53179148       3.40668786       0.00829636       0.00106242      -0.00142836
C        5.02143490       5.65544498       3.24801542      -0.00193896       0.00907860       0.00744525
C        3.66203090       7.90431351       3.74956503       0.00083317      -0.00592278      -0.01261767
C        2.47065253      10.01530626       3.83201143      -0.00473322      -0.00142092      -0.00247263
C        9.88296587       1.43697643       3.66208383      -0.00146100      -0.00182815      -0.00047701
C        8.65958660       3.56156297       3.48645257       0.00149789      -0.00295450       0.00800896
C        7.42610570       5.69445022       3.32818989      -0.00234914       0.00700670      -0.00201497
C        6.14789275       7.83717866       3.42685380       0.00104202       0.00446810      -0.00421046
C        4.93448771       9.97880615       3.67872976      -0.00284977       0.00110530      -0.00988263
Ru       2.72015135       4.82813492       4.99905245      -0.00330168      -0.00362232      -0.00527526
