50
Lattice="12.336457 0.0 0.0 -6.168228499999997 10.683685154694365 0.0 0.0 0.0 15.0" Properties=species:S:1:pos:R:3:forces:R:3 energy=-451.9346451953796 free_energy=-451.9346451953796 stress="-0.0061270416780113465 -0.0013128745375147414 -8.737364220789575e-06 -0.0013128745375147414 -0.0023305042775369324 -1.8265271702658828e-05 -8.737364220789575e-06 -1.8265271702658828e-05 -2.937388298754387e-06" pbc="T T T"
C       -0.00176279      -0.00522225       3.60102249      -0.00408237       0.00696779      -0.00173323
C       -1.25068129       2.12268339       3.62013211       0.00358641      -0.01245579      -0.00176353
C       -2.48492218       4.26442621       3.62074031       0.00557219       0.00219707      -0.00416386
C       -3.70108343       6.41051828       3.60035324       0.00050578      -0.00455838      -0.00085259
C       -4.92476692       8.55337257       3.59862625      -0.00662892      -0.00250926      -0.01173670
C        2.46978910       0.00908411       3.63287432      -0.00063762      -0.00671786       0.00019836
C        1.21539841       2.11826172       3.74527745       0.00412582       0.00079251       0.01003750
C       -0.04430551       4.25343054       3.84260301      -0.00893552      -0.00209995       0.00070754
C       -1.25562838       6.40973540       3.71355951      -0.00099260      -0.00046413       0.00241043
C       -2.46751586       8.55075405       3.61933686       0.00787687       0.00088149       0.00095635
C        4.93766278      -0.00416452       3.64158983       0.00516980       0.00712125       0.00265043
C        3.70769683       2.13278522       3.76868486      -0.00520757       0.00283530       0.01095328
B        2.43730070       4.22140675       4.25980397       0.00445328       0.01431372       0.00357085
C        1.15377744       6.42210480       4.11890326      -0.00789047       0.01069913      -0.00561623
C       -0.00462595       8.53920750       3.72741341      -0.00099614      -0.01057264      -0.00400315
C        7.40317365      -0.01668571       3.64566450      -0.00591774      -0.00376908       0.00242721
C        6.16955003       2.13363337       3.65573106      -0.00778802      -0.00889632       0.00152013
C        4.94956753       4.28679143       3.85739032       0.00515247       0.00298286       0.00443230
N        3.83817378       6.48275202       4.09092490       0.01371305       0.00805064      -0.01070488
C        2.48053217       8.52206111       3.82569291       0.00290919       0.00572745      -0.00037692
C        9.86455195      -0.01784291       3.61853994       0.00321073      -0.00600438       0.00209152
C        8.62756698       2.12408796       3.58900450       0.00033523       0.01023343       0.00302131
C        7.40089765       4.27077819       3.63128545      -0.01157400      -0.00176146      -0.00948122
C        6.18785595       6.42312402       3.69075774       0.00278730       0.00099264      -0.00393583
C        4.95718893       8.54654597       3.67671831      -0.00010541      -0.00369279      -0.00523549
C       -0.01400305       1.41207988       3.63605890       0.00611125       0.00339747       0.00534985
C       -1.26574211       3.54427469       3.67022528      -0.00317581      -0.01402650      -0.00646042
C       -2.47705116       5.69346818       3.63105245       0.00326198       0.00018973       0.00394565
C       -3.69583156       7.83656330       3.59835187       0.00081130       0.00087157      -0.00537672
C       -4.93049454       9.97733768       3.60161974      -0.00951541       0.00073065       0.00296482
C        2.46563601       1.43006839       3.72521961       0.00031450      -0.00423758       0.00272721
C        1.15032229       3.52305760       3.91913850      -0.00379530       0.00192916       0.00745297
C       -0.03701412       5.67997075       3.89525418      -0.00001913       0.00530901      -0.00907569
C       -1.23963258       7.83358576       3.68649419       0.00142015      -0.00781523       0.00530720
C       -2.46563966       9.97473528       3.62413796       0.00971015       0.00248434       0.00840356
C        4.93913640       1.41914670       3.67475780      -0.00692177       0.00363624       0.00518262
C        3.75289317       3.55026472       3.93912256       0.00502724       0.00058841       0.01047967
C        1.23475331       7.82160172       3.89185897       0.00238672       0.00259759      -0.00261111
C        0.00167228       9.95946400       3.66324451      -0.00308513      -0.00823643      -0.00421283
C        7.39862800       1.41068104       3.61301273      -0.00244408       0.00097286       0.00797433
C        6.17548230       3.56195196       3.69537921      -0.00792939      -0.00884166      -0.00211727
C        4.96428868       5.72642729       3.88428816       0.00470837       0.00781021      -0.01214971
C        3.74130561       7.83151291       3.85789604       0.00178448       0.00087595      -0.00842344
C        2.46918060       9.94823981       3.67502264      -0.00041013      -0.00043751       0.00470044
C        9.85785839       1.40727058       3.58785770      -0.00014337      -0.00565572       0.01152140
C        8.62567116       3.55092793       3.59411182       0.00005512       0.01308965      -0.00279719
C        7.40584130       5.69784637       3.62810532      -0.00263382      -0.00499170       0.00377823
C        6.18435345       7.84049671       3.64895724      -0.00306498      -0.00523807      -0.00711953
C        4.93481843       9.96322302       3.61969532       0.00272124      -0.00421822      -0.01085672
Ru       2.47645505       5.82688047       5.35716604       0.00618407       0.00892251       0.00603909
