49
Lattice="12.336457 0.0 0.0 -6.168228499999997 10.683685154694365 0.0 0.0 0.0 15.0" Properties=species:S:1:pos:R:3:forces:R:3 energy=-431.7930225754776 free_energy=-431.7930225754776 stress="-0.004940109242083106 -0.003253043271081805 -4.200649390366582e-06 -0.003253043271081805 -0.004807778452462359 -8.319808727893875e-06 -4.200649390366582e-06 -8.319808727893875e-06 -1.0598969485799486e-06" pbc="T T T"
C       -0.00142241       0.00058643       3.91608728      -0.00747332       0.00310676      -0.00381436
C       -1.26601312       2.11629442       3.95445480       0.00252579      -0.00595688       0.00252092
C       -2.52524616       4.26071521       3.96767478       0.01590021       0.00469961      -0.00046642
C       -3.71295391       6.40997813       3.93193463       0.00060492      -0.00101815       0.00486411
C       -4.92193865       8.55533563       3.92016627      -0.00574040       0.00398834      -0.00071637
C        2.47666258      -0.02495595       3.80260633      -0.00354444      -0.00738223       0.00075113
C        1.24103286       2.09524801       3.85487398       0.00267203       0.00725278      -0.00351218
C       -0.10419362       4.26977917       4.03872722       0.00624760      -0.00336213       0.00061386
C       -1.27557093       6.41224220       3.95816921       0.00645210       0.00648667       0.00697083
C       -2.45611726       8.53899869       3.86818107      -0.00909837      -0.01168237      -0.00802682
C        4.93602696      -0.01739532       3.64933990      -0.00491031       0.00670278       0.00327887
C        3.66411800       2.06122922       3.33517731      -0.00038617       0.00505153      -0.00770525
B        1.26142750       6.32158132       3.86903164      -0.00152014      -0.01126156       0.00597038
C        0.01740137       8.52289920       3.77707772      -0.00878832      -0.00411793       0.00267040
C        7.39702710      -0.00992674       3.68161294      -0.00084537      -0.01017077       0.01583366
C        6.13773708       2.14962409       3.52799549       0.00892741      -0.00784349       0.00005722
C        4.94524116       4.38310098       3.31145583      -0.00248002      -0.00311428      -0.00804475
O        3.88042522       6.55946363       3.21857672      -0.00235793      -0.01070678      -0.00379022
C        2.50200991       8.52227916       3.71220144      -0.00062805       0.01217352       0.00639220
C        9.85757600      -0.00797487       3.82562993       0.01114983       0.01318104      -0.00801695
C        8.60149621       2.13134333       3.80059871      -0.00008031      -0.00241991      -0.00445621
C        7.35900803       4.28004131       3.76780989      -0.00887547      -0.00244663      -0.00694974
C        6.20328455       6.45520925       3.76288779      -0.00237253       0.00469275       0.00965376
C        4.96036700       8.56600546       3.83523329       0.00014720       0.00352892      -0.01546901
C       -0.01426889       1.41917683       3.93030783       0.00002927      -0.00054738      -0.00074821
C       -1.30127576       3.53159149       4.01275113       0.01207922      -0.00769014       0.00994706
C       -2.50321406       5.68801747       3.96753265       0.01269425       0.01069094       0.00976605
C       -3.69067970       7.83443870       3.92122251      -0.01012689      -0.00527399      -0.00085028
C       -4.92863357       9.97495924       3.90101064      -0.00942984       0.00134423       0.00715980
C        2.46182595       1.39516501       3.67447454       0.00253882       0.00155502       0.01362073
B        1.25422347       3.57685765       3.99727475       0.00968380       0.00769912      -0.00022726
C       -0.09109521       5.66136240       3.98691066      -0.00420157      -0.00582414      -0.00432508
C       -1.22631398       7.82682486       3.86816912      -0.00669611      -0.00058010       0.00044626
C       -2.45787165       9.95713446       3.77161738      -0.00264626      -0.00988446      -0.01143251
C        4.92168653       1.40995934       3.47376704       0.00350205       0.01227539       0.00128608
S        3.57564629       3.55449958       2.39862860       0.00027419      -0.00360408      -0.00041375
C        1.26814147       7.81868173       3.76879171      -0.00178858      -0.00235784      -0.01122046
C        0.00367855       9.95347311       3.69112046      -0.01005810      -0.00399792       0.00814533
C        7.37061819       1.42736203       3.66757314       0.00504009      -0.01612055       0.00012823
C        6.13231182       3.58159167       3.54683348      -0.00608231      -0.01039417      -0.00173483
C        5.03019294       5.78491003       3.42918754       0.00052129      -0.00539173       0.01646204
C        3.75807090       7.86703164       3.67915879      -0.00137623       0.00224080      -0.00515557
C        2.47064324       9.95917321       3.73391335       0.01094864       0.01534142       0.00311285
C        9.83987490       1.41535287       3.86969495       0.00183506       0.00565675       0.00508573
C        8.58698909       3.55431169       3.85979934       0.00485494       0.00413902      -0.00694712
C        7.39693442       5.69943613       3.84626640      -0.00514269       0.00125094      -0.00398199
C        6.19259529       7.86566146       3.86541060      -0.00068041       0.00662299      -0.00273013
C        4.93231348       9.98194478       3.88304614      -0.00098986       0.00374948      -0.01621299
Ru       2.71761415       4.88792978       3.92275262      -0.00030874       0.00971880       0.00221099
