49
Lattice="12.336457 0.0 0.0 -6.168228499999997 10.683685154694365 0.0 0.0 0.0 15.0" Properties=species:S:1:pos:R:3:forces:R:3 energy=-432.67232475011343 free_energy=-432.67232475011343 stress="-0.0036972442555588798 0.003929481883275846 2.7709356854210776e-06 0.003929481883275846 -0.003153345531793684 3.0939388566391825e-07 2.7709356854210776e-06 3.0939388566391825e-07 8.13942677104778e-07" pbc="T T T"
C        0.01700132      -0.00467761       3.68924673      -0.00471375      -0.00533115      -0.00228277
C       -1.19859327       2.13372603       3.84562284      -0.00228326      -0.00316843       0.00387287
C       -2.42550286       4.27998064       3.93216066       0.00435732       0.00973746      -0.00636424
C       -3.68174778       6.40774282       3.80471468      -0.01552243      -0.00158543       0.00382644
C       -4.94169945       8.53531971       3.68896529       0.00718443      -0.00402711       0.00039447
C        2.47732547       0.03391819       3.64066140      -0.01218857       0.00607541       0.01024598
C        1.23524159       2.12932703       3.59341239      -0.00464315       0.00311117      -0.00454163
C        0.01325250       4.26615974       3.88992272       0.00634449      -0.01205722      -0.01243006
C       -1.23350298       6.42033148       3.74171816       0.00128189      -0.00980855       0.00649671
C       -2.47561609       8.55977919       3.67467386       0.00419924      -0.00464826       0.00609481
C        4.93245489       0.01979182       3.67470582       0.00254761       0.00553313      -0.01168068
C        3.76299877       2.13960887       3.71792138      -0.00307823      -0.00648206       0.01247759
C        1.18248808       6.55027940       3.76169101       0.00223721      -0.00064197      -0.01123549
C       -0.02337323       8.58968696       3.63586788       0.00264996       0.01189492      -0.00826860
C        7.41616435       0.01542221       3.71852863       0.00970359      -0.00491794       0.00564665
C        6.21084390       2.11591817       3.84537912       0.00174088      -0.00166450      -0.00328655
C        5.03431557       4.18368862       3.91861703       0.00084481      -0.00234431       0.00088389
S        3.47870026       6.16954894       3.38168306       0.00824123      -0.00355552      -0.00867641
C        2.46713390       8.59743429       3.62653136      -0.00311029       0.00108132      -0.00549328
C        9.89886615       0.00834522       3.73594974      -0.00422024       0.00121417      -0.00614063
C        8.67832816       2.13840197       3.87489215      -0.01093893      -0.00079352       0.00010151
C        7.45314910       4.26622129       3.92523243       0.00742124       0.00092126       0.00351781
C        6.18337638       6.37459437       3.78403810       0.00293266       0.00556248      -0.00047377
C        4.92977519       8.52300845       3.66038183       0.00325280       0.00478411       0.00755887
C        0.02790708       1.42847307       3.71061020      -0.00112120      -0.00346575      -0.00137717
C       -1.19582047       3.55462263       3.95440669       0.00315960       0.00004714      -0.00148138
C       -2.44296681       5.69631096       3.83585481      -0.01286640       0.00690499       0.00631488
C       -3.69962715       7.83296787       3.71707526       0.00170230      -0.00548887       0.00683303
C       -4.92099812       9.97862931       3.65809547      -0.00620154      -0.00458832       0.00329543
C        2.49932995       1.48325300       3.62833302      -0.00679049       0.00635182       0.00761187
O        1.15071063       3.53896579       3.34335167       0.00663113       0.00181211       0.00279504
C        0.02199017       5.70070901       3.78457008       0.00525729      -0.01308099       0.00213208
C       -1.24209593       7.85117137       3.67579383       0.00980665      -0.00395427      -0.00204404
C       -2.46972909       9.99421905       3.65166395      -0.00611506       0.00454974      -0.00005680
C        4.95675693       1.44008785       3.73645058       0.00264416       0.00083531      -0.00477564
O        3.82975798       3.49946708       3.88860978      -0.00664719      -0.00670982       0.01311637
C        1.21806254       7.90694252       3.61655442      -0.00566404       0.00351854      -0.00890117
C       -0.00135162      10.00359815       3.66654735       0.00895222       0.01052726       0.00007831
C        7.43516420       1.42587542       3.81881517      -0.00412061      -0.00814650      -0.00504291
C        6.23805459       3.51800476       3.93980494       0.00569380       0.00097508       0.00106496
C        5.01274606       5.57026967       3.79093401       0.00307628       0.00469679       0.01230938
C        3.66493915       7.87294981       3.60700360       0.00026759       0.00676075      -0.00327630
C        2.48558466      10.00755694       3.69192102       0.00342951      -0.00370454      -0.00083256
C        9.91190142       1.43109967       3.82672568      -0.01039561       0.00022628       0.00311681
C        8.68476504       3.55956918       3.92610645       0.00731516       0.00335679       0.00379794
C        7.43215667       5.68159109       3.85956606      -0.00619175      -0.00309211      -0.00482338
C        6.15984611       7.80561530       3.69718937       0.01054299       0.00451571       0.00199485
C        4.94772570       9.96418433       3.69785270      -0.00390814       0.00147394      -0.00416748
Ru       1.78120372       4.97885749       4.46836516      -0.00269719       0.00678945      -0.00792559
