49
Lattice="12.336457 0.0 0.0 -6.168228499999997 10.683685154694365 0.0 0.0 0.0 15.0" Properties=species:S:1:pos:R:3:forces:R:3 energy=-437.0272423834538 free_energy=-437.0272423834538 stress="-0.003725635292813988 -3.7702188082435465e-06 -1.922306519180494e-06 -3.7702188082435465e-06 -0.0028988774693517964 4.686808737793977e-06 -1.922306519180494e-06 4.686808737793977e-06 1.5038957152352068e-06" pbc="T T T"
C       -0.00566258       0.01342049       3.91668935       0.01146187       0.00612984       0.00410314
C       -1.24737265       2.13119788       3.99349324      -0.00099278      -0.00397217      -0.00272027
C       -2.48151859       4.26916797       4.00296527       0.00768705      -0.00267708       0.00211707
C       -3.71113750       6.40820360       3.92927069      -0.00100327       0.01141944      -0.00756964
C       -4.94459021       8.55072192       3.86547859      -0.00649106      -0.00317701       0.00188936
C        2.45849632      -0.00230130       3.90117139      -0.01117713      -0.00092792       0.00085823
C        1.23435828       2.16717020       3.82650689      -0.00337488      -0.00049924       0.00203242
C       -0.02214591       4.26811758       3.95660468       0.01098638       0.00688883       0.01268917
C       -1.25617290       6.41646908       4.01337091      -0.00932775      -0.00382430      -0.00603173
C       -2.48232673       8.54747416       3.98190196       0.00450612       0.00259436       0.00169221
C        4.93207840      -0.01471776       3.86304520      -0.00567354      -0.00235363       0.00629028
C        3.69009573       2.05205247       3.46320733      -0.00514538       0.00626110      -0.00088136
C        1.20083549       6.38240845       3.81874308       0.00619453      -0.00294001       0.00223955
C       -0.00688148       8.52976841       3.93730980       0.00881461      -0.00518455       0.00595803
C        7.39448261      -0.00947031       3.91522485      -0.00172987      -0.00011302       0.00211641
C        6.17249925       2.11947676       3.67257837       0.00568860      -0.00441222      -0.00677729
C        5.05188863       4.27272983       3.11714794      -0.01640505      -0.00359272      -0.00298204
P        3.62912271       6.49837559       2.38070915      -0.00119684      -0.00401959       0.00418845
C        2.46059571       8.54910993       3.74759054      -0.00861094      -0.00258968      -0.01346255
C        9.86017130      -0.00116305       3.92605797      -0.00064906      -0.00812018       0.00636555
C        8.62369774       2.13123263       3.94073426       0.00238736       0.00183590      -0.00418218
C        7.40893129       4.26821189       3.76016984       0.00068652       0.00014240      -0.00491736
C        6.20380432       6.42920737       3.52580007       0.01276954       0.00184876      -0.00144704
C        4.94041086       8.57055053       3.66113417      -0.00432002       0.00670125      -0.00771210
C       -0.00691517       1.43674767       3.93768583       0.00267018       0.00411338       0.00652641
C       -1.25720086       3.55019943       4.01306156       0.01140053      -0.00156913      -0.00557181
C       -2.48075009       5.69762619       4.00400606      -0.00985667      -0.00312289      -0.00668988
C       -3.71237725       7.83489164       3.94030223       0.00035788       0.01089979      -0.00033384
C       -4.94186998       9.97628645       3.91483955      -0.00216817      -0.00507504       0.00195582
C        2.46046320       1.41758329       3.74701135      -0.00759219      -0.00180049      -0.01133934
C        1.20093242       3.58389235       3.81863427      -0.00667136      -0.00422189       0.00108048
C       -0.02164528       5.69756354       3.95674230       0.00331531       0.00898873       0.01266371
C       -1.24731970       7.83560637       3.99275490       0.00497924      -0.00450308       0.00450243
C       -2.47581027       9.96808334       3.92663283      -0.00895704       0.00118634       0.00167371
C        4.94025445       1.39594857       3.66073189       0.00098594      -0.00444157      -0.00589425
P        3.62913996       3.46736474       2.38016280       0.00999228       0.01056181       0.00561141
C        1.23437793       7.79915174       3.82721091       0.00319129      -0.00242228      -0.00240741
C       -0.00510047       9.95296563       3.91583043      -0.00131815      -0.00232989       0.01099329
C        7.39113344       1.41598267       3.86645852       0.00618596       0.00067741      -0.00466497
C        6.20434707       3.53739592       3.52522559      -0.00150282      -0.00318627      -0.00189424
C        5.05127412       5.69366221       3.11727701       0.00092525       0.00277867       0.00525275
C        3.69024040       7.91486698       3.46257883      -0.01000457      -0.00823448       0.00256911
C        2.45823483       9.96917433       3.90190298      -0.00665679      -0.00646113      -0.00433450
C        9.85417779       1.41932933       3.98153479      -0.00489829      -0.00806249       0.00655148
C        8.62501705       3.55787969       3.92849879       0.00329834       0.00176860      -0.00275906
C        7.40871747       5.69836432       3.76027241       0.00929724      -0.00012636      -0.00157217
C        6.17287036       7.84716454       3.67335253      -0.00249578       0.00193685      -0.01367388
C        4.93137584       9.98121701       3.86295102       0.01055849       0.00683636       0.01004091
Ru       2.67016599       4.98218683       3.72215466      -0.00012112       0.01039052      -0.00214247
