49
Lattice="12.336457 0.0 0.0 -6.168228499999997 10.683685154694365 0.0 0.0 0.0 15.0" Properties=species:S:1:pos:R:3:forces:R:3 energy=-432.49151519154907 free_energy=-432.49151519154907 stress="0.002804614026886323 0.0073115173766675106 -5.8398161820542415e-06 0.0073115173766675106 0.0061496079262163515 -3.0230754322980736e-06 -5.8398161820542415e-06 -3.0230754322980736e-06 -3.817535104943379e-06" pbc="T T T"
C        0.00758505       0.00853775       3.64471456       0.00075328       0.01067500      -0.00303810
C       -1.16904319       2.17140881       3.70698659       0.00199541      -0.00217713      -0.00752931
C       -2.42995936       4.29904147       3.89040559      -0.00136727       0.00164937       0.00469077
C       -3.72686171       6.42323353       3.86536766      -0.01132291       0.00013602       0.00694499
C       -4.95456183       8.55377084       3.76533206       0.00244932       0.00098085      -0.00961964
C        2.47138630       0.03636532       3.74878493      -0.00683209       0.00143984       0.00089468
C        1.30598800       2.15736786       3.26429621      -0.00037728       0.00107905      -0.01686066
C        0.02498589       4.41610234       4.00843622       0.00429977      -0.00755656       0.00227578
C       -1.29701016       6.48273676       4.04244667      -0.00727768       0.00210092      -0.00224412
C       -2.49610398       8.58465914       3.89686125       0.00176447      -0.00073327      -0.00131848
C        4.94042570       0.01636976       3.82596640      -0.00013946      -0.00435851       0.00203232
C        3.77040235       2.12444662       3.68955378      -0.01248052       0.00088102      -0.00663596
O        1.11247528       6.51239001       4.31687792      -0.00142298       0.00712491       0.00695251
C       -0.02643355       8.57495364       3.93137023       0.00780381      -0.00678939       0.01448733
C        7.43143662      -0.01474725       3.81956414       0.00938817      -0.00972473       0.00258203
C        6.22268698       2.12617995       3.77577146      -0.00067901       0.00432616      -0.00562930
C        4.99107194       4.23152092       3.69782728       0.00323499       0.00178577       0.00156722
C        3.65882064       6.29213769       3.64831844       0.00766929      -0.00101622       0.00478186
C        2.44209021       8.48728255       3.81572125       0.00042137      -0.00592591       0.00247476
C        9.88851168      -0.01262751       3.73784826       0.00226700       0.00673376       0.00254533
C        8.69071052       2.14095749       3.79835883       0.00091478       0.00889670      -0.00936519
C        7.42906279       4.27304137       3.78764687       0.00454182       0.00100263      -0.00048462
C        6.14512090       6.38950087       3.72719833       0.00272961      -0.00787467       0.01100050
C        4.90080183       8.49701039       3.70215620      -0.00007145      -0.00518531       0.00411369
C        0.04711568       1.45424333       3.54283784       0.00443538       0.00698855      -0.00323227
C       -1.15302548       3.61260326       3.86029493      -0.00798089      -0.00631499      -0.00530845
C       -2.49219408       5.71864154       3.94369729      -0.01112130       0.00343516      -0.00951549
C       -3.72941085       7.85168021       3.85117020      -0.00055601       0.00088225      -0.00250850
C       -4.93478588       9.98481872       3.71496546      -0.00260344       0.00421216      -0.00678635
C        2.51878050       1.47215271       3.62347358      -0.01291279      -0.00022072      -0.00361463
S        1.45551880       3.34808158       1.96589127      -0.00858262      -0.00604151       0.00664061
C       -0.08365407       5.80810272       4.12450895      -0.00244890       0.00191615       0.00910013
C       -1.27686442       7.89439986       3.97524906       0.00305418       0.00218016       0.01355012
C       -2.47531204      10.01112445       3.83830559      -0.00390573      -0.00213203      -0.00441419
C        4.97495382       1.43691139       3.76734327      -0.01015019       0.00219343       0.00530723
O        3.81631489       3.50583120       3.74228763       0.00323546       0.00117976      -0.00827011
C        1.18552898       7.86237211       3.95617594       0.00430442      -0.00468368       0.00053815
C        0.00825848       9.98828241       3.85725120       0.00662475      -0.00990222       0.00705155
C        7.44766149       1.42125265       3.80035690       0.00418904      -0.00101019      -0.00665909
C        6.20549781       3.54112063       3.74547538       0.00433270       0.00659557      -0.00789581
C        4.88595892       5.64225239       3.68175503       0.00666021      -0.00009033       0.00268355
C        3.65697061       7.70629361       3.71821785      -0.00419704      -0.00535632       0.00553371
C        2.48159193       9.93487669       3.79257237       0.00810726      -0.00692075      -0.00299241
C        9.92533546       1.43315428       3.75623063      -0.00044759       0.00824124      -0.00915273
C        8.67952891       3.57179027       3.82363514       0.00254621       0.00672251       0.00076932
C        7.38322540       5.69567083       3.78952878      -0.00242489      -0.00634581       0.00183039
C        6.14187100       7.81282742       3.72246238       0.00345571      -0.00757261       0.00912827
C        4.93481408       9.94463689       3.69551866       0.00031792       0.00457247      -0.00297428
Ru       1.94012444       4.75378766       3.55770312       0.00780571       0.01000145       0.00657292
