49
Lattice="12.336457 0.0 0.0 -6.168228499999997 10.683685154694365 0.0 0.0 0.0 15.0" Properties=species:S:1:pos:R:3:forces:R:3 energy=-434.491080452034 free_energy=-434.491080452034 stress="-0.0006079118925202438 -0.0006718836900143075 -1.4366107469781701e-06 -0.0006718836900143075 0.002095927445090433 6.087256641657263e-06 -1.4366107469781701e-06 6.087256641657263e-06 -1.8853765267690517e-06" pbc="T T T"
C        0.01686401      -0.01126937       3.72830383      -0.00388397       0.00209015      -0.00255226
C       -1.22714818       2.11351344       3.80071863      -0.00228982      -0.00024049       0.00231692
C       -2.46095437       4.27267940       3.83857732       0.00596023       0.00315229       0.00362916
C       -3.68854783       6.40953545       3.74954277      -0.00196319      -0.00218845       0.00361242
C       -4.91737154       8.54571240       3.72779608      -0.00848345      -0.00552588       0.00014602
C        2.48986456       0.03461104       3.65231274      -0.00826954      -0.01056161      -0.00260083
C        1.22522321       2.10690461       3.56541821      -0.00558450      -0.00750111      -0.00719155
C       -0.03793681       4.24546263       3.86018844       0.00515581       0.00393046       0.00142343
C       -1.23795370       6.41352952       3.67864770       0.00522728       0.00346227       0.00989977
C       -2.45327430       8.55960178       3.64942944       0.00358607       0.00595325       0.00771498
C        4.94272621       0.02299566       3.64491827       0.00661346       0.00528110       0.00074386
C        3.74798785       2.17027319       3.72437301       0.00558794      -0.00130665       0.00514881
C        1.20644583       6.49959077       3.77466522      -0.00735198       0.00078264       0.00077124
C        0.00982704       8.56786463       3.63144012      -0.00387181      -0.00004473       0.00392436
C        7.42511746      -0.00643838       3.70418969      -0.00814150       0.00102409       0.00894375
C        6.18401411       2.14871521       3.75382414       0.00112701       0.00565560      -0.00699203
C        4.97051528       4.28310583       3.87197729       0.00437309       0.00861751       0.00192081
O        3.78302740       6.42782550       3.95487976       0.00117389      -0.00386460       0.00418248
C        2.52489755       8.52658927       3.74361532       0.00052157       0.00479774       0.00088724
C        9.89012277      -0.01797006       3.76576127       0.00527334      -0.00376256       0.00111452
C        8.65084531       2.13359281       3.79656561       0.00309490      -0.00339831      -0.00260348
C        7.41007941       4.27866966       3.81617083      -0.01070674      -0.00551921      -0.00743660
C        6.17569362       6.39954706       3.82210396      -0.00110021      -0.00048154      -0.00613895
C        4.95353136       8.51995277       3.79921848       0.00312834       0.00309706      -0.01011452
C        0.01118906       1.41560633       3.70534849      -0.01077939      -0.00181223       0.00135441
C       -1.24142637       3.53446037       3.87850857       0.00422385      -0.00165975       0.01044142
C       -2.45717729       5.69170706       3.75592110       0.00737994       0.00498538       0.00265988
C       -3.67990984       7.83751034       3.70289389      -0.00215054       0.00153826      -0.00243150
C       -4.90758448       9.98538487       3.69553214      -0.01244866      -0.00678447      -0.00388643
C        2.49988534       1.48431991       3.63165912      -0.00344869      -0.00825836       0.00264591
O        1.13953722       3.46555152       3.19581682       0.00736434       0.01568378       0.00197204
C        0.00720938       5.69647226       3.74830992       0.00499404      -0.00847015       0.01198751
C       -1.22175813       7.84656252       3.63596116       0.00149933       0.00016569       0.00202617
C       -2.45380726       9.99508170       3.64071268       0.00455097       0.00591430      -0.00338444
C        4.94439876       1.45580661       3.69305249       0.00849851       0.00407537       0.00343140
O        3.79631597       3.53665904       3.93545500       0.01405508      -0.00084180      -0.00179214
C        1.25858433       7.86037464       3.67850513      -0.00353021       0.00261655      -0.00092450
C        0.01211106       9.98720777       3.64907751      -0.00352337      -0.00163826       0.00198888
C        7.41283399       1.42519663       3.74920853      -0.00271418       0.00221064       0.00162765
C        6.17585398       3.57165897       3.81410301      -0.00854496       0.00112876      -0.01783596
C        4.96651866       5.69330968       3.88361588       0.00449714       0.00388292      -0.00661934
C        3.74737627       7.80249292       3.82987915       0.00465039       0.00071265       0.00110963
C        2.49827870       9.94996236       3.73508622      -0.00260283       0.00622308      -0.00359779
C        9.88593856       1.41306765       3.79087609       0.00422405      -0.00818476      -0.00577937
C        8.64572710       3.55925800       3.82058146      -0.00107889       0.00048768      -0.00122131
C        7.41222152       5.69308254       3.80126921      -0.00565743      -0.00586992      -0.00386352
C        6.19118466       7.82592487       3.78884410      -0.00509765      -0.00388564      -0.00707576
C        4.94767459       9.95291610       3.76835605       0.00666134       0.00219228      -0.00587814
Ru       1.70262130       4.85437960       4.37150771      -0.00019839      -0.00786101       0.01229575
