49
Lattice="12.336457 0.0 0.0 -6.168228499999997 10.683685154694365 0.0 0.0 0.0 15.0" Properties=species:S:1:pos:R:3:forces:R:3 energy=-440.90409918880994 free_energy=-440.90409918880994 stress="-0.007046029928806391 -0.0023634580803158244 -2.43075922100989e-07 -0.0023634580803158244 0.002306677577390544 -4.839710117288533e-06 -2.43075922100989e-07 -4.839710117288533e-06 -1.1779706364047e-06" pbc="T T T"
C       -0.00098477       0.00080852       3.74085943      -0.00088633      -0.00156186      -0.00616723
C       -1.26436641       2.10713244       3.71750632      -0.00031672      -0.00020070      -0.00838882
C       -2.48548971       4.26585746       3.69055123      -0.00064648      -0.00227542      -0.00869810
C       -3.69005446       6.41963309       3.68571718       0.00708517       0.00533382       0.00312245
C       -4.91729532       8.57029648       3.71562767       0.00272094       0.00383410       0.00456850
C        2.46045885       0.04855235       3.72515393      -0.00637089       0.00130905       0.00720032
C        1.18539334       2.13767539       3.73406195       0.00221988      -0.00329380      -0.00711172
C       -0.08006303       4.23792294       3.69393402       0.00688973      -0.00458700      -0.01463525
C       -1.25077320       6.40503071       3.67318529       0.00513769       0.00133537      -0.00518990
C       -2.46767259       8.56934694       3.69347606      -0.00502336      -0.00158817      -0.00176707
C        4.93175451       0.01573490       3.73063263      -0.00623957      -0.00339721      -0.00651635
C        3.69069812       2.19840852       3.79644516       0.00200487       0.00349774       0.00153548
C        1.18220843       6.38490024       3.77179756      -0.00886067      -0.00164699      -0.00061445
C       -0.00592514       8.53810582       3.72062441      -0.00303942      -0.00009718      -0.00136560
C        7.40507906      -0.03024143       3.74134782       0.00461500      -0.00031543      -0.00383021
C        6.17493602       2.12876300       3.74859211       0.00130765       0.00016217      -0.00068043
C        4.96980243       4.29936535       3.84972262      -0.00494104      -0.00136364       0.00369539
N        3.82896002       6.41057552       3.92233241      -0.00703450      -0.00061552      -0.00497021
C        2.48305984       8.48489388       3.79639636      -0.00060044      -0.00647593       0.00365794
C        9.86043473      -0.03762048       3.75066181       0.00004201       0.01088946       0.00281776
C        8.62638712       2.11624394       3.71688031      -0.00546857      -0.00585144       0.00367902
C        7.41245531       4.27278134       3.71939145       0.00726206      -0.00325975       0.00503572
C        6.21350950       6.43860100       3.75639296      -0.00188185      -0.00252858      -0.00604629
C        4.95409455       8.53254037       3.78000926       0.00312794       0.00801866       0.00280894
C       -0.02164168       1.42376638       3.73353000       0.00029216      -0.00576483      -0.00844530
C       -1.27302344       3.52699235       3.69632605       0.00285689       0.00037412      -0.00066993
C       -2.46874338       5.69250146       3.67625026       0.00628522       0.00315703      -0.00220298
C       -3.69041378       7.85070168       3.69223255      -0.00009598       0.00103907      -0.00097924
C       -4.92691672      10.00159705       3.72419050      -0.00101899      -0.00117751       0.00676498
C        2.43550552       1.49000100       3.75246301       0.00114441       0.00059111       0.01634046
O        1.10868501       3.52945359       3.59942689       0.00738340      -0.00591817      -0.00555151
C       -0.01942880       5.64843443       3.71029430       0.00058872      -0.00480436      -0.00393971
C       -1.24005334       7.83604410       3.69186321      -0.00225502       0.00202502       0.00286017
C       -2.47416494      10.00155507       3.71459595      -0.01000938      -0.00283682       0.00617252
C        4.93115790       1.44033302       3.75687678       0.00112006       0.00047927       0.00254214
C        3.76268733       3.59664366       3.89811685      -0.01002382       0.00251133      -0.00476841
C        1.23810989       7.78657959       3.76042692      -0.00438714      -0.00646298       0.00449751
C       -0.00295836       9.96048138       3.73087833       0.00034555       0.00046672      -0.00613928
C        7.40293146       1.39867827       3.73106262      -0.00226338      -0.00387457       0.00773064
C        6.19464975       3.55503646       3.75909162       0.00236650       0.00080230       0.00728763
C        4.99882559       5.73107772       3.84832470      -0.00609758      -0.00311141      -0.00005131
C        3.73365008       7.78262976       3.83810093       0.00164851      -0.00270908       0.00111060
C        2.46874039       9.92136473       3.76082533       0.00629870       0.00016525       0.00834212
C        9.85648707       1.39412448       3.72504511      -0.00340882       0.00879017       0.00356332
C        8.63073098       3.54911786       3.70244543       0.00214443      -0.00966521       0.00079684
C        7.42538356       5.70486749       3.71462976       0.00607877       0.00106529       0.00053782
C        6.19459023       7.85307719       3.74939318       0.00258601       0.00496013       0.00302402
C        4.93478315       9.95189961       3.75699746      -0.00303110       0.01072139      -0.00193165
Ru       2.46121267       5.03628253       4.36003188       0.01034876       0.01385499       0.00096867
