49
Lattice="12.336457 0.0 0.0 -6.168228499999997 10.683685154694365 0.0 0.0 0.0 15.0" Properties=species:S:1:pos:R:3:forces:R:3 energy=-441.1051181803831 free_energy=-441.1051181803831 stress="-0.00787327108971006 0.0004371839729017613 2.6175569746345803e-06 0.0004371839729017613 0.001310310725832995 -4.452995070834384e-08 2.6175569746345803e-06 -4.452995070834384e-08 -3.143903227781646e-08" pbc="T T T"
C        0.00288962       0.01474919       3.72600234       0.00535232       0.00092321       0.00450067
C       -1.25379444       2.11898010       3.78012574       0.00011018      -0.00558032       0.00036864
C       -2.49894419       4.26792027       3.75492650       0.00359949      -0.00056564       0.00471635
C       -3.71347585       6.41971533       3.68334608      -0.00066187       0.00836988      -0.00452360
C       -4.92980998       8.57116675       3.66616413      -0.00665556       0.00782714       0.00592010
C        2.47601566       0.04616606       3.72974585      -0.00155345      -0.00042710      -0.00753852
C        1.23686280       2.18771614       3.83123463      -0.00848894       0.00028394      -0.00868102
C       -0.07499259       4.27190153       3.93165915       0.00698941       0.00603767       0.00453257
C       -1.28728280       6.42743829       3.84272186       0.00445635       0.00152091       0.00686990
C       -2.48134559       8.56896953       3.74222040      -0.00035107      -0.00679907       0.00557424
C        4.93610240       0.00002421       3.74387172       0.00149869      -0.00027939       0.00231876
C        3.74337515       2.13448703       3.69893336      -0.00013645       0.00411338       0.00300699
C        1.15596774       6.39849939       4.03816838       0.00444069      -0.00581338       0.01069454
C       -0.01123749       8.53715883       3.83883209       0.00566573      -0.00706794      -0.00765796
C        7.41085096      -0.03631784       3.75517244      -0.00368088       0.00282728       0.00221395
C        6.18745727       2.11414744       3.67781174       0.00095938       0.00403269       0.00563128
C        5.00070109       4.26604580       3.61691958      -0.00083429      -0.00285243      -0.00121062
N        3.81053181       6.41473656       3.70224902       0.00505330      -0.00130369       0.00328772
C        2.47929643       8.48785667       3.81565819      -0.01153950      -0.00304842      -0.00634856
C        9.86594683      -0.03003693       3.73928803       0.00314180      -0.00553200       0.00284441
C        8.63346084       2.11646001       3.71259423      -0.00538410      -0.00086872       0.00075159
C        7.40373257       4.27250415       3.64819831      -0.00864265       0.00069883      -0.00047331
C        6.18769885       6.42034129       3.59619066       0.00743831      -0.00223878       0.00015212
C        4.95061178       8.53947191       3.68475662       0.00574113       0.00391760       0.00105008
C       -0.00263084       1.43549976       3.78098987      -0.00355931      -0.00631435       0.00005954
C       -1.28805984       3.53993031       3.81999584       0.01036357      -0.00100494      -0.00097137
C       -2.49984983       5.70119223       3.75769088       0.00146199       0.00681728      -0.00331492
C       -3.70597704       7.85063937       3.69104755      -0.00786790       0.00581794      -0.00338396
C       -4.92486950      10.00319591       3.70634890      -0.00048712       0.00256258       0.00168721
C        2.49533995       1.48644888       3.75648871      -0.00506630       0.00258970      -0.00831342
C        1.15079586       3.57696807       3.96701066      -0.00279335      -0.00392191      -0.00179983
C       -0.07869844       5.69318758       3.95677718       0.00183681       0.00098968       0.00150856
C       -1.25894502       7.85074586       3.81136103       0.00575185      -0.00120844       0.00568963
C       -2.47209771       9.99902996       3.73619041       0.00044307      -0.00520960       0.00123401
C        4.95108859       1.42435051       3.70586090       0.00162030       0.00554579      -0.00545546
O        3.82439699       3.51924388       3.49227730       0.00499657      -0.00096278       0.00161734
C        1.23255014       7.79938373       3.90269608      -0.00234137      -0.01316669      -0.01136028
C        0.00093676       9.95340905       3.77736452       0.00190003      -0.00416999      -0.00130544
C        7.40418259       1.39719707       3.70872927      -0.00381965       0.00111136       0.00341505
C        6.18742391       3.54175085       3.64004000      -0.00388727      -0.00174286       0.00524640
C        4.96853738       5.69035122       3.61661846       0.00731326      -0.00402636      -0.01403503
C        3.72987245       7.78410692       3.73885685      -0.00197131       0.00253721       0.00747535
C        2.47370888       9.92318660       3.76812700      -0.00530646       0.00065691      -0.00578225
C        9.85792166       1.39664530       3.74065460      -0.00264011      -0.00415235      -0.00304004
C        8.62194364       3.54889334       3.69703013      -0.00537801       0.00214696      -0.00201522
C        7.39936440       5.69613135       3.62813716       0.00215235       0.00039738       0.00661697
C        6.17955668       7.84491864       3.63689387       0.00219401       0.00115269       0.00230718
C        4.93810990       9.96163114       3.71672395       0.00984457       0.00375337      -0.00348383
Ru       2.46217288       5.03040991       4.24401741      -0.01127826       0.01162575      -0.00059650
