49
Lattice="12.336457 0.0 0.0 -6.168228499999997 10.683685154694365 0.0 0.0 0.0 15.0" Properties=species:S:1:pos:R:3:forces:R:3 energy=-441.47493019719104 free_energy=-441.47493019719104 stress="-0.00679295643847759 -0.00012383982820912508 4.865267776410402e-06 -0.00012383982820912508 0.0010145782656588948 -1.9108636341933613e-06 4.865267776410402e-06 -1.9108636341933613e-06 5.492372993268875e-07" pbc="T T T"
C       -0.00234244       0.01115371       3.80346565      -0.00933439      -0.00271278      -0.00622163
C       -1.25125834       2.12324089       3.82905090       0.00944822       0.00149658      -0.00717544
C       -2.48288439       4.26703268       3.76346470       0.00856577       0.00696276      -0.00590082
C       -3.70914454       6.41617096       3.70421113       0.00009462      -0.00829517       0.00705190
C       -4.93572042       8.56434030       3.73410072       0.00111414      -0.00669539      -0.00245266
C        2.46553203       0.02336568       3.76161829       0.00210036       0.00180600       0.00395569
C        1.23202733       2.16277381       3.87740774      -0.00425067       0.00550143       0.00289493
C       -0.03654055       4.29354648       3.90488584      -0.00488305      -0.00250905       0.00231721
C       -1.28083028       6.43222108       3.75477810      -0.00072406       0.00460851       0.00541460
C       -2.47819882       8.56441173       3.71123442       0.00074600      -0.00808188       0.00107360
C        4.93856038      -0.00205007       3.70260400       0.00822085       0.00106679       0.00389286
C        3.70724491       2.15001942       3.73827924      -0.00155455       0.00365649      -0.00700443
N        1.09619557       6.40977990       3.89861596      -0.00089190      -0.00522185       0.00764583
C       -0.00711828       8.52629745       3.72488780       0.00115222       0.00556054      -0.00089211
C        7.41260045      -0.03847959       3.71138755      -0.00425520      -0.00677306       0.00830376
C        6.18180530       2.12249908       3.67627586      -0.00470228       0.00586017       0.00961964
C        4.95189001       4.30505720       3.65908764      -0.00127806      -0.00226617      -0.01005567
O        3.83355912       6.44234624       3.46900214       0.00684045       0.00396407      -0.00142325
C        2.48028355       8.45570476       3.74365606      -0.00089503       0.00610055       0.01261356
C        9.85966932      -0.03493640       3.76879433      -0.00529240      -0.00745618      -0.00516617
C        8.63303261       2.11699552       3.72942134       0.00370745      -0.00688904       0.00203971
C        7.40445883       4.26916632       3.67908196      -0.00266645       0.00355847       0.00389598
C        6.19701549       6.43152746       3.68407024       0.00313891      -0.00073161      -0.00667291
C        4.94286125       8.54066011       3.74746932      -0.00024738       0.00114166      -0.00110886
C       -0.01062755       1.43077461       3.84548782      -0.00019625      -0.00159416       0.00075570
C       -1.25768965       3.55363636       3.83557911       0.00388566      -0.00018464      -0.00794444
C       -2.48905301       5.69713053       3.73436797       0.00229070       0.00581389       0.01433051
C       -3.70545477       7.84626596       3.71225663      -0.00024448      -0.01392517      -0.00002873
C       -4.93287542       9.99334492       3.77072736      -0.00494843      -0.00125805      -0.00076190
C        2.46503904       1.45115625       3.80023440      -0.00403392       0.00651831       0.00128650
C        1.19548828       3.59101921       3.97421460      -0.00568083       0.00295391      -0.00931364
C       -0.06577759       5.72453468       3.85388425      -0.00870508      -0.00532507      -0.00128343
C       -1.25296687       7.84480314       3.72149001       0.00244513       0.00235697       0.00463928
C       -2.47264248       9.98879971       3.72043344       0.00811554      -0.00261857      -0.00161199
C        4.94886010       1.41569776       3.69704474      -0.00036458       0.00350018      -0.00776080
C        3.74665112       3.56004724       3.73288095       0.00718091      -0.00132624      -0.01176182
C        1.20585076       7.77049235       3.77722846       0.00014922       0.00697382       0.01674770
C        0.00391550       9.94981966       3.70321305       0.00182443       0.00149899       0.00201834
C        7.41051661       1.39551287       3.69876628      -0.00634977      -0.00616105       0.00364037
C        6.18500803       3.55474780       3.65471190      -0.00170165       0.00228075      -0.00068604
C        5.00958453       5.71530240       3.63437534       0.00737851      -0.00472938      -0.00250924
C        3.73744596       7.82992498       3.71418410       0.00135912       0.00433595      -0.00907924
C        2.47064967       9.90839000       3.73942353      -0.00574317       0.00136990       0.00465059
C        9.85825015       1.40021630       3.77617640       0.01113274      -0.00861776       0.00556667
C        8.63185160       3.54810603       3.72082301       0.00505559       0.00503019      -0.00493305
C        7.41139960       5.69508732       3.68908719       0.00028241       0.00083648       0.00107416
C        6.18468621       7.85190575       3.72223099      -0.00109085       0.00050496      -0.00538858
C        4.93237040       9.96608403       3.78275805      -0.00779657      -0.00215660      -0.00750588
Ru       2.51421501       4.94290456       4.16628907      -0.00839795       0.01027054      -0.00078638
