50
Lattice="12.336457 0.0 0.0 -6.168228499999997 10.683685154694365 0.0 0.0 0.0 15.0" Properties=species:S:1:pos:R:3:forces:R:3 energy=-446.6740251088848 free_energy=-446.6740251088848 stress="-0.0028834633806368915 0.0009160561627591185 6.706545497244412e-06 0.0009160561627591185 -0.00675408534558283 4.879842866435504e-06 6.706545497244412e-06 4.879842866435504e-06 -2.269923956456318e-06" pbc="T T T"
C       -0.01230046      -0.01177737       3.93517879       0.00218328      -0.00700532       0.00292732
C       -1.24287824       2.12904575       4.01772690       0.00330788      -0.00259427       0.00336920
C       -2.48026138       4.26568578       3.96619131      -0.00973348       0.00329091      -0.00008369
C       -3.72295671       6.39636455       3.87660825      -0.00736074       0.00086310      -0.00801590
C       -4.95423912       8.52795818       3.85290319       0.00890977       0.00081250       0.00175970
C        2.45200005      -0.03446923       3.96219838      -0.00497496       0.00291201      -0.00046127
C        1.22726089       2.11300502       4.02318141       0.00109862       0.00500922      -0.00535019
C       -0.01500617       4.25333783       3.87549668      -0.00095336      -0.00307521       0.00642733
C       -1.26054383       6.39490495       3.67974251      -0.00098374      -0.00717266      -0.00667797
C       -2.48024740       8.52510597       3.79945755      -0.00252268      -0.00722401       0.00570204
C        4.91970550      -0.02192085       3.86119873      -0.00237964       0.00071130       0.00620157
C        3.68698501       2.08475399       3.95822330      -0.00377338      -0.00256427      -0.00192311
C        2.48227926       4.21712333       3.93911952       0.00139453      -0.01685933      -0.00468424
P        1.27798735       6.28098342       2.58761716       0.00864544       0.00300571       0.00163273
C       -0.03599182       8.56504347       3.49444659       0.00357184       0.00085918      -0.00391701
C        7.37985003       0.01214886       3.75695603       0.00152178       0.00760265      -0.01708683
C        6.15526348       2.11392737       3.92864520      -0.00354221       0.00708197       0.00013766
C        4.93260637       4.20311742       3.75544533      -0.00166885       0.00285087       0.00670122
P        3.87267973       6.40487494       2.17135887      -0.01183055       0.00619354       0.00012490
C        2.43411532       8.65985688       3.24624061       0.00586193      -0.00121600      -0.00276721
C        9.86022580       0.01734069       3.80140290      -0.00483660       0.00461160      -0.00859124
C        8.62321187       2.13252878       3.96470145      -0.00452847      -0.00785192       0.00795490
C        7.39125964       4.25986347       3.92553435       0.00382335      -0.00412290       0.00360058
C        6.14925275       6.39918494       3.72825870       0.00887126       0.00541673       0.00694129
C        4.93561264       8.56692854       3.58650917       0.00347010       0.00343063       0.00718140
C       -0.00802284       1.41102059       4.01126301       0.00738586      -0.00487370       0.00564163
C       -1.24696305       3.54964170       3.99573466      -0.00646449       0.00058465       0.00079210
C       -2.48770952       5.68703911       3.86804178      -0.00894562       0.00479476      -0.00227665
C       -3.72107345       7.81785521       3.85263368      -0.00095897      -0.00417935      -0.00129209
C       -4.95278171       9.94746721       3.92811393       0.00302086      -0.00267839      -0.00742127
C        2.45231789       1.38645891       4.00474337      -0.00436803       0.00508078      -0.00714410
C        1.23843483       3.54920760       3.95731599       0.00254952       0.00599349       0.01075333
C       -0.06456835       5.63331361       3.56368205      -0.00023943      -0.01357460      -0.00434042
C       -1.25276993       7.82302581       3.63390362       0.00066968      -0.00505338      -0.00489968
C       -2.48229468       9.94601480       3.87816171      -0.00663748      -0.00269565       0.00073412
C        4.92197903       1.39523175       3.92879091      -0.00323791       0.00368776       0.00184418
C        3.69956341       3.50560234       3.88091543      -0.00521702      -0.00159652       0.00246189
C        1.20440009       7.95869385       3.16069577       0.00882793       0.00228582       0.00049359
C       -0.02093287       9.97394552       3.71309789       0.00294346       0.00514229      -0.00638425
C        7.38768043       1.41857116       3.91019388      -0.00590557       0.00316442      -0.00260182
C        6.16362842       3.53301759       3.88945103       0.00107515       0.00459574      -0.00256953
C        4.90659728       5.63655548       3.56681894       0.01284989      -0.00336644      -0.00492782
C        3.68208524       7.92024096       3.22703527       0.00303709      -0.00364127       0.00504244
C        2.45250310      10.02263579       3.60341786       0.00028568       0.00169248      -0.00328956
C        9.85980426       1.42408746       3.95505545      -0.00155786      -0.00078940       0.00439807
C        8.62241267       3.55470149       3.98236563      -0.00185903      -0.00904598      -0.00667189
C        7.37369475       5.68814249       3.87235359       0.00133228      -0.00298597       0.00685146
C        6.14023063       7.82061041       3.71967366       0.01063021       0.00900031       0.00293340
C        4.92566929       9.97346516       3.79035693      -0.00455716       0.00169629       0.00249989
Ru       2.94852371       6.14324328       4.12250037       0.00176982       0.01179581       0.00826982
