49
Lattice="12.336457 0.0 0.0 -6.168228499999997 10.683685154694365 0.0 0.0 0.0 15.0" Properties=species:S:1:pos:R:3:forces:R:3 energy=-444.7257971446091 free_energy=-444.7257971446091 stress="-0.010112908922455574 2.703333563633998e-06 5.16748002087264e-07 2.703333563633998e-06 0.0003465043333358734 1.8080288296265244e-06 5.16748002087264e-07 1.8080288296265244e-06 -9.608478904805341e-07" pbc="T T T"
C       -0.00337404       0.00668090       3.74160051      -0.01222706       0.00533824       0.00501528
C       -1.25381741       2.11680723       3.73600585       0.00634534       0.00765791      -0.00385776
C       -2.48334773       4.26607720       3.68341235      -0.00087126       0.00887003       0.00422942
C       -3.70127775       6.42178264       3.66335289       0.00227836      -0.00657666       0.00180512
C       -4.92608014       8.57207739       3.70131215       0.00026635      -0.00831637      -0.00013173
C        2.46684293       0.03481063       3.74526617      -0.00110157       0.00337600       0.00256603
C        1.22425150       2.16555586       3.79894107      -0.00003333       0.00260805      -0.00503434
C       -0.04999082       4.28977890       3.77633839       0.00255271      -0.00716207      -0.00823402
C       -1.28258028       6.43590749       3.69065046       0.00095861       0.00304453      -0.00240311
C       -2.47636265       8.57227841       3.69450323      -0.00120667      -0.00560003       0.00225899
C        4.93674032       0.00753527       3.74534438       0.01862424      -0.00516819       0.00119292
C        3.70900453       2.16578139       3.80704220       0.00206248       0.00109857       0.00309395
N        1.08622922       6.41174827       3.82419895      -0.00324180      -0.00078506       0.00448998
C       -0.01269761       8.53405009       3.74233573       0.00010622       0.00516167       0.00086725
C        7.41027163      -0.03993582       3.74984082       0.00243871      -0.00680733       0.00061276
C        6.18761843       2.11732461       3.75166809      -0.00652732       0.00383387      -0.01000441
C        4.98364052       4.28978883       3.80009757       0.00519119      -0.00473482       0.00058154
N        3.84845275       6.41251529       3.84484318      -0.00754446      -0.00875104      -0.00078510
C        2.46676076       8.46080965       3.79088128       0.00186244       0.01030262       0.00599773
C        9.85972767      -0.04005952       3.74616585      -0.00379257      -0.01065436       0.00333159
C        8.63512080       2.11171036       3.71415474      -0.00039779      -0.01033720       0.00370392
C        7.41768681       4.26591512       3.69722050      -0.00784896       0.01323901      -0.00404233
C        6.21706025       6.43558285       3.71283743      -0.00239128       0.00422489      -0.00304835
C        4.94660124       8.53372713       3.75160087       0.00039092       0.00551955      -0.00803360
C       -0.01529713       1.42464470       3.75845337      -0.00064877       0.00687947       0.00257362
C       -1.26586654       3.54674049       3.72275374       0.00071350       0.00652001      -0.00339358
C       -2.48868448       5.69866126       3.66927268       0.00353339       0.00663136      -0.00523726
C       -3.70122399       7.85256439       3.67830798      -0.00010484      -0.01547982       0.00179531
C       -4.93014331       9.99749778       3.72794623      -0.01121689      -0.00049551       0.00237651
C        2.46674332       1.46201924       3.79187112      -0.00193072       0.00665572       0.00051363
C        1.16798503       3.58184466       3.84569674       0.00161824      -0.00799239       0.00420437
C       -0.07777193       5.72184794       3.75659404      -0.00540283      -0.00812760      -0.00090369
C       -1.25386421       7.85178013       3.70291247      -0.00044445       0.00151927      -0.00007162
C       -2.47257761       9.99772373       3.72718319       0.01040741       0.00085347       0.00188347
C        4.94879580       1.42542994       3.76895613       0.00262150      -0.00201148       0.00310202
C        3.76496725       3.58169056       3.86140657       0.01031884      -0.00581023      -0.00144088
C        1.20423814       7.78076262       3.79015504      -0.00139848       0.00977225      -0.00884827
C        0.00044007       9.95573133       3.74518035       0.01347170      -0.00079210      -0.00048286
C        7.41286858       1.39100932       3.73572734      -0.01010733      -0.00815295      -0.00155293
C        6.19985995       3.54720501       3.74420753       0.00023880       0.00173376      -0.00701189
C        5.01227506       5.72188075       3.78319896       0.00178158      -0.00660401      -0.00530951
C        3.72949601       7.78088446       3.79677608       0.00448160       0.00454741       0.01054421
C        2.46681137       9.90388800       3.76103557      -0.00223494       0.00244357       0.00237411
C        9.85724961       1.39082531       3.72766121       0.01093872      -0.01205894       0.00027859
C        8.63541075       3.54401571       3.68870285      -0.00538405       0.00649939       0.00798611
C        7.42283600       5.69834079       3.68128587      -0.00172844       0.01144158       0.00446737
C        6.18807184       7.85140647       3.71847682      -0.00197708       0.00389829      -0.00882413
C        4.93289609       9.95519600       3.74451633      -0.00681163       0.00255088       0.00195693
Ru       2.46539672       4.96670838       4.11682666      -0.00662832      -0.00380321       0.00484865
