49
Lattice="12.336457 0.0 0.0 -6.168228499999997 10.683685154694365 0.0 0.0 0.0 15.0" Properties=species:S:1:pos:R:3:forces:R:3 energy=-432.8809192176729 free_energy=-432.8809192176729 stress="-0.0008357601990878182 -0.00035890869583211145 -1.1075938505638196e-05 -0.00035890869583211145 0.0037672933936855053 -1.516397802392244e-07 -1.1075938505638196e-05 -1.516397802392244e-07 4.683078632260898e-07" pbc="T T T"
C       -0.01715743       0.01227786       3.81859520      -0.00634183       0.00745069      -0.00303842
C       -1.25790886       2.14449061       3.88434813      -0.00427790       0.00898365       0.00591783
C       -2.46961217       4.28155974       3.90776109      -0.00699213       0.00356916       0.00057572
C       -3.70173083       6.41823005       3.86371848       0.00833995      -0.00205306       0.00317879
C       -4.94649729       8.56747194       3.82070891      -0.00068933       0.00077809      -0.00302628
C        2.44076972       0.03388555       3.75892468      -0.00719466      -0.00730532       0.01303275
C        1.17780900       2.15666570       3.79225408       0.00814388      -0.00810215       0.00861402
C       -0.03859152       4.29083852       3.97711112       0.00169661      -0.00909682      -0.00689417
C       -1.23810803       6.40824296       3.95578190       0.00371592      -0.00434685      -0.00491163
C       -2.48108095       8.55551240       3.86460194      -0.00146010      -0.00024664       0.00735503
C        4.90971774       0.01013634       3.74296922      -0.00080852       0.00209380      -0.00519674
C        3.66593250       2.13225167       3.35897457      -0.00464451       0.01189208       0.00975835
O        1.15522773       6.43362678       4.04864826      -0.00670799      -0.00434256       0.00420863
C       -0.02106463       8.53290919       3.88865080       0.00148401      -0.01063549      -0.00152360
C        7.37749945      -0.01479748       3.80158187      -0.00416337       0.00206427       0.00144224
C        6.15694333       2.12991494       3.59670305      -0.00058899      -0.00126815       0.00275380
C        5.01720264       4.29560795       3.28750886       0.01185607      -0.00594615      -0.00373554
C        3.73414676       6.45137345       3.55313009       0.00804304       0.00369666      -0.00772487
C        2.41222642       8.51191924       3.81760089       0.00415091       0.00791968       0.00412933
C        9.83967246      -0.01444685       3.83051976       0.00804963      -0.00232239       0.00251353
C        8.61601080       2.13373906       3.81757494      -0.00254415       0.00360140       0.00374568
C        7.41166205       4.27601169       3.74796604      -0.00420806       0.00948750      -0.00802126
C        6.19596019       6.43435690       3.69058604      -0.00095607       0.00489040       0.00940439
C        4.91431026       8.55120656       3.75675523       0.00651995      -0.00230644      -0.00109794
C       -0.02496513       1.44456186       3.83945937      -0.00172933       0.00894757       0.00523030
C       -1.24059335       3.57183119       3.92910039      -0.00756714       0.00533334       0.01085719
C       -2.46819330       5.69764405       3.91982966       0.00755833      -0.00141989      -0.01098757
C       -3.71659564       7.84704487       3.85741933       0.00086694      -0.00334111      -0.00574735
C       -4.95188335       9.99708242       3.81202973      -0.01288009      -0.00089070      -0.00503953
C        2.42081021       1.47910007       3.63796352       0.00632293      -0.00871926       0.01224807
O        1.13943025       3.53030112       4.00462554       0.00754305      -0.00594638       0.00557525
C       -0.02743509       5.69950766       3.99746692      -0.00127867      -0.01041853      -0.01504971
C       -1.25351326       7.83494624       3.91360244      -0.00163675      -0.00534689      -0.00216838
C       -2.49467977       9.99199776       3.78898436      -0.00252937       0.00114556       0.00643815
C        4.90771782       1.43529099       3.56846804      -0.00333582       0.00814770       0.00728835
S        3.79545770       3.47445526       2.15411298      -0.01779765      -0.00593214      -0.00132858
C        1.18439307       7.80724414       3.90766415       0.00370858      -0.00391175       0.00375468
C       -0.01993701       9.96634805       3.81314882      -0.00086776      -0.00560162       0.00388712
C        7.38156509       1.41799941       3.74872225      -0.00111367       0.00106266      -0.00216218
C        6.20230074       3.54404526       3.55792574       0.00159235      -0.00122246      -0.00767180
C        4.95859173       5.71912081       3.49970763       0.00159708      -0.00509501      -0.00587354
C        3.66738699       7.82415208       3.70476476       0.00561433       0.00356142      -0.00318128
C        2.43200115       9.94161504       3.82714393       0.00208910       0.00856668      -0.00487903
C        9.85243423       1.42142564       3.85567648       0.00121440       0.00104182      -0.00819185
C        8.63277944       3.55998088       3.83569774      -0.00849531       0.00652547       0.00040410
C        7.41234577       5.70540296       3.77509999       0.00161646       0.01002310      -0.00065279
C        6.15903166       7.85363445       3.76401089       0.00387601       0.00375831      -0.01369199
C        4.91381739       9.97232952       3.81311935       0.00565171      -0.00375562      -0.00167859
Ru       3.16178663       4.70850261       3.84600042      -0.00044207      -0.00496761       0.00116133
