49
Lattice="12.336457 0.0 0.0 -6.168228499999997 10.683685154694365 0.0 0.0 0.0 15.0" Properties=species:S:1:pos:R:3:forces:R:3 energy=-444.36003627799624 free_energy=-444.36003627799624 stress="-0.009795725519869038 -0.0013745658736506797 -6.467948917404636e-07 -0.0013745658736506797 0.0016789503043959334 -9.885155367320478e-07 -6.467948917404636e-07 -9.885155367320478e-07 6.069705915431088e-07" pbc="T T T"
C       -0.00185889       0.01162000       3.74971663       0.00239632      -0.00669847      -0.00137153
C       -1.25848966       2.11077123       3.71150165      -0.00626379      -0.00318522       0.00934109
C       -2.48937390       4.26221096       3.66535175      -0.01104190       0.00459272      -0.00950513
C       -3.69684549       6.42253572       3.66721672       0.00266629       0.01269107      -0.00499271
C       -4.92102630       8.57745120       3.71160062       0.00624396      -0.00190208       0.00557787
C        2.46326907       0.05386397       3.75626582      -0.00687908      -0.00577605       0.00259890
C        1.19791791       2.18777101       3.81163941       0.00510223       0.00331032       0.00119235
C       -0.07215546       4.23880622       3.75756827       0.00152182      -0.00308932       0.00235467
C       -1.27021831       6.41759874       3.69377049       0.00182821       0.00381800       0.00106052
C       -2.47448888       8.57555718       3.70291420      -0.00307904       0.00184597       0.00580552
C        4.93505072       0.01135648       3.74032994      -0.00523121      -0.00280499      -0.00255040
C        3.70121205       2.18443914       3.80258327       0.00103303      -0.00145479      -0.00408243
C        1.15086935       6.38242841       3.83249745      -0.00018878      -0.00116140       0.00168749
C       -0.00934361       8.53520771       3.74539469      -0.00263345       0.00143096      -0.00961017
C        7.40827071      -0.03840004       3.73340725       0.00752822       0.00634029       0.00663635
C        6.18382783       2.11997694       3.72262817       0.00417356      -0.00015507       0.00770488
C        4.98752587       4.29367917       3.78655221      -0.00602477       0.00337373      -0.00819569
N        3.83093852       6.40274291       3.87740540      -0.00615355      -0.00134864       0.00018163
C        2.48284633       8.47866756       3.80158483      -0.00303761      -0.00397108       0.00027498
C        9.86207649      -0.03919531       3.74041497      -0.00033165       0.00938568       0.00023749
C        8.63028269       2.11090446       3.69005166      -0.00181625      -0.00475182      -0.00254702
C        7.41666336       4.27027644       3.68057004       0.00650581      -0.00910680      -0.00617193
C        6.21352027       6.43999995       3.71168183       0.00585405      -0.00506186       0.00189291
C        4.95271553       8.53381925       3.76783475       0.00262410       0.00202278      -0.00342338
C       -0.01889596       1.43298819       3.75459296       0.00070909      -0.00670330       0.00311280
C       -1.27949712       3.52662548       3.68912658      -0.00790375       0.00200476       0.00107379
C       -2.48313453       5.69597808       3.66482676      -0.00264976       0.01142444       0.00099631
C       -3.69664926       7.85546703       3.68732295       0.00365061       0.00459263       0.00273831
C       -4.92807060      10.00597376       3.74067162       0.00201644      -0.01125105       0.00254353
C        2.45119179       1.48826020       3.80238517      -0.00054811      -0.00444303      -0.00146262
N        1.10212814       3.56383209       3.86401597       0.00951523       0.00325690      -0.01114774
C       -0.05301790       5.67278169       3.75977484       0.00175382      -0.00167031      -0.00000403
C       -1.24996022       7.84606054       3.70960568      -0.00346806       0.00456574       0.00341338
C       -2.47435795      10.00458370       3.73311775      -0.00879053      -0.00261647       0.00474699
C        4.94321167       1.43096484       3.75416613       0.00261301      -0.00071951       0.00030977
C        3.78325282       3.58406728       3.84947831      -0.00235514      -0.00326809       0.00630454
C        1.23294144       7.78223198       3.79162190      -0.00386300      -0.00364480       0.00871047
C       -0.00113621       9.95482319       3.73812545       0.00297557       0.00313018       0.00150411
C        7.40828392       1.39061591       3.70940636       0.00370494       0.00106641       0.00430773
C        6.20418189       3.54854081       3.71616957       0.00023676      -0.00021084       0.00124409
C        5.00632845       5.72779584       3.78343310      -0.00318550       0.00299852       0.00392899
C        3.73576889       7.77892232       3.82243087      -0.00273928      -0.00584381      -0.00955810
C        2.47083194       9.91284827       3.75515809       0.00602555       0.00350969       0.01142034
C        9.85490650       1.38909078       3.70667365      -0.00645391       0.00566182       0.00377717
C        8.63033427       3.54376933       3.67003787       0.00001577      -0.01170670      -0.01137501
C        7.42299083       5.70412766       3.67907783       0.00876136      -0.00403772      -0.01363265
C        6.19240902       7.85595143       3.72711915       0.00538995       0.00080772       0.00389714
C        4.93581929       9.95510033       3.75330342      -0.00343990       0.00645001      -0.00798449
Ru       2.46434598       4.98305906       4.23259556       0.00323231       0.00830288      -0.00296111
