49
Lattice="12.336457 0.0 0.0 -6.168228499999997 10.683685154694365 0.0 0.0 0.0 15.0" Properties=species:S:1:pos:R:3:forces:R:3 energy=-439.59696599175396 free_energy=-439.59696599175396 stress="-0.0075772810232500225 -0.002408947812737254 2.421541085738663e-06 -0.002408947812737254 -0.0005310341179447532 1.017009631823469e-06 2.421541085738663e-06 1.017009631823469e-06 -1.3237913108348412e-07" pbc="T T T"
C       -0.00462462       0.01213429       3.84030530      -0.00060443      -0.00313010       0.00646397
C       -1.26883325       2.11362931       3.91509231      -0.00600832       0.00804810      -0.00739551
C       -2.50080841       4.26156193       3.98611907      -0.01147754      -0.00415977      -0.00087943
C       -3.69825562       6.41994340       3.95206651       0.01149953      -0.00290954       0.00248629
C       -4.92000045       8.57452836       3.88087234       0.00887404       0.00274226      -0.00148575
C        2.46952908       0.01611543       3.78183093      -0.00927332       0.00626438       0.00318406
C        1.21888509       2.16565873       3.74294286       0.00958874      -0.00431979       0.01331452
C       -0.06424028       4.25837422       3.98270373      -0.00433671       0.00306425       0.00052994
C       -1.27166764       6.41906186       4.01907411      -0.00756822      -0.00396668      -0.01176482
C       -2.46906662       8.55963010       3.90990136      -0.01101924       0.00682541      -0.00032415
C        4.93400996      -0.00861570       3.70346537      -0.00934997      -0.00174334       0.00213259
C        3.68250189       2.07636031       3.32997801      -0.00093361       0.01025740      -0.00376008
C        1.16549182       6.36941560       3.87884251       0.00361620      -0.00113615       0.00743193
C       -0.00018429       8.52444502       3.84432416      -0.00416397      -0.00979896       0.00014220
C        7.39764945      -0.03094774       3.73520631       0.00853946       0.00897606       0.00682032
C        6.15814592       2.13205321       3.56629655      -0.00944607       0.00036940      -0.00292186
C        5.02479740       4.35344378       3.30401979      -0.00635919      -0.00538859       0.00387069
N        3.86226651       6.45406485       3.47187959      -0.01669150      -0.00688002      -0.00708093
C        2.47969106       8.48764467       3.74559205      -0.00048175       0.00213942       0.00366342
C        9.85216502      -0.02666127       3.81050484       0.01504148      -0.00310312      -0.00469869
C        8.61123777       2.12022257       3.82293566       0.00369420      -0.00814887       0.01032022
C        7.39902675       4.27713495       3.78728823       0.01539935      -0.00172923      -0.00675074
C        6.23098011       6.45670450       3.70855491       0.00335541       0.00909982      -0.01178391
C        4.95835010       8.55416980       3.76451290      -0.00020872      -0.00046276      -0.00604320
C       -0.01999367       1.42944470       3.84751978      -0.00543036      -0.00186034      -0.00461547
C       -1.28845010       3.53174062       3.99259935      -0.01267741       0.00995050       0.00100268
C       -2.48756474       5.69533987       4.00907282       0.00050510      -0.01088961      -0.00206279
C       -3.69454936       7.84907475       3.93167987       0.00369176      -0.00298434       0.00291596
C       -4.93009385       9.99577172       3.85127181      -0.00119226      -0.00098047       0.00563258
C        2.46077620       1.44278166       3.62125207       0.00633246       0.00052186      -0.00004841
C        1.15715261       3.56322438       3.82792391       0.01071886      -0.00528244       0.01056200
C       -0.05573934       5.68272330       3.99740665      -0.00442667       0.00198596       0.00032069
C       -1.24243700       7.83885267       3.93667596      -0.01264053      -0.00030615      -0.00230184
C       -2.46803785       9.98144800       3.80122545      -0.01612863       0.00697397      -0.00393486
C        4.93241617       1.41378031       3.51981822      -0.00909208      -0.00125750      -0.01300538
S        3.69044239       3.59339106       2.43696391       0.00728178      -0.00174275       0.00623231
C        1.24353398       7.77339256       3.81795336       0.00212729      -0.00633182       0.01276768
C       -0.00057711       9.94547972       3.75632857       0.00322066      -0.00123945       0.01461011
C        7.38079859       1.40771340       3.71016915      -0.00211036       0.00768312       0.00331718
C        6.17673554       3.56658298       3.56395506       0.01031814      -0.00216915      -0.01579811
C        5.03334650       5.76724613       3.44890857      -0.00719667       0.00123397      -0.00784583
C        3.74247597       7.80274505       3.67724572      -0.00607181      -0.00050692       0.00412332
C        2.46214955       9.92450358       3.76479473       0.01240987       0.00433606       0.00225380
C        9.83796248       1.39786230       3.86265019       0.00440170      -0.00376132      -0.00252227
C        8.61171779       3.54994031       3.88419050       0.00243262      -0.01240288       0.00177562
C        7.42183535       5.70547507       3.83582606       0.01097952       0.00443953      -0.00329292
C        6.19434540       7.86692440       3.79932421       0.00568152       0.01176088      -0.00720855
C        4.93124460       9.96924625       3.81892227       0.00704882      -0.00523925      -0.00775587
Ru       2.54085648       4.94379215       3.75673193       0.00813085       0.00715895       0.00940727
