50
Lattice="12.336457 0.0 0.0 -6.168228499999997 10.683685154694365 0.0 0.0 0.0 15.0" Properties=species:S:1:pos:R:3:forces:R:3 energy=-450.9512858516685 free_energy=-450.9512858516685 stress="-0.003509420138781467 0.003543442041193875 9.169417156380927e-06 0.003543442041193875 -0.007612891670584419 3.340572808630607e-06 9.169417156380927e-06 3.340572808630607e-06 -6.022211767800369e-06" pbc="T T T"
C       -0.01532660      -0.01001283       3.81455622       0.00279940       0.00597213       0.00749826
C       -1.22727365       2.14430910       3.85742951       0.00072458      -0.00646286       0.00092245
C       -2.45606915       4.27271727       3.85723314      -0.00332019      -0.00241566       0.00215073
C       -3.71551261       6.39912266       3.81490331      -0.00016581      -0.00017906       0.00632914
C       -4.96226218       8.52893327       3.78970216      -0.00268146       0.00322260      -0.00530767
C        2.44312254      -0.02626622       3.78534510      -0.00235970      -0.00077972       0.00522601
C        1.23282678       2.12112084       3.85078169       0.00430547      -0.00230500       0.00428429
C        0.02239632       4.28424086       3.92841638      -0.00573613       0.00187549      -0.00069464
C       -1.24588364       6.41470167       3.85567750      -0.00163167       0.00125517       0.00245391
C       -2.50063742       8.53625568       3.78804564       0.00152254       0.00458222       0.00566431
C        4.91165264      -0.01469942       3.71836603       0.00513623       0.00081092       0.00740468
C        3.68927304       2.08425712       3.70293911       0.00230594       0.00121161       0.00482301
C        2.51152048       4.21361300       3.88199699      -0.00528334       0.00220270       0.00025495
C        1.20516621       6.47543669       3.88675349       0.00506482      -0.00047013       0.00189275
C       -0.04994692       8.56083601       3.71033527       0.00439823      -0.00245868       0.00360157
C        7.38039293       0.00913583       3.70357062       0.00090460       0.00645796      -0.00288860
C        6.16696112       2.11137873       3.69994198       0.00121382      -0.00172213      -0.00621931
C        4.95115734       4.19428551       3.58452605       0.00415213      -0.00239094       0.00653169
P        3.62697801       6.36743678       2.48776430       0.00511375       0.00666766      -0.01315278
C        2.40816528       8.59886801       3.59166282      -0.00127195      -0.00382670       0.00575130
C        9.86170209       0.01425538       3.75397290      -0.00165269      -0.00548039       0.00015840
C        8.63820082       2.13635996       3.77897631      -0.00002084       0.00724859       0.01243568
C        7.41203948       4.25743586       3.74926122      -0.00627092      -0.00050580       0.00361313
C        6.15642669       6.39543380       3.69942556       0.00192003      -0.00196799      -0.00532691
C        4.91735170       8.54183439       3.70074029      -0.00124652      -0.00123630       0.00005849
C       -0.00138832       1.41971916       3.84998403       0.00510471       0.00158962      -0.00141435
C       -1.21500718       3.57026867       3.89089318      -0.00358011      -0.00524744      -0.00841447
C       -2.47034330       5.69664640       3.85188028      -0.00084575      -0.00276852      -0.00323177
C       -3.72983223       7.82085485       3.80622725      -0.00053713       0.00320239      -0.00539570
C       -4.95919162       9.95035162       3.80521883      -0.00334888       0.00301956      -0.00629177
C        2.45044285       1.39365743       3.78278294       0.00380631      -0.00268298       0.00256702
C        1.25818841       3.56421243       3.90058499      -0.00855557      -0.00341170      -0.00593581
C        0.01626498       5.71449739       3.90435633      -0.00117585       0.00434124      -0.00784120
C       -1.26725543       7.83300863       3.78876918       0.00152061       0.00112431       0.00041872
C       -2.49328270       9.95453713       3.75874305       0.00087895       0.00432832       0.00306500
C        4.92593600       1.39737256       3.69674232       0.00266540       0.00014719      -0.00192679
C        3.71357590       3.49865513       3.67034019       0.00062232       0.00248117       0.00255413
C        1.18705434       7.87448663       3.67806237       0.00327434       0.00077296       0.00321533
C       -0.02667862       9.97525868       3.70104318       0.00523095      -0.00076300      -0.00299372
C        7.39808909       1.42061125       3.73189394       0.00300142       0.00753119      -0.00224024
C        6.18481768       3.52763317       3.67126248       0.00083899      -0.00569600       0.00145294
C        4.91743530       5.63302288       3.58693886       0.00481938      -0.00392716      -0.00373712
C        3.63738716       7.85074922       3.58994962      -0.00342201      -0.01030025      -0.00456061
C        2.44767134      10.00046118       3.67765400      -0.00407068      -0.00259990      -0.00031136
C        9.87299951       1.43221730       3.80413759      -0.00243203      -0.00416717      -0.00218106
C        8.64566347       3.55792804       3.80190479      -0.00559385       0.00595271      -0.00089420
C        7.38853279       5.68624287       3.76794131      -0.00027910      -0.00180811       0.00279078
C        6.13258496       7.81236785       3.73045172      -0.00067863       0.00081163      -0.00288261
C        4.91909585       9.96316464       3.77068866       0.00409608       0.00110345      -0.00034523
Ru       3.02309765       6.01579089       4.49988458      -0.00926016      -0.00233918      -0.00293076
