49
Lattice="12.336457 0.0 0.0 -6.168228499999997 10.683685154694365 0.0 0.0 0.0 15.0" Properties=species:S:1:pos:R:3:forces:R:3 energy=-445.1600114745853 free_energy=-445.1600114745853 stress="-0.01151164876913603 0.000865843973186171 2.3357033653254624e-06 0.000865843973186171 -0.0007817637250197647 -3.837556016404031e-06 2.3357033653254624e-06 -3.837556016404031e-06 1.0607745221095334e-06" pbc="T T T"
C        0.00073558       0.01183734       3.74080776      -0.00240688      -0.00016328      -0.00473960
C       -1.25388629       2.11490598       3.69247958      -0.00280701       0.00255478       0.01146118
C       -2.49369423       4.26827684       3.65233198      -0.00230423       0.00170347      -0.00621482
C       -3.70956118       6.42305130       3.66970626      -0.00009282       0.00510545      -0.00825765
C       -4.92744686       8.57608143       3.71581688       0.00456883      -0.00601562       0.00724089
C        2.47190110       0.05185951       3.76371857      -0.00348555      -0.00665392       0.00075549
C        1.23119600       2.18043311       3.80193937      -0.00016012       0.00829392       0.00228071
C       -0.08041918       4.27368874       3.75855915      -0.00226235      -0.00403351       0.00742978
C       -1.28422736       6.43302589       3.70832766       0.00469508      -0.00444853      -0.00687536
C       -2.48349705       8.57734349       3.71517987       0.00278224      -0.00646890       0.00704405
C        4.93644016       0.00869474       3.75004944       0.00335239      -0.00708332       0.00021166
C        3.73956165       2.17951355       3.82743149      -0.00241360      -0.00051053      -0.00005606
C        1.15146842       6.39133515       3.87712816      -0.00343096       0.00320581       0.00217800
C       -0.01669545       8.54129016       3.76475499      -0.00036037       0.00424602      -0.01168179
C        7.40863445      -0.03353130       3.72920372       0.00337284       0.00217448       0.00335630
C        6.19117151       2.11123908       3.72013623       0.00437495       0.00341305      -0.00253321
C        5.00975096       4.23937834       3.79532346      -0.00246625       0.00055926      -0.01389808
C        3.77286875       6.38408358       3.85843459      -0.00534583      -0.00046175       0.01491100
C        2.46606519       8.50163594       3.80042259      -0.00247210      -0.00456525      -0.00454670
C        9.86539706      -0.03132795       3.72314339      -0.00712830       0.00149074      -0.00233396
C        8.63705646       2.11272906       3.66775125       0.00086221      -0.00640639       0.00061923
C        7.41966461       4.26516279       3.66927538       0.01213778       0.00387332      -0.00431955
C        6.19817615       6.41935219       3.72210346      -0.00279877      -0.00039367      -0.00012191
C        4.94826085       8.54039557       3.75812495       0.00208238       0.00291052       0.00141709
C       -0.01035253       1.42953222       3.74221827      -0.00076761       0.00208069       0.00023099
C       -1.28747508       3.53670843       3.67710667      -0.00441866       0.00129824       0.00408614
C       -2.49523472       5.70322897       3.66559378      -0.00134144       0.00416189       0.00022328
C       -3.70639004       7.85603145       3.69524135       0.00405395      -0.00320385       0.00102461
C       -4.92654076      10.00445499       3.74159305      -0.00227690      -0.00866090       0.00297692
C        2.48259672       1.48498759       3.81068005      -0.00410657      -0.00158579      -0.00043207
C        1.12867583       3.57156893       3.85090883      -0.00102938       0.00503865       0.00376397
C       -0.07623480       5.69884151       3.77655636       0.00293107      -0.00729725      -0.00841970
C       -1.25989105       7.85571442       3.72806010       0.00349084      -0.00271905       0.00294060
C       -2.47392282      10.00310565       3.74478930      -0.00021712      -0.00735814       0.00485035
C        4.95554003       1.42764978       3.76361611       0.00372298      -0.00279339       0.00145742
N        3.85295071       3.54641156       3.89379185      -0.00799135       0.00292362      -0.00773474
C        1.22331291       7.80184886       3.81459311      -0.00531512       0.00205392       0.00934189
C       -0.00172134       9.95754594       3.74616504       0.00638981       0.00261410       0.00321725
C        7.41388355       1.39186521       3.69678092       0.00129068      -0.00119470       0.00456677
C        6.21603070       3.52665102       3.71081898       0.00775868       0.00649437      -0.00642976
C        4.98335683       5.67533494       3.79465112      -0.00205803      -0.00157797       0.01019541
C        3.70815867       7.79734609       3.80492885       0.00120745      -0.00168307       0.00143250
C        2.46853831       9.92963849       3.74666409      -0.00252650      -0.00181236       0.00466714
C        9.85933462       1.39256211       3.68393381      -0.00107393       0.00048433       0.00811196
C        8.63308883       3.54415430       3.64996940       0.00603815      -0.00707752      -0.00814987
C        7.41238136       5.69805211       3.67799795       0.00100865       0.00577722      -0.00560748
C        6.18383573       7.84802740       3.72957886       0.00238349       0.00161465       0.00245495
C        4.93794250       9.95900551       3.74035995      -0.00650144       0.00470811      -0.01202096
Ru       2.45660785       4.99782707       4.18597157       0.00105474       0.01538803      -0.01007425
