49
Lattice="12.336457 0.0 0.0 -6.168228499999997 10.683685154694365 0.0 0.0 0.0 15.0" Properties=species:S:1:pos:R:3:forces:R:3 energy=-430.69346044745714 free_energy=-430.69346044745714 stress="0.0016485691474792123 0.0015270020628958575 -5.2929774067013945e-06 0.0015270020628958575 0.0008607608296232868 -7.446810331308007e-07 -5.2929774067013945e-06 -7.446810331308007e-07 -1.6910013957101853e-06" pbc="T T T"
C        0.03885271       0.00365690       3.84800545       0.00138102      -0.00555466      -0.00246645
C       -1.19581858       2.14246101       3.84983292       0.00173517      -0.00843046      -0.00193937
C       -2.43339837       4.26743191       3.74081965       0.00188452      -0.00245885       0.00261828
C       -3.69274863       6.39680209       3.67541677       0.00428016       0.00399422       0.00625890
C       -4.92187901       8.53081566       3.80441005      -0.00904029       0.00510013      -0.00013671
C        2.48819958       0.02618043       3.67891201       0.00663906       0.00409259      -0.00799361
C        1.23595201       2.12846376       3.60830714      -0.00292416      -0.00125904      -0.00534052
C        0.03666018       4.22446826       3.59545626      -0.01739916      -0.00361936       0.00211413
C       -1.23744143       6.38535947       3.36417072      -0.00539323       0.00027171      -0.00315218
C       -2.46289900       8.53526290       3.56839376      -0.00004905       0.00134733      -0.00746578
C        4.94947910      -0.02130875       3.62820846       0.00087559       0.00789185      -0.00717262
C        3.75806024       2.11930323       3.70714098      -0.00042726      -0.00021022       0.00628588
P        1.54424383       6.33254016       2.52074690      -0.00496009      -0.00950731       0.00274116
C        0.00641491       8.52210282       3.57921657       0.00045859      -0.00233144      -0.00111252
C        7.42022782      -0.00703488       3.74386654      -0.00085487      -0.00166472       0.00164556
C        6.19682560       2.11030347       3.72531560       0.00005602       0.00041549      -0.00763905
C        4.98411908       4.17968921       3.92203835       0.00078439      -0.00276999      -0.00663937
P        3.47139398       6.26707490       4.70120488      -0.00042311       0.00633010       0.00906018
C        2.50012703       8.58522736       3.92789651      -0.00567806       0.00065878       0.01096013
C        9.90493926       0.00756640       3.89226511       0.00432103      -0.00013370       0.00117912
C        8.66665300       2.12975224       3.80706286       0.00039131       0.00197862      -0.00350753
C        7.42967942       4.25842350       3.78278957       0.00499860      -0.00229502      -0.01066473
C        6.16844992       6.36769677       3.95019972       0.00210696      -0.00707921       0.00355239
C        4.97411840       8.55374484       4.05174988      -0.00013418       0.00085998       0.00049880
C        0.04368468       1.43480917       3.78643510       0.00091522      -0.00574237       0.01063231
C       -1.19585913       3.55484342       3.81904818      -0.00142863      -0.00827993      -0.01282310
C       -2.45430743       5.68432482       3.57873906       0.00118834      -0.00297423       0.01150850
C       -3.69165932       7.82260529       3.66783106      -0.00508627       0.00756873       0.00390762
C       -4.90603075       9.97337363       3.77712233       0.00371210       0.00467396      -0.01344454
C        2.49567874       1.46897551       3.65370372      -0.00116705       0.00290954      -0.00519362
O        1.18434152       3.46137473       3.29772699       0.00904476       0.00846306      -0.00555036
C       -0.03653338       5.59145997       3.12683313      -0.00285747       0.01594200       0.01032584
C       -1.22032424       7.81471285       3.45922263       0.00027957      -0.00089528      -0.00180132
C       -2.45703047       9.96733562       3.61714415       0.00595114       0.00197440       0.00665068
C        4.95244864       1.40903412       3.67538702      -0.00094859       0.00621873      -0.00697237
O        3.79646703       3.48159392       3.88783741      -0.00693724      -0.00415888       0.00619349
C        1.27533740       7.80129064       3.71443699       0.00047724      -0.00830810       0.00096589
C        0.01889397       9.94653212       3.64963818      -0.00315576       0.00061296       0.00632294
C        7.42473507       1.41200772       3.75391913       0.00030083      -0.00002255      -0.00721148
C        6.20063504       3.52088115       3.78650642       0.00176982      -0.00074692      -0.00163282
C        4.97081465       5.57701738       4.08793140      -0.00350160      -0.00140203       0.00372066
C        3.70657936       7.91241728       4.18171194       0.00165925       0.00630392      -0.01184261
C        2.49172913       9.98923968       3.84754412       0.00083013      -0.00103689       0.01240706
C        9.91105176       1.42952290       3.85853447       0.00059145       0.00042947       0.00428186
C        8.66717208       3.55174441       3.77981673       0.00344255       0.00094828      -0.00045849
C        7.41276892       5.67919884       3.79737540       0.01080770      -0.00359483       0.00645877
C        6.18365104       7.80993789       3.96120318      -0.00582011      -0.00559813       0.00397657
C        4.97203435       9.97802573       3.94015358       0.00209219      -0.00153887      -0.00362973
Ru       1.30090363       5.86030668       4.57549058       0.00521147       0.00262715       0.00152416
