49
Lattice="12.336457 0.0 0.0 -6.168228499999997 10.683685154694365 0.0 0.0 0.0 15.0" Properties=species:S:1:pos:R:3:forces:R:3 energy=-430.1144304608324 free_energy=-430.1144304608324 stress="0.0015134028558836876 6.634685809808928e-05 1.4832618756730036e-06 6.634685809808928e-05 0.0029920959068557825 -1.284731482103378e-05 1.4832618756730036e-06 -1.284731482103378e-05 6.592172490028003e-06" pbc="T T T"
C       -0.01624710       0.01533002       3.60822215      -0.00092712      -0.00675732       0.00551677
C       -1.25191900       2.14603824       3.50744855      -0.00329591      -0.00368724      -0.00307350
C       -2.47444160       4.27690323       3.50606881      -0.00916989       0.00493361       0.00920227
C       -3.71435654       6.40879048       3.59242014      -0.00538742      -0.00332413       0.00272927
C       -4.95437378       8.55828573       3.66389614       0.00390278      -0.00608479       0.00042179
C        2.43716300       0.02282429       3.62923909      -0.00483000      -0.00185019      -0.00035941
C        1.18866020       2.16786193       3.61966270       0.00373889       0.00133214      -0.00191716
C       -0.03040197       4.28180969       3.45296500      -0.00999547      -0.00026565       0.00271656
C       -1.24068102       6.39647798       3.47073816      -0.00268852      -0.00753710       0.00116937
C       -2.48390944       8.54226468       3.54420797       0.00005389      -0.00102096       0.00049987
C        4.91551810      -0.01226785       3.67028383       0.00609248       0.00664962      -0.00120597
C        3.66549778       2.07587541       4.09454786      -0.00182273       0.00672279      -0.00372181
O        1.15730548       6.42261050       3.45424266       0.00274970       0.01242403      -0.00204945
C       -0.01701304       8.51770399       3.55768625       0.00183469      -0.00020217       0.00175421
C        7.38186397      -0.02225738       3.61415057       0.00394671       0.00281650       0.00174487
C        6.16052680       2.11123221       3.84972210       0.00688205      -0.00828746       0.00983704
C        5.00906508       4.24861186       4.33153563      -0.00525274       0.00472266       0.00347964
P        3.72009250       6.55690275       5.30346200      -0.00243656       0.00148243       0.00077166
C        2.42089355       8.51020534       3.77459370       0.01045766       0.00101540      -0.00626255
C        9.84216131      -0.00939046       3.60872231      -0.00293935      -0.00337443      -0.00471334
C        8.61454941       2.13105344       3.58981179      -0.00595350       0.00529279      -0.00378878
C        7.40075782       4.26653747       3.74604808      -0.00112975      -0.00156831      -0.00008813
C        6.20036519       6.44240146       3.95555675       0.00332600       0.00859533      -0.00232696
C        4.91193847       8.56458556       3.88274221       0.00532375      -0.00328614      -0.00595598
C       -0.01581395       1.45001247       3.55581330       0.00114550      -0.00247850       0.00395499
C       -1.23901245       3.57170623       3.46988897      -0.01160388       0.00107201       0.00267270
C       -2.47550489       5.69050717       3.50539922      -0.00527892      -0.00021423       0.01222867
C       -3.72388674       7.83611044       3.58775841      -0.00116959      -0.00601434      -0.00056712
C       -4.95470148       9.98976534       3.61423938      -0.00154428      -0.00867865      -0.00067191
C        2.42232967       1.45759319       3.77157545      -0.00042358      -0.00334134      -0.00259779
O        1.15901397       3.54503783       3.45012818       0.00555229      -0.00185761      -0.00031951
C       -0.03158748       5.68650005       3.45457041      -0.00003442      -0.00077191      -0.00090841
C       -1.25362087       7.82206142       3.50828809       0.00110057      -0.00563495      -0.00417619
C       -2.49504617       9.97675397       3.60749161       0.00232889       0.00516432      -0.00617938
C        4.91335860       1.40256030       3.88044270      -0.00012261       0.00371701      -0.00232997
P        3.72554090       3.40230715       5.31153274      -0.00339894       0.00867678      -0.00447363
C        1.18688562       7.79939925       3.62293161       0.00806083       0.00526755      -0.00211035
C       -0.01670405       9.95241118       3.60821223       0.00561619       0.00157114       0.00317662
C        7.38388999       1.40879280       3.66463670       0.00215732      -0.00011515      -0.00099700
C        6.20308846       3.52303406       3.95944578       0.00307676      -0.00657774      -0.00740243
C        5.00651971       5.71461225       4.32793436      -0.01414756       0.00756503      -0.00235257
C        3.66388905       7.89259018       4.09731694       0.00776662      -0.00581666      -0.00092458
C        2.43705497       9.94475146       3.63057934      -0.00033221      -0.00180432      -0.00082360
C        9.85441010       1.42534178       3.54519463      -0.00684737      -0.00191790      -0.00077823
C        8.62371976       3.55826984       3.59453328      -0.00587382       0.00463974       0.00159731
C        7.39939321       5.70002493       3.74376168      -0.00177680       0.00286064       0.00798938
C        6.15853758       7.85502735       3.84906614       0.01092105       0.00370354       0.00876795
C        4.91582911       9.97970118       3.67220472      -0.00005817      -0.00588489      -0.00317850
Ru       3.18679551       4.97328674       3.89379923       0.01240648      -0.00187099      -0.00397677
