49
Lattice="12.336457 0.0 0.0 -6.168228499999997 10.683685154694365 0.0 0.0 0.0 15.0" Properties=species:S:1:pos:R:3:forces:R:3 energy=-435.85472812181575 free_energy=-435.85472812181575 stress="-0.0035424878926846423 0.0015476015073746447 -1.524020530485631e-07 0.0015476015073746447 -0.0055421743923219765 2.4906497955366587e-06 -1.524020530485631e-07 2.4906497955366587e-06 -4.821624700455327e-06" pbc="T T T"
C        0.01150666       0.00277737       3.70488244      -0.00931596      -0.00387330       0.00019062
C       -1.21552955       2.14978839       3.54438204       0.00943586      -0.00400339       0.00185282
C       -2.46022206       4.28346735       3.72532274       0.00639759       0.00369019      -0.00711258
C       -3.70142607       6.41264105       3.86899870       0.00655865      -0.00260563      -0.00265896
C       -4.93345726       8.54392122       3.86150875      -0.00219767       0.00814293      -0.00154567
C        2.47485869      -0.01281154       3.73382040      -0.00311762      -0.00437250       0.00092435
C        1.25676786       2.06838703       3.31283537       0.01118921      -0.01304138       0.00853539
C       -0.05374836       4.32280363       3.29086809      -0.00875530       0.00688024      -0.00623878
C       -1.24401646       6.43343145       3.72900450       0.00363644      -0.00499419      -0.00454305
C       -2.46641878       8.55308796       3.84514971       0.00603347       0.00770523      -0.00952331
C        4.94826326       0.00080924       3.80040825      -0.00674907       0.01207454      -0.00148945
C        3.71754641       2.14746489       3.70566085       0.00696445       0.00041697       0.01175986
C        1.25463251       6.42250935       3.68967065      -0.00067975       0.00263347       0.00507061
C        0.00590907       8.55357133       3.80529247      -0.00490028      -0.00757977       0.00022505
C        7.41395930       0.01263186       3.81197637      -0.00574209       0.00061236      -0.00220530
C        6.18982224       2.13323486       3.82753924      -0.00507441      -0.00143930      -0.00195814
C        4.94098500       4.24723959       3.90586718      -0.00379557      -0.00071822      -0.00521363
B        3.61136885       6.40327858       3.99684494       0.00435536       0.00199388       0.01525374
C        2.47062601       8.58095546       3.84785745       0.01142045      -0.00012854      -0.00118122
C        9.88534618       0.01854599       3.76881558       0.00258384       0.00186987      -0.00068322
C        8.65326169       2.14611459       3.77160668       0.00774926       0.01136383       0.00118011
C        7.41592952       4.27431282       3.87223216      -0.01292201      -0.01458041       0.00018798
C        6.16334383       6.40828550       3.93636303      -0.00833788      -0.00617468       0.00831790
C        4.94441578       8.55854538       3.87620605       0.00013363       0.00135097       0.00345977
C        0.00805342       1.42265727       3.51525576       0.00595013      -0.00904751      -0.00345882
C       -1.23581151       3.56952975       3.52380383       0.00304389      -0.00089609       0.00965719
C       -2.46223711       5.70860902       3.78304363       0.00852993      -0.00401231      -0.01187156
C       -3.69957659       7.83686630       3.87101659       0.00430445       0.00996328      -0.00945956
C       -4.92798469       9.96677966       3.76871248      -0.01084935       0.00649712       0.00504212
C        2.48185524       1.40594714       3.58357086       0.01411105      -0.01032133      -0.00230684
S        1.24944076       3.56042131       2.35695636      -0.00804613       0.00977024      -0.00336725
C        0.01598850       5.74138867       3.55177693      -0.00653540       0.00719633      -0.00016202
C       -1.23027263       7.84714462       3.80992940      -0.00232121      -0.00924287      -0.00168678
C       -2.45800040       9.96933265       3.80812438      -0.00014586       0.00790345       0.00161602
C        4.95864606       1.41917070       3.78086660      -0.00093629       0.00554291       0.00954759
C        3.73786685       3.53262859       3.80435573       0.00876872      -0.00009378      -0.00076961
C        1.25103830       7.83233924       3.79443692       0.00656279      -0.00065086       0.00151390
C        0.01314124       9.97330413       3.81692006      -0.01242941      -0.00231554      -0.00340431
C        7.42386347       1.42878425       3.81130418       0.00189927       0.00774022      -0.00584346
C        6.19761076       3.54788245       3.87345708      -0.01708086      -0.00753633       0.00259967
C        4.93636717       5.67908234       3.96589045      -0.01458078      -0.00021072       0.00847771
C        3.69736975       7.88014473       3.90528621       0.00665933      -0.00412157       0.00979547
C        2.47801127       9.99876914       3.81576542       0.00209203       0.00111837      -0.01031884
C        9.89148772       1.44134771       3.69900727       0.00779205       0.00183954      -0.00045799
C        8.65025214       3.56792842       3.80024967       0.00116688       0.00854049      -0.00731155
C        7.40769720       5.70015806       3.90231896       0.00000212      -0.01383383      -0.00615364
C        6.16773058       7.83349979       3.90207529      -0.00019508      -0.00110155      -0.00111064
C        4.94700440       9.98465777       3.78918840      -0.00364053      -0.00529285       0.00050998
Sc       2.09412713       4.66518204       4.48829350       0.00100765       0.00734200       0.00631835
