50
Lattice="12.336457 0.0 0.0 -6.168228499999997 10.683685154694365 0.0 0.0 0.0 15.0" Properties=species:S:1:pos:R:3:forces:R:3 energy=-448.216247005864 free_energy=-448.216247005864 stress="-0.004060144636314781 -0.004022152871452951 4.7646242678529137e-07 -0.004022152871452951 0.0007337851886623029 -1.0537744606944502e-05 4.7646242678529137e-07 -1.0537744606944502e-05 1.3268976902518114e-05" pbc="T T T"
C       -0.01135438      -0.00355621       3.64242076       0.00004321       0.01029905       0.00806506
C       -1.28117422       2.10176223       3.63166763      -0.00270476       0.00673371       0.00109040
C       -2.52227676       4.25341744       3.65103538       0.00271432      -0.00611287      -0.00052563
C       -3.70831838       6.40528503       3.66551657       0.00631393      -0.00504225       0.00061738
C       -4.92007237       8.55679992       3.63831153      -0.01277580      -0.00864051      -0.00553427
C        2.46283499       0.00991744       3.78925531       0.00882227       0.00142520       0.00243692
C        1.20230535       2.13340526       3.72355911      -0.00743988      -0.00483383       0.01634709
C       -0.09246547       4.22478975       3.70593688       0.00321132      -0.00417094      -0.00356301
C       -1.25183467       6.38746409       3.79617826      -0.00264711      -0.00127959      -0.00075221
C       -2.46303789       8.54105488       3.82185522       0.00402000       0.00578335      -0.00033984
C        4.92481863      -0.00295768       3.89691730      -0.00221980      -0.00346787       0.00100055
C        3.66710388       2.17698388       3.87521267       0.00252196      -0.00185883      -0.00471020
B        2.32288195       4.47435165       3.94767600      -0.00403493       0.00952495       0.00689876
B        1.34870005       6.18742009       4.01592300       0.00670009      -0.00612985       0.00443070
C        0.01558842       8.50000986       3.93408814      -0.00211492       0.00780775      -0.01756220
C        7.38106754      -0.02047731       3.82398787      -0.01250801      -0.00193453      -0.01159992
C        6.13891373       2.13253267       3.79412995      -0.00819276      -0.01234508      -0.00501818
C        4.90805961       4.27815888       3.66967754       0.00803367       0.00930006       0.01311019
C        3.75373894       6.44601659       3.34883283      -0.00636090      -0.01178996       0.00712656
C        2.45330716       8.52186140       3.74436429       0.01229953       0.00183149      -0.00140498
C        9.84348566      -0.02261174       3.66128679       0.00516648      -0.00961883      -0.01075934
C        8.59501762       2.11454665       3.68607787       0.00891496       0.00376963       0.01135828
C        7.37087989       4.26492403       3.63516588      -0.01163194       0.01220172      -0.00014938
C        6.18591020       6.42349601       3.49339743      -0.00292589       0.00268107      -0.00265623
C        4.94997293       8.55333525       3.52715822       0.00020178      -0.00155600       0.00077276
C       -0.03122805       1.40901296       3.65644235      -0.01151048       0.01044290       0.00832086
C       -1.31050246       3.51979919       3.63585075       0.00295279      -0.00046538       0.01113045
C       -2.49550896       5.68172171       3.70174547       0.00431156      -0.01163994      -0.00144037
C       -3.69589832       7.83571214       3.70940220      -0.00015873      -0.00170748      -0.00863852
C       -4.93315428       9.97773097       3.68735414       0.00080465       0.00066175       0.00451334
C        2.45056158       1.43850352       3.81067679      -0.00289277      -0.00034485       0.01954439
C        1.14255276       3.54189923       3.74613773       0.00681323      -0.00484173       0.01468568
C       -0.05908945       5.63417044       3.81020838       0.00194731       0.00040626       0.00203001
C       -1.23280105       7.81617102       3.87315468      -0.00251955       0.00309947      -0.00017736
C       -2.47292868       9.97084804       3.85381921       0.00892813       0.00315555      -0.01282585
C        4.90358527       1.43570711       3.87300651      -0.00414874      -0.01303117       0.00066755
C        3.65819692       3.63505863       3.87628570       0.00844951       0.00221806       0.00515902
C        1.27248173       7.76441570       3.94106197       0.00309992       0.00805383      -0.01229646
C       -0.00842254       9.94299045       3.90593627      -0.01111296       0.00239373      -0.01354988
C        7.36875608       1.40702210       3.77159150       0.00144704       0.00059953       0.00789915
C        6.14153121       3.55422004       3.68374138      -0.00606791      -0.00317622       0.01091580
C        4.94388121       5.70597497       3.45467916       0.00844307       0.00527237      -0.00180346
C        3.70743775       7.83506377       3.53156218       0.00973655      -0.00462715      -0.01472858
C        2.44552914       9.95167789       3.73620672      -0.00414686      -0.00243699       0.00007501
C        9.82774436       1.39538806       3.65625362       0.00801813      -0.00613020      -0.01163663
C        8.58981724       3.54182746       3.65291361      -0.00575954       0.00856523      -0.00603950
C        7.39660252       5.69463713       3.58923112      -0.00199824       0.00975532      -0.00089276
C        6.17875347       7.84241388       3.52563349      -0.01379250      -0.00756729       0.00402748
C        4.92493429       9.96735698       3.60546656       0.00769212      -0.00161021      -0.00148576
Sc       3.33139504       6.03745249       5.30266536      -0.00194255       0.01037756      -0.01213287
