49
Lattice="12.336457 0.0 0.0 -6.168228499999997 10.683685154694365 0.0 0.0 0.0 15.0" Properties=species:S:1:pos:R:3:forces:R:3 energy=-431.83201821202766 free_energy=-431.83201821202766 stress="-0.004966862196045729 -0.0004220440768057521 -1.7499303736956338e-06 -0.0004220440768057521 -0.008257899192359034 1.0002314159248217e-05 -1.7499303736956338e-06 1.0002314159248217e-05 -2.7098946710254514e-07" pbc="T T T"
C       -0.00806238      -0.02956072       3.68740438      -0.00000504       0.00087372      -0.00413595
C       -1.24485357       2.11297440       3.78783654       0.00173214      -0.00256789      -0.00327129
C       -2.48252983       4.25517624       3.50458092       0.00010902       0.00637447       0.00404554
C       -3.70890399       6.39083389       3.35214586       0.00093379       0.00172180       0.00477745
C       -4.93859888       8.52994020       3.43756661       0.00256416      -0.00434911      -0.00087314
C        2.46126603      -0.05778523       3.75165323       0.00239793       0.00796716      -0.00834352
C        1.21105781       1.99197409       4.30840762      -0.00112299      -0.01002315       0.00004492
C       -0.10525246       4.29735422       4.00157415      -0.00642466      -0.00552831       0.00378607
C       -1.24504052       6.39943433       3.48020036       0.00031072       0.00162502      -0.00264892
C       -2.47239089       8.52696878       3.43185185       0.00285066       0.00271144      -0.00549749
C        4.93071093      -0.02787177       3.63600489      -0.00081492      -0.00115861      -0.00207417
C        3.72065185       1.96928763       4.27867802       0.00457749      -0.00293032      -0.00563777
B        1.24635749       6.43521012       3.97109182       0.01231270       0.00042008      -0.00026744
C       -0.01165128       8.54451614       3.52348019       0.00207253      -0.00322956      -0.00937782
C        7.39607652      -0.00063158       3.54069974      -0.00381510      -0.00405629       0.00131314
C        6.16524604       2.11840003       3.74287228      -0.00538256       0.00594111      -0.00372682
C        5.02740730       4.31317886       3.98558750      -0.01196892       0.00347326       0.00216014
C        3.70761952       6.42384015       3.87759449       0.00665541      -0.00512941       0.00437692
C        2.46786587       8.56732235       3.63105698       0.00804080       0.00333594      -0.00427774
C        9.86887188      -0.00357570       3.57309578      -0.00530345       0.00207369       0.00126676
C        8.63065325       2.12559471       3.54103297       0.00449510      -0.00577451       0.00672199
C        7.39988722       4.26076667       3.48949230      -0.00323083      -0.00001370       0.00794397
C        6.16645256       6.40768536       3.46913320      -0.00187474       0.00139412       0.00571927
C        4.93317558       8.53409892       3.53967201      -0.00567227       0.00638262       0.00457682
C       -0.01600878       1.37963855       3.93217541       0.00088071      -0.00233854       0.00099731
C       -1.27152892       3.53514997       3.75178279      -0.00519067      -0.00251348      -0.00417129
C       -2.47933609       5.67884213       3.40910762       0.00104240       0.00659516       0.00341473
C       -3.70719549       7.81724658       3.37706001       0.00486682      -0.00126386       0.00124429
C       -4.94242140       9.93887890       3.60821989       0.00327863      -0.00130173       0.00309938
C        2.46079805       1.31078559       4.13745383       0.00306243      -0.00532690       0.00024235
P        1.18698308       3.62517715       4.96859422      -0.00285130      -0.00754129       0.00927016
C       -0.04203844       5.69324017       3.75635350      -0.00453924      -0.00403757      -0.00476951
C       -1.23671524       7.82020212       3.45611610       0.00031501       0.00080196      -0.00811360
C       -2.47232264       9.93932535       3.58640612       0.00089637       0.00339813      -0.00266172
C        4.94303799       1.37730761       3.87861152      -0.00098830      -0.00109313      -0.00033680
P        3.78456314       3.56568169       4.96575637       0.00267572       0.00632219      -0.01145841
C        1.23398061       7.87882262       3.67185063       0.00758236       0.00754080      -0.00491655
C       -0.00774589       9.96601626       3.52890212      -0.00317811      -0.00495462      -0.00220883
C        7.39200808       1.41919675       3.57987096      -0.00201034      -0.00186157       0.00659710
C        6.18583979       3.54693359       3.71604494      -0.00989346       0.00727708       0.00865878
C        4.93886337       5.72644672       3.75490572       0.00511336       0.00099905       0.01204918
C        3.69150865       7.82187130       3.69065189       0.00318679      -0.00580965      -0.00098753
C        2.46763658       9.98447830       3.54141604      -0.00139808       0.00188774      -0.00169717
C        9.86774360       1.41521821       3.60897173       0.00375909      -0.00355564       0.00767494
C        8.62667175       3.54745649       3.47972166       0.00261273      -0.00191494      -0.00334895
C        7.39183058       5.68325787       3.40941850      -0.00126477       0.00043100      -0.01120772
C        6.16127565       7.82412829       3.45060696      -0.00551320       0.00271886       0.00208201
C        4.93081268       9.95381909       3.57817850      -0.00674896       0.00728824       0.00162531
Sc       2.67313655       5.64429573       5.57382884       0.00086709      -0.00128086       0.00232159
