49
Lattice="12.336457 0.0 0.0 -6.168228499999997 10.683685154694365 0.0 0.0 0.0 15.0" Properties=species:S:1:pos:R:3:forces:R:3 energy=-438.1733987207158 free_energy=-438.1733987207158 stress="-0.006275824093757698 5.507655651079052e-07 -3.6348546781897488e-06 5.507655651079052e-07 -0.003948281460584419 9.054689333472259e-07 -3.6348546781897488e-06 9.054689333472259e-07 1.5027309253852542e-06" pbc="T T T"
C       -0.00438608      -0.01030285       3.67984735      -0.00263764      -0.00651653      -0.00488234
C       -1.24323484       2.12445247       3.72815266       0.00163183       0.00167988       0.00904975
C       -2.49671032       4.26732101       3.62999832       0.00109453       0.00793452       0.00305487
C       -3.71446330       6.41306005       3.54769211      -0.00042777      -0.01105776       0.00239006
C       -4.93445962       8.55159794       3.58252442       0.00259146      -0.00107450      -0.00084036
C        2.47877576       0.00576245       3.69448355       0.00479363       0.00498419      -0.00677180
C        1.23587852       2.09068401       3.92760678      -0.00221962      -0.00175820      -0.00522943
C       -0.08716893       4.27301643       4.00739460      -0.01254768      -0.00371629       0.00418849
C       -1.27321600       6.42320569       3.77586452      -0.00335031      -0.00041299       0.00537033
C       -2.47212578       8.55282484       3.63122655       0.00021146      -0.00033330      -0.00129744
C        4.93330780       0.00900281       3.65964761      -0.00137487       0.00517036      -0.01017789
C        3.72666198       2.16039428       3.82241959       0.00218003      -0.00457023       0.00553971
B        1.14805182       6.46685699       4.21811901       0.01008363      -0.00391933      -0.00083181
C       -0.01229759       8.55666133       3.78018892      -0.00319001       0.00579226       0.00225438
C        7.40633760      -0.00840179       3.64808407      -0.00114504      -0.00623273      -0.00118951
C        6.16905353       2.13214051       3.59645249      -0.00455965      -0.00272024      -0.00042891
C        4.94543183       4.25321181       3.74147099       0.00351175      -0.00132646       0.00090978
N        3.78180012       6.43444146       3.95586573      -0.00226732      -0.00057343      -0.00833998
C        2.49197840       8.53745978       3.82952272       0.00638292       0.00360498      -0.00908283
C        9.87115598      -0.00958985       3.65364692      -0.00082120      -0.00243944      -0.00522045
C        8.63285061       2.12737782       3.57401907       0.00265213       0.00168393      -0.00054280
C        7.39188183       4.27128599       3.52457811      -0.00254936      -0.00208967       0.00295308
C        6.16546855       6.41422517       3.57587158       0.00137965       0.00880456       0.00731309
C        4.94101010       8.53168612       3.67027515      -0.00461705       0.00385756       0.00097302
C       -0.01249371       1.40965377       3.78011104      -0.00073953      -0.00277016       0.00434900
C       -1.27268815       3.54337469       3.77468968      -0.00838127       0.00250641       0.00566070
C       -2.49686059       5.69907966       3.62954033       0.00141035      -0.00130175       0.00836824
C       -3.70355960       7.83952375       3.57339271       0.00110876      -0.00728528       0.00079549
C       -4.93044382       9.97477059       3.65050797       0.00230594       0.00303972      -0.00832934
C        2.49209314       1.42851938       3.82932957       0.00254242       0.00173128      -0.00853056
B        1.14842373       3.49940825       4.21535591       0.00901723       0.00897521       0.00512515
C       -0.08774867       5.69394884       4.00880914      -0.00614483      -0.00373752       0.00251657
C       -1.24319244       7.84210191       3.72955625      -0.00368968       0.00015272       0.00346852
C       -2.46533259       9.97602173       3.65371130       0.00309278       0.00338556       0.00007200
C        4.94095502       1.43475939       3.66998046      -0.00170841      -0.00284015       0.00046255
N        3.78081546       3.53230423       3.95315054       0.00337147      -0.00175354      -0.00346178
C        1.23575021       7.87515695       3.92777226       0.00160195       0.00894399      -0.00015878
C       -0.00414857       9.97674770       3.67813127      -0.00426834       0.00327419      -0.00014422
C        7.40228425       1.41499230       3.58279844      -0.00213786      -0.00320658      -0.00350015
C        6.16570712       3.55213667       3.57800265      -0.00092465      -0.00287620       0.00390915
C        4.94543820       5.71321643       3.74079679       0.00493899       0.00147544       0.00463670
C        3.72693888       7.80619956       3.82456566       0.00129911       0.00348508      -0.00193618
C        2.47892805       9.96028565       3.69274824       0.00137580      -0.00359111      -0.00185815
C        9.86413908       1.41382268       3.63070880       0.00529243      -0.00258197       0.00037954
C        8.62190286       3.55385002       3.54884377       0.00280637       0.00584401       0.00102917
C        7.39188580       5.69563974       3.52357324      -0.00227726      -0.00383494       0.00261385
C        6.16883156       7.83419623       3.59509281      -0.00204655       0.00660899       0.00231715
C        4.93328004       9.95742530       3.65987756      -0.00404011      -0.00403419      -0.00602720
Sc       2.71490609       4.98303923       5.04872035       0.00138940      -0.00438035      -0.00091844
