50
Lattice="12.336457 0.0 0.0 -6.168228499999997 10.683685154694365 0.0 0.0 0.0 15.0" Properties=species:S:1:pos:R:3:forces:R:3 energy=-446.3062020650389 free_energy=-446.3062020650389 stress="0.0013959521991382718 0.0032909053591521774 -6.019654708188311e-06 0.0032909053591521774 0.00037652524668569005 2.078875368560391e-06 -6.019654708188311e-06 2.078875368560391e-06 -7.832434063130409e-07" pbc="T T T"
C       -0.02117135       0.01758272       3.71993548       0.00142558      -0.00071084       0.00310209
C       -1.22962275       2.16530518       3.74778611       0.00240272       0.00304525      -0.00558777
C       -2.45327639       4.29601426       3.78894450      -0.01015480      -0.01263136      -0.00278077
C       -3.72581110       6.42286410       3.71333264      -0.00002676      -0.00831303      -0.00082561
C       -4.97482155       8.54704727       3.67693121      -0.00029580       0.00529209      -0.00350879
C        2.44095061       0.01109170       3.71491177       0.00540515       0.00077661       0.00403611
C        1.22617654       2.17586109       3.50127181       0.00182068       0.00065798       0.00703477
C        0.02830309       4.32506400       3.63221308       0.00024071       0.00081642       0.00414137
C       -1.24931525       6.44080447       3.88182018       0.00108740      -0.00112987      -0.00151486
C       -2.49874279       8.56146239       3.84908165      -0.00600836      -0.01052817      -0.00138284
C        4.92101746       0.00269235       3.92564078      -0.00069122       0.00190698       0.00042384
C        3.70767599       2.11315972       3.64856709      -0.00539793      -0.00044552      -0.00074497
B        2.56922357       4.22366881       2.84406483       0.00011087      -0.00254395      -0.00483252
N        1.13589448       6.45899935       4.20541745       0.00606692      -0.00185935      -0.00712063
C       -0.03686167       8.55665415       4.09034147       0.01115240       0.00566039       0.00342027
C        7.39779415       0.00517231       4.06405960      -0.00016480      -0.00352002       0.00509580
C        6.18137417       2.12547134       3.88818956       0.00040646       0.00237351       0.00093379
C        4.99534023       4.21943364       3.48463575      -0.00074226       0.00531677       0.00267292
S        3.30674229       5.76469791       2.06230155      -0.00449675      -0.00297082      -0.00394356
C        2.45713137       8.54473403       4.19883881       0.00066725      -0.00217648      -0.01052244
C        9.86301005       0.01754876       3.95915747      -0.00455998       0.00194678      -0.00014359
C        8.64485617       2.15203092       3.91566980      -0.01238277      -0.00157194      -0.00402485
C        7.41948549       4.28077949       3.74075312      -0.00143651       0.01124490       0.00148465
C        6.12448960       6.39895238       3.42781747       0.00229831       0.00395746       0.00308848
C        4.88727990       8.54199642       3.85425477       0.01105162      -0.00294606      -0.00266911
C       -0.00619718       1.45049152       3.65591410       0.00433487       0.00056122       0.00804473
C       -1.21606779       3.59563725       3.73148587      -0.00273198      -0.00017556      -0.00661228
C       -2.47794729       5.72137896       3.78670523      -0.00037856      -0.01270750       0.00283010
C       -3.73311974       7.84572469       3.72993509      -0.00969962      -0.00875600      -0.00801319
C       -4.96260726       9.97698447       3.69776810       0.00464158       0.00603185       0.00043736
C        2.45175524       1.43503306       3.60457198      -0.00136453      -0.00026974       0.00598124
C        1.22675281       3.61463848       3.33279305      -0.00004044       0.00173839       0.00244211
C       -0.00325018       5.75301023       3.88916476       0.00297362       0.00057963       0.00184386
C       -1.26295480       7.85376661       3.95723081       0.00652040       0.00215184       0.00232376
C       -2.49272545       9.98432847       3.83710843       0.00196323      -0.00721404      -0.00193966
C        4.93916829       1.41504050       3.84750484      -0.00387908       0.00426379       0.01257615
C        3.76854018       3.51073437       3.44079238      -0.00125638       0.00009723       0.00091801
C        1.17681677       7.83329359       4.21395655       0.00734850      -0.00182413       0.00563966
C       -0.01546751       9.97828366       4.04808509       0.00343008       0.00484693      -0.00120883
C        7.41068106       1.42742545       3.97713988      -0.00544702      -0.00613397       0.00051428
C        6.21348134       3.54042977       3.75456315       0.00565777       0.00652216      -0.00227454
C        4.95620514       5.59570638       3.12171559       0.00168071       0.00645794      -0.00514276
C        3.67918030       7.87411556       4.12894616       0.00325486       0.01402873       0.00288644
C        2.46005623       9.99080076       4.09897306      -0.00392395      -0.00503914      -0.00986554
C        9.87513232       1.44705303       3.88623417      -0.00495347       0.00680106       0.00098388
C        8.65376351       3.57628262       3.82702199      -0.01388793      -0.00266796       0.00186564
C        7.38064164       5.70341963       3.61300244      -0.00060617       0.00699843       0.00190162
C        6.12269186       7.82655985       3.62050207       0.00854237      -0.00047776      -0.00214329
C        4.91661783       9.98875517       3.84763965      -0.00002017      -0.00315857       0.00318463
Sc       3.14000953       5.86672313       4.52596691       0.00006319      -0.00430253      -0.00300516
