49
Lattice="12.336457 0.0 0.0 -6.168228499999997 10.683685154694365 0.0 0.0 0.0 15.0" Properties=species:S:1:pos:R:3:forces:R:3 energy=-439.36059504920445 free_energy=-439.36059504920445 stress="0.003718021123079554 -6.4496986281091164e-06 1.2075160760829927e-06 -6.4496986281091164e-06 -0.003733947729149262 -6.480533667368478e-06 1.2075160760829927e-06 -6.480533667368478e-06 -1.4349869266682655e-08" pbc="T T T"
C        0.00160306      -0.01837431       3.60314660       0.00844981      -0.00693260       0.00466606
C       -1.21321236       2.14091965       3.74420434      -0.00710368      -0.00420406       0.00120647
C       -2.44193094       4.25885246       3.76741949      -0.00084832      -0.00332885       0.01447719
C       -3.70146375       6.38299229       3.65378636       0.00057585       0.00557268      -0.01057752
C       -4.93903851       8.51310011       3.56745976      -0.00351743       0.00408910      -0.00654573
C        2.46698066      -0.06656751       3.51722824       0.00071261      -0.00199099       0.00656958
C        1.26181797       2.07405410       3.67307504      -0.00594526      -0.00862359      -0.00341385
C        0.10197237       4.29227746       3.88416423      -0.00001703       0.00206347      -0.00374428
C       -1.23888021       6.40354193       3.70761851       0.00094698      -0.00029636      -0.00299115
C       -2.46357911       8.51305672       3.56594496       0.00280201       0.00270759      -0.00852373
C        4.93249585      -0.01860582       3.60110565      -0.01057410      -0.00341383      -0.00059955
C        3.67223101       2.07426934       3.67118052       0.00365074      -0.01022492      -0.00178691
N        1.12427040       6.48303254       4.01719867       0.01139418      -0.00520459       0.00558082
C       -0.00648106       8.54156651       3.68473459       0.00600622       0.00024333       0.00133302
C        7.39952454      -0.00008091       3.71824960      -0.00393511       0.00609866      -0.00723582
C        6.14690497       2.14102035       3.74314833       0.00882514      -0.00527027      -0.00325426
C        4.83158274       4.29237132       3.88466556       0.00095578       0.00291122      -0.00368522
N        3.80929674       6.48327856       4.01884079      -0.00818796      -0.00327654       0.00608481
C        2.46688937       8.53007065       3.83430588      -0.00018314       0.00231321      -0.00619910
C        9.87086012      -0.00018412       3.71927367       0.00262533       0.00925140      -0.00466435
C        8.63510028       2.13639588       3.75473616      -0.00025362       0.01085670       0.00950188
C        7.37548830       4.25893279       3.76774585       0.00095973      -0.00377470       0.01339317
C        6.17241953       6.40378834       3.71013560       0.00194493      -0.00157190      -0.00295534
C        4.94038099       8.54190232       3.68710645      -0.00549252      -0.00213308       0.00431242
C        0.01195176       1.41312154       3.66416396      -0.00697824      -0.01010902      -0.00302075
C       -1.16951068       3.56893483       3.80701745      -0.00125149      -0.00429066      -0.00218202
C       -2.46307079       5.67697714       3.70488697      -0.00134818      -0.00238259       0.00598947
C       -3.70133433       7.80131711       3.58164043      -0.00064252       0.00879987      -0.01547448
C       -4.94308605       9.93168462       3.54164494       0.00821861      -0.00075987       0.00097938
C        2.46703291       1.34164427       3.59089177      -0.00127979      -0.00487154       0.00105819
B        1.51886059       3.55945734       3.88185587       0.00182461       0.00412126      -0.01733717
C       -0.00535907       5.72669136       3.86400261       0.00367364       0.00235780       0.00356162
C       -1.22985093       7.81528571       3.63976748       0.00496725       0.00177230       0.00058437
C       -2.45937859       9.93163300       3.53916409      -0.00745418      -0.00148606       0.00968167
C        4.92200690       1.41302827       3.66187650       0.00595419      -0.00780780       0.00016831
B        3.41475780       3.55966436       3.88077724      -0.00077703       0.00166325      -0.01271773
C        1.20961081       7.83279751       3.84642516       0.00752345      -0.00198545       0.00950689
C       -0.00057214       9.96619718       3.65843724      -0.00877886       0.00233623      -0.00099388
C        7.39134930       1.42935404       3.73507099       0.00848209       0.00478034       0.00591928
C        6.10305589       3.56903748       3.80663843       0.00213703      -0.00480878       0.00074848
C        4.93903359       5.72683767       3.86678421      -0.00271905       0.00384023      -0.00241281
C        3.72426639       7.83317452       3.84887632      -0.00827149      -0.00305570       0.00309693
C        2.46691829       9.96145910       3.75402537       0.00003531       0.00753612      -0.00492177
C        9.87885185       1.42915116       3.73632355      -0.00770853       0.00975652       0.00139850
C        8.63503659       3.55768215       3.76404481      -0.00059880       0.00357879       0.01269502
C        7.39655561       5.67711924       3.70600097       0.00309285      -0.00326188       0.00582153
C        6.16359562       7.81552753       3.64205746      -0.00337372      -0.00047174       0.00139249
C        4.93471236       9.96644764       3.66059236       0.00461842       0.00035085      -0.00307562
Sc       2.46672663       5.31271368       5.07527854      -0.00313675       0.00853644      -0.00141450
