49
Lattice="12.336457 0.0 0.0 -6.168228499999997 10.683685154694365 0.0 0.0 0.0 15.0" Properties=species:S:1:pos:R:3:forces:R:3 energy=-433.4885088792171 free_energy=-433.4885088792171 stress="0.0028232159554110576 0.0022046117552659197 -7.043563360086456e-06 0.0022046117552659197 -0.006496498542763982 2.8243566570547922e-06 -7.043563360086456e-06 2.8243566570547922e-06 -1.1587141088944043e-06" pbc="T T T"
C       -0.00728531      -0.00698785       3.65522486       0.00095840      -0.01026036       0.00753915
C       -1.21906822       2.16039278       3.73358092      -0.00016334      -0.00086659       0.00165151
C       -2.47374260       4.29191628       3.77256537      -0.00072254       0.00789996      -0.00311725
C       -3.71999984       6.40639298       3.76416705      -0.00021587       0.00056950       0.00346850
C       -4.95780586       8.52510928       3.69514559       0.00428117      -0.00257181       0.00037611
C        2.47626250      -0.03032013       3.67927563       0.00481526       0.00198567       0.00194976
C        1.25495777       2.08630516       3.84603311      -0.00660323      -0.00622091       0.01013540
C       -0.02736311       4.31000258       3.97190994       0.00070999      -0.00233595      -0.00237236
C       -1.19985559       6.42332308       3.82941793      -0.00321453      -0.00386394      -0.00579541
C       -2.46974151       8.53073450       3.70246936       0.00592831      -0.00180468      -0.00524879
C        4.93629197      -0.01020146       3.61333069      -0.00059604      -0.00068693      -0.00776325
C        3.73096134       2.07581761       3.76215787      -0.00427896       0.00189491       0.00528294
B        1.51075366       6.41181520       3.93735384       0.00512179       0.00826909      -0.00541684
C        0.00715329       8.55606654       3.67438901       0.00249170       0.00439812      -0.00676665
C        7.39716199       0.03611794       3.54962486      -0.00010694      -0.00457913      -0.00897753
C        6.17146598       2.14264033       3.60282683      -0.00273801      -0.00216897      -0.01057369
C        4.94858059       4.24021720       3.79085221      -0.00010420       0.00113393      -0.00220434
B        3.39274442       6.40984560       3.83581524      -0.00145290       0.01170690      -0.00852186
C        2.46165309       8.62952997       3.60177148      -0.00248182      -0.00412420      -0.00610249
C        9.87755416       0.04338950       3.56318817      -0.00866461      -0.00959848       0.00830186
C        8.64077368       2.16674167       3.61341133       0.00208031       0.00229782       0.00739786
C        7.38761491       4.28722281       3.70170791       0.00327691       0.00437860       0.01045755
C        6.08767147       6.38605580       3.76998230       0.00272174       0.00692412       0.00127819
C        4.91240815       8.55106301       3.63508649      -0.00707899       0.00420027      -0.00116273
C        0.00107271       1.42033788       3.73693868      -0.00150848      -0.00685388       0.00059467
C       -1.24070268       3.57837629       3.82399687      -0.00092512       0.00404191      -0.01512928
C       -2.46432067       5.71329005       3.79852897      -0.00505928       0.00204537      -0.00011588
C       -3.71480646       7.82379437       3.72772686       0.00470670      -0.00066507      -0.00598433
C       -4.94158501       9.95068105       3.67217186       0.00543125      -0.00176514      -0.00441685
C        2.50144913       1.39734034       3.75745133      -0.00178031       0.00198277       0.00440610
B        1.15948002       3.48354830       4.12733097       0.00084538      -0.00571108       0.00705412
C        0.06609718       5.72389331       3.93808203      -0.00135297      -0.00108123      -0.00663155
C       -1.22798162       7.83671138       3.74039475       0.00401864      -0.00319169       0.00161525
C       -2.46352824       9.95327643       3.65642097       0.00329730      -0.00024884       0.00828731
C        4.94697327       1.41584098       3.61981211      -0.00453917      -0.00218222      -0.00316656
O        3.77233022       3.45757782       3.95166128      -0.00510904       0.00774730       0.00024631
C        1.25688531       7.89866617       3.70346568      -0.00128447       0.00485266       0.00644338
C        0.00301180       9.98363024       3.59570617       0.00144264       0.00386138      -0.00545245
C        7.39959247       1.45552862       3.56741275       0.00042060      -0.00195607       0.00310392
C        6.16249567       3.55691637       3.66256600       0.00034626       0.00005546       0.00501337
C        4.80583437       5.64752370       3.83448560       0.00600106       0.00377030       0.00242099
C        3.66069167       7.89371706       3.65070922      -0.00216706       0.00444437      -0.00314557
C        2.46826443      10.04019471       3.53286761      -0.00582554      -0.01073511       0.00707317
C        9.87884556       1.46051783       3.61991792       0.00035774      -0.00838687      -0.00210142
C        8.62994781       3.58459092       3.68924044       0.00285683       0.00623440       0.00224799
C        7.35343906       5.70051448       3.75753166       0.00616600       0.00389621       0.00462572
C        6.13145994       7.81141646       3.70680089      -0.00332180       0.00596749       0.00789263
C        4.92860907       9.98534844       3.60177110      -0.00485516      -0.00327463      -0.00072734
Sc       2.68469136       4.78212558       5.18043988       0.00787440      -0.00942473       0.00203071
