50
Lattice="12.336457 0.0 0.0 -6.168228499999997 10.683685154694365 0.0 0.0 0.0 15.0" Properties=species:S:1:pos:R:3:forces:R:3 energy=-441.35716237730645 free_energy=-441.35716237730645 stress="-0.00448156015704914 0.0025603833946895465 1.6838289392427035e-05 0.0025603833946895465 -0.0022793800308766234 -1.470801307988577e-05 1.6838289392427035e-05 -1.470801307988577e-05 8.893016337118965e-06" pbc="T T T"
C        0.03256212       0.01113949       3.86081809      -0.00030807       0.00621634       0.01117237
C       -1.19503495       2.13985488       3.72142871       0.00378118      -0.00051690      -0.00821546
C       -2.43426359       4.26922463       3.62140256       0.00256212       0.00184053       0.00170439
C       -3.67991615       6.40617142       3.76896488       0.00051255      -0.00375913       0.00759578
C       -4.92781160       8.53797959       3.90542291       0.00096064       0.00314050       0.00087284
C        2.48582721       0.00890210       3.83081284       0.00736906       0.00116243      -0.00060091
C        1.26918837       2.17799376       3.84682174       0.00060548      -0.00463290       0.00405943
C        0.01725122       4.26125876       3.37625621      -0.00691302      -0.01655480      -0.00226791
C       -1.25714440       6.41428508       3.30594598       0.01203348      -0.00650644      -0.00441878
C       -2.46978177       8.55334954       3.63597548      -0.00366095      -0.00508916      -0.00679689
C        4.96257574      -0.01439310       3.69402572       0.00206370       0.00451875       0.01274917
C        3.75440107       2.11613702       3.90311377      -0.01153432       0.00156115      -0.00360509
B        2.60892038       4.33690482       4.08295631       0.00377037       0.00282296      -0.00270557
P        1.33709829       6.47233010       2.15946492       0.00607081      -0.00873380       0.00960726
C       -0.00419271       8.54428711       3.42320933       0.00029745       0.00110889      -0.01517264
C        7.43275266      -0.00954389       3.62761443       0.00357775      -0.00661529       0.00723612
C        6.22698327       2.10073720       3.80980275      -0.00048391      -0.00353228       0.00440393
C        5.04801865       4.21221835       4.09281049       0.00256638       0.00515809      -0.01097459
S        3.43734238       6.24015912       4.53600877      -0.00584593       0.00363315      -0.00203606
C        2.50835851       8.56661310       3.60400912      -0.00539376       0.00410025      -0.00228188
C        9.91130877       0.00028492       3.74730647      -0.00794824       0.00585677      -0.00068384
C        8.68173253       2.12421016       3.72649038      -0.00062891       0.00595019      -0.00225903
C        7.46845212       4.25705034       3.87899395       0.00261884       0.00465888       0.00171724
C        6.19790027       6.38912369       4.09866113      -0.00497591      -0.00302219       0.00221541
C        4.95078092       8.53471275       3.95799300      -0.00440262      -0.00832606       0.00189582
C        0.04278062       1.44366847       3.80947025       0.00445957       0.00394069      -0.00801627
C       -1.21459079       3.55334415       3.56763482       0.00035061      -0.00282908       0.01023541
C       -2.45962513       5.69341622       3.57345863       0.00574215      -0.00180699       0.00080814
C       -3.69067754       7.83408855       3.77763422      -0.00738538      -0.00370933      -0.00435952
C       -4.91361719       9.97304508       3.87397201       0.00508776       0.00803803       0.00540143
C        2.49195357       1.44025897       3.87481840      -0.00262251      -0.00154922      -0.00286929
C        1.25733820       3.64792833       3.79766212      -0.00937913      -0.01519667       0.00128556
C       -0.09174249       5.64590447       2.87768412       0.01239476       0.01115757       0.00282805
C       -1.23874286       7.84352574       3.41597843       0.00101782      -0.00578013      -0.00130544
C       -2.45479674       9.97256251       3.72415990       0.00585736      -0.00422324       0.00085476
C        4.98523071       1.39560041       3.80476095      -0.00987263       0.00569944       0.01109343
C        3.82465469       3.52070540       4.03541717       0.00250295      -0.00975522      -0.00339656
C        1.26753791       7.83006706       3.32585843       0.00168474       0.00434984       0.00349113
C        0.02387854       9.96426167       3.58073703       0.00184270       0.00017362      -0.00212617
C        7.45005266       1.40316505       3.71748268       0.00311307      -0.00425027       0.00065189
C        6.26509849       3.51627316       3.93412830      -0.00077247       0.00524986      -0.00259340
C        5.03741591       5.60626060       4.26181381      -0.00332098       0.00934645      -0.00369286
C        3.68285923       7.88619243       3.93686109      -0.00524562       0.00460455       0.01094593
C        2.50577781       9.98294475       3.64020287      -0.00240819      -0.00219110      -0.00651948
C        9.91322223       1.42060318       3.73014718      -0.00191161       0.00559662      -0.00258356
C        8.68475161       3.54642615       3.74715383       0.00213069       0.00619049      -0.00354073
C        7.44378903       5.68399332       3.93375575       0.00001200      -0.00003431      -0.00555295
C        6.17904291       7.82018580       4.02272014       0.00436709      -0.00713582      -0.00742882
C        4.96896621       9.97158283       3.85150159      -0.00428206       0.00090844       0.00110921
Sc       0.99441229       5.92771072       4.67933560      -0.00005687       0.00876587       0.00206902
