50
Lattice="12.336457 0.0 0.0 -6.168228499999997 10.683685154694365 0.0 0.0 0.0 15.0" Properties=species:S:1:pos:R:3:forces:R:3 energy=-446.41948286824237 free_energy=-446.41948286824237 stress="-0.00015212446727856763 0.003750695245262849 -1.1122207637663415e-05 0.003750695245262849 0.0011305659216973088 9.913957282321242e-07 -1.1122207637663415e-05 9.913957282321242e-07 2.2956144481613096e-07" pbc="T T T"
C       -0.00697697       0.02343371       3.64640146       0.00383297       0.00138875      -0.00676542
C       -1.21200918       2.16926272       3.74733156       0.00239899       0.00957953       0.00269015
C       -2.43780775       4.29871475       3.87789454      -0.00524761      -0.00228061       0.00189614
C       -3.70828000       6.43021369       3.82328011      -0.00035237      -0.00170694      -0.00188441
C       -4.96009067       8.55976539       3.67572869      -0.00871247      -0.00278965      -0.00173459
C        2.45345458       0.02213406       3.72302759       0.00604347      -0.00049592       0.00220220
C        1.25225422       2.19267668       3.50377371      -0.00152075       0.00114019       0.00172770
C        0.03451211       4.34401710       3.71307997       0.00883410       0.00190103      -0.00356623
C       -1.25250356       6.45529479       3.95287293       0.00143826      -0.00444714      -0.00290062
C       -2.49345209       8.57558714       3.90187442      -0.00560238       0.00129091      -0.00001896
C        4.92720795       0.01923543       3.93192306       0.00801575       0.00120662      -0.00459218
C        3.71248171       2.13464776       3.67511739      -0.00418597      -0.00393563       0.00586253
B        2.62263902       4.31251962       2.78225505      -0.01837391       0.00159824       0.00187048
N        1.13483565       6.48610710       4.20631198       0.00151768      -0.00409897       0.00577313
C       -0.02696484       8.56978406       4.03583074       0.00094898      -0.00229945      -0.00672522
C        7.41006892       0.00694639       3.99001356      -0.00570519       0.00726773       0.00073884
C        6.19569998       2.13191873       3.90963462      -0.00119663       0.00060528       0.00347147
C        5.01304695       4.23580563       3.57272615       0.00541452      -0.00160257      -0.00798630
P        3.46284956       6.17493274       2.67296893      -0.00271607       0.00964709      -0.01080649
C        2.44109863       8.54088606       3.82714213       0.00228419       0.00132941       0.00249542
C        9.87256685       0.01175723       3.80464199       0.00018474      -0.00715994       0.00353539
C        8.66174389       2.14944671       3.92179473       0.00523730      -0.00172142      -0.00115625
C        7.43969721       4.28273417       3.83564927      -0.00746956       0.00603565      -0.00153729
C        6.18191767       6.41106728       3.52930011       0.00115473       0.00400433      -0.00029016
C        4.89486140       8.54126159       3.53722737      -0.00115280      -0.00326102       0.00261270
C        0.01440093       1.46141703       3.62967576      -0.00065809       0.00629184      -0.00042240
C       -1.20071068       3.59919040       3.78925984       0.00344944       0.00932412       0.00170955
C       -2.46842700       5.72504269       3.89462428       0.00027623      -0.00447113      -0.00186825
C       -3.72348305       7.85697029       3.79903282      -0.00821866      -0.00230186       0.00069397
C       -4.94692193       9.99024556       3.67229235       0.00403516      -0.00128515      -0.00245243
C        2.46684355       1.45762967       3.61415990      -0.00508104      -0.00141972       0.00173932
C        1.26804667       3.65924438       3.33775974       0.00474633       0.00024588       0.00226200
C       -0.01723749       5.76493562       3.95068588       0.00552331      -0.00371915      -0.00360560
C       -1.25975232       7.86819818       3.99530193      -0.00315231      -0.00153490      -0.00126111
C       -2.48702467       9.99988245       3.86161502       0.00793390       0.00333098       0.00432679
C        4.94701367       1.43155198       3.86088263       0.00007972       0.00003306      -0.00027637
C        3.76449473       3.54298729       3.45036788       0.00028338      -0.00303360      -0.00101537
C        1.18899296       7.85250883       4.03114281       0.00332381      -0.00501673      -0.00294930
C       -0.00751522       9.99213108       4.00677893       0.00222881      -0.00039163      -0.00172478
C        7.42510877       1.42888055       3.96647630       0.00018318       0.00594576       0.00284229
C        6.22625264       3.54692470       3.81069646       0.00027226      -0.00236689      -0.00184161
C        4.99917571       5.62965989       3.34115562       0.00948603      -0.01057707       0.00709750
C        3.62638668       7.85007806       3.46607506       0.00092276      -0.00698016       0.00492109
C        2.46776727       9.97655684       3.90564406      -0.00742871       0.00265983       0.00774054
C        9.89088411       1.44306407       3.84083037       0.00747942      -0.00401582       0.00227169
C        8.66977292       3.57663006       3.89840847      -0.00900933       0.00066186       0.00321647
C        7.41208218       5.70819080       3.73608238      -0.00269284       0.00583602       0.00071771
C        6.14552478       7.83842838       3.54994576      -0.00695392       0.00053659      -0.00033971
C        4.92467905       9.97874926       3.66474967       0.00281208      -0.00451195      -0.00031649
Sc       2.37907367       4.91545739       4.83921330       0.00508913       0.00556435      -0.00637759
