50
Lattice="12.336457 0.0 0.0 -6.168228499999997 10.683685154694365 0.0 0.0 0.0 15.0" Properties=species:S:1:pos:R:3:forces:R:3 energy=-445.41180473237966 free_energy=-445.41180473237966 stress="-0.0016646442428376752 -0.006585956601279395 1.1925019446157099e-05 -0.006585956601279395 0.005356824556920972 7.921285036832568e-07 1.1925019446157099e-05 7.921285036832568e-07 -6.318976438341313e-06" pbc="T T T"
C       -0.00142134       0.01824611       3.74909200       0.00081839       0.00700360       0.01812104
C       -1.28314630       2.11350684       3.76946164       0.00478757      -0.00722181      -0.01160413
C       -2.52516399       4.26458946       3.76663398      -0.00283093       0.00111234      -0.00724654
C       -3.69565120       6.42124673       3.75047679       0.01021143       0.00283952       0.01290749
C       -4.90815594       8.57685915       3.75267530      -0.01055354      -0.00165127       0.00145074
C        2.47880283       0.03294821       3.65049829      -0.00149133      -0.00039251      -0.00348933
C        1.20778450       2.15334281       3.65784813       0.00397813       0.00095490      -0.01866100
C       -0.09894337       4.23627869       3.66984519      -0.00762529      -0.00802639      -0.00659277
C       -1.24315916       6.39845267       3.65721780       0.00228585      -0.00104117      -0.00576751
C       -2.44080309       8.55776108       3.66181336       0.00001692      -0.00028927      -0.00895009
C        4.93870390       0.01626656       3.61769268      -0.00227516      -0.00394661       0.01568539
C        3.66415162       2.22377478       3.55138205      -0.00099796       0.00314964       0.00256213
B        2.24605149       4.55022337       3.20724836       0.00470683       0.00009799      -0.01814346
B        1.38131923       6.14717866       3.51777834      -0.00201446       0.01367124      -0.01118396
C        0.05356229       8.49209650       3.61553028       0.00219317      -0.00141500       0.00018528
C        7.39433089      -0.01860372       3.71763404      -0.00393371      -0.00096548       0.00381612
C        6.13375970       2.16316728       3.70679821      -0.00754744      -0.00688922       0.00001789
C        4.88458989       4.36090352       3.78298014       0.00123144       0.00542383       0.00119926
O        3.90142986       6.55893033       4.42342140       0.00267600      -0.00012031       0.00968965
C        2.49757713       8.48610606       3.80578496       0.00961095      -0.00278213       0.00590468
C        9.84817435      -0.01925435       3.80207564       0.00003075      -0.00726242       0.00055461
C        8.59257280       2.12750888       3.78570847       0.00711911       0.00834639       0.00449357
C        7.36099616       4.28815133       3.79739457      -0.00977383       0.00616893       0.00078208
C        6.19992925       6.45623968       3.83867874       0.00588297      -0.00212267       0.00849657
C        4.96720651       8.56913055       3.85536375       0.00466752       0.00130472       0.00696729
C       -0.02818027       1.43023910       3.73110020       0.00799182       0.00443344      -0.00236591
C       -1.31717797       3.52763249       3.74434821      -0.00885075      -0.00981344       0.00820169
C       -2.48603444       5.69305927       3.72966530       0.00725878      -0.00028157      -0.00935590
C       -3.67488550       7.85268297       3.72142892      -0.00369193       0.00347245      -0.00604171
C       -4.91715535      10.00546289       3.71791734      -0.00487653       0.00175817       0.00114191
C        2.45893045       1.47338924       3.60743678       0.00186942       0.00246657       0.00224937
C        1.15420984       3.57040195       3.64023440      -0.00113725       0.00200066      -0.00546060
C       -0.04962418       5.63604437       3.61848660      -0.00157790      -0.00777754       0.00182448
C       -1.20907219       7.82498650       3.63544184       0.00282460      -0.00265617       0.00479833
C       -2.45657141       9.99111207       3.63320997      -0.00105242      -0.00142846       0.00317925
C        4.90328701       1.46547927       3.61579010      -0.00754634      -0.00682615       0.01436385
C        3.61248688       3.71419971       3.50683376       0.00671388       0.00233864      -0.00609224
C        1.30389854       7.72637777       3.62452913       0.00386950       0.00772803       0.00274063
C        0.00762756       9.94778221       3.64417651      -0.00281740      -0.00213877       0.00437745
C        7.36670257       1.42051100       3.74197467       0.00318944       0.00464421      -0.00213319
C        6.12598422       3.59382223       3.76420174      -0.00759787      -0.00219157      -0.00159257
C        4.99987715       5.76726375       3.96190332       0.00170053       0.00201047      -0.00332924
C        3.76614833       7.87880121       3.98631494       0.00676528      -0.00176438       0.00664139
C        2.46225396       9.93872938       3.77981639      -0.00137790      -0.00589527      -0.00393301
C        9.82702437       1.40588790       3.79352286       0.00589857      -0.00536115      -0.00222106
C        8.58528948       3.55689883       3.79141655      -0.00573637       0.01096194       0.00089607
C        7.40746374       5.71263464       3.79490387       0.00674189       0.00405719      -0.00450950
C        6.20771987       7.87490772       3.82366638      -0.00479441      -0.00656071       0.00547765
C        4.93444470       9.98743371       3.79928875       0.00345619       0.00053145      -0.00432971
Sc       2.77913384       5.00391460       5.19201661      -0.01839617       0.00034515      -0.00572247
