49
Lattice="12.336457 0.0 0.0 -6.168228499999997 10.683685154694365 0.0 0.0 0.0 15.0" Properties=species:S:1:pos:R:3:forces:R:3 energy=-438.39521052170807 free_energy=-438.39521052170807 stress="-0.005855504420418422 -0.0028949188015041983 8.280411561306154e-07 -0.0028949188015041983 -0.006632622709371007 1.8467522250194452e-06 8.280411561306154e-07 1.8467522250194452e-06 -1.1404054869334315e-06" pbc="T T T"
C       -0.00075762      -0.00101753       3.74547211      -0.00097544       0.00981200      -0.01180943
C       -1.24845200       2.11794791       3.76296257       0.00338713       0.00122615      -0.00064725
C       -2.47367093       4.26144114       3.71922242       0.01003113      -0.00059767       0.00387761
C       -3.69529818       6.40845597       3.68934970      -0.00220480      -0.01643774      -0.00242886
C       -4.92282998       8.54860782       3.70879418      -0.00454971      -0.00020024      -0.00067696
C        2.45563794      -0.01113201       3.67368085       0.00741626       0.00026776       0.00629989
C        1.20748734       2.14699282       3.84930065       0.00237382      -0.00174041      -0.00043577
C       -0.01591838       4.19222700       3.88253992      -0.00477671      -0.00126008      -0.00579596
C       -1.23420643       6.39228960       3.70220774      -0.00035813       0.00095732       0.00809055
C       -2.45854054       8.53895318       3.62823285      -0.00154815      -0.00217190       0.00855612
C        4.93519275      -0.00768473       3.59442021       0.00213790       0.00328307      -0.00982174
C        3.67753943       2.08237891       3.67287313      -0.00310084      -0.00148639       0.00159316
B        1.15769668       6.46743249       3.77559508      -0.00303207       0.00164140       0.01094244
C       -0.00226249       8.55334680       3.60361889       0.00398843       0.00205815       0.00060803
C        7.40232474       0.00355423       3.62028423      -0.00591873      -0.00114353       0.00244602
C        6.15337334       2.14741106       3.65353675       0.00103819      -0.00200763       0.00783697
C        4.95740454       4.33685865       3.84023486      -0.00298377      -0.00102958      -0.00492898
N        3.76563446       6.45716633       4.03622432       0.01239580       0.00388000      -0.00556924
C        2.50138859       8.55681636       3.71756073      -0.00411617       0.00439905       0.00513398
C        9.87090519      -0.00028292       3.71135530      -0.00146827      -0.00926314      -0.00254005
C        8.62546469       2.13405862       3.67656577       0.00523608       0.01288282      -0.00081831
C        7.40365648       4.27789153       3.70870787      -0.00598560       0.00856285       0.00497436
C        6.18731805       6.44269831       3.79199994       0.00072690       0.00260948      -0.00502459
C        4.94833746       8.54532102       3.78447226      -0.00589370      -0.00769831      -0.00473498
C       -0.01398144       1.42096196       3.78078971       0.00290085       0.01077243      -0.00158389
C       -1.25364132       3.52352945       3.77902022       0.00280816      -0.00255580      -0.00557734
C       -2.46985769       5.68845943       3.69667288       0.00389810      -0.00958074       0.00640023
C       -3.69161204       7.83215115       3.67121474      -0.00405287      -0.01118033       0.00452018
C       -4.93669946       9.96660788       3.71035078       0.00043295       0.00857433      -0.00264905
C        2.43333615       1.40919882       3.72763630       0.00188324      -0.00257169       0.00294227
N        1.16767561       3.51032257       4.02655509      -0.00904088      -0.00254855      -0.00019548
C       -0.02252146       5.62896347       3.81122303       0.00027933      -0.00043597      -0.00337687
C       -1.21918471       7.81861567       3.63597191       0.00208559       0.00310151       0.00089851
C       -2.46821199       9.96269671       3.61897777       0.00649311      -0.00010677      -0.00107511
C        4.93670121       1.41268439       3.62204396      -0.00142463      -0.00066527      -0.00582732
B        3.77678525       3.49790520       3.81519095       0.00202761      -0.00333472       0.00927273
C        1.25772860       7.88394244       3.64755551       0.00236451       0.00096723       0.00006959
C       -0.00099434       9.97385832       3.59023090      -0.00150537      -0.00069793      -0.01178694
C        7.39238492       1.42721230       3.63794524       0.00488867       0.00223493       0.00389237
C        6.16832366       3.57374537       3.72440055      -0.00311413       0.00183062       0.00328579
C        4.94989051       5.77398297       3.90257125       0.00768353       0.00086512      -0.00594271
C        3.72669386       7.81926581       3.84930029      -0.00704516       0.00430282       0.00007892
C        2.47869252       9.97753305       3.67255840      -0.00886672      -0.00139262       0.00139471
C        9.85689885       1.41772829       3.70880952       0.00322326      -0.00387565       0.00139031
C        8.62889010       3.55780965       3.69184488       0.00149995       0.01692666       0.00301679
C        7.40725234       5.70492525       3.72805639      -0.00653062      -0.00032682       0.00077703
C        6.18263095       7.84830561       3.76897292      -0.00412662      -0.00320563      -0.00151142
C        4.93493259       9.96728879       3.74607862       0.00279381      -0.01027274      -0.00959705
Sc       2.45785551       4.98912197       4.84153545      -0.00137519      -0.00336785       0.00605673
