49
Lattice="12.336457 0.0 0.0 -6.168228499999997 10.683685154694365 0.0 0.0 0.0 15.0" Properties=species:S:1:pos:R:3:forces:R:3 energy=-433.5907302635459 free_energy=-433.5907302635459 stress="-0.004849342076505638 -0.0018139147577623431 2.3249410519648877e-06 -0.0018139147577623431 -0.0013670482463408378 -6.08634133314981e-07 2.3249410519648877e-06 -6.08634133314981e-07 -1.23186843737634e-06" pbc="T T T"
C        0.00182782      -0.00550393       3.71359676      -0.00503436      -0.00837251      -0.00224264
C       -1.25624879       2.11393011       3.73442535       0.00517458      -0.00250069       0.00138696
C       -2.48493409       4.27005021       3.74154729       0.00272052      -0.01313764      -0.00525437
C       -3.69602334       6.41298101       3.72422377       0.00827568       0.00001450      -0.00017224
C       -4.92751593       8.55086916       3.71613035      -0.00497039       0.00725800       0.00386458
C        2.46940441       0.02868866       3.69744731       0.00436695      -0.00432835      -0.00118186
C        1.19346185       2.11430215       3.77602794      -0.01003469      -0.00683117      -0.00385310
C       -0.07427320       4.22062068       3.84389850       0.00065764       0.00968538       0.00484510
C       -1.23694800       6.39776306       3.71635581      -0.00115039       0.00677568      -0.00225091
C       -2.46172022       8.55078094       3.67649636      -0.00021362      -0.00753746       0.00046263
C        4.92808202       0.01141026       3.65296888      -0.00158995      -0.00044552       0.00005942
C        3.72202100       2.13707958       3.71477848      -0.00061362       0.00047726      -0.00604197
B        1.17951566       6.43293327       3.67426381      -0.00697024      -0.01105943       0.01339160
C       -0.00318195       8.55297756       3.62703631       0.00488443       0.00645902      -0.00045055
C        7.40474900      -0.00403342       3.65410186       0.00401340       0.00232465      -0.00463004
C        6.17128190       2.14296451       3.69761780       0.00127415       0.00139938      -0.00037135
C        4.98327833       4.29097331       3.86903106      -0.00157328       0.00245001      -0.00194477
O        3.75542141       6.46138903       4.03432436      -0.00097443       0.00214161      -0.01303647
C        2.49706326       8.53117810       3.68276809       0.00159080       0.00198280      -0.00543656
C        9.86925666      -0.01588013       3.69747028       0.00583650       0.00474136       0.00306017
C        8.62947310       2.13198895       3.70378844      -0.00113709      -0.00141765       0.00040584
C        7.40195336       4.28078951       3.74923401      -0.00553868       0.00554296      -0.00304791
C        6.18537649       6.41707561       3.79161331      -0.00912583      -0.00761273       0.00912451
C        4.94576357       8.53327797       3.74622753       0.01027017       0.00102387      -0.00478426
C       -0.00891373       1.42295583       3.72769893      -0.00717975      -0.01386412      -0.00034731
C       -1.27415076       3.52407020       3.76656673       0.00908118      -0.00375984       0.00212790
C       -2.46750618       5.69442102       3.72802245       0.00798214      -0.00812580      -0.00023384
C       -3.69000555       7.83936872       3.70514417      -0.00567271       0.00233802       0.00385939
C       -4.92333554       9.98818095       3.70815805      -0.00111434       0.00599699       0.00386194
C        2.46286316       1.49025003       3.72537252      -0.00501657      -0.00182555      -0.00441320
O        1.12019481       3.51027901       3.93267416      -0.00220718       0.00560056       0.00052326
C       -0.00969604       5.62169067       3.78140178      -0.01324100       0.00715135       0.00092555
C       -1.22354589       7.82177446       3.66905094       0.00450709       0.00516436       0.00316871
C       -2.47152961       9.98814216       3.67068092       0.00323367      -0.01008369       0.00204585
C        4.92888963       1.44396369       3.67363470      -0.00017361       0.00216430      -0.00135743
O        3.77410404       3.53941530       3.79132139       0.01132214       0.00458047       0.00067608
C        1.24321824       7.85743885       3.62639266       0.00054645      -0.00936294      -0.00731583
C       -0.00755979       9.98073930       3.63554741       0.00197293       0.00833403       0.00560104
C        7.39312880       1.42484310       3.67876032       0.00064069      -0.00086465       0.00105814
C        6.18105154       3.56299177       3.76335973      -0.00405995       0.00248407      -0.00374970
C        4.98404498       5.69596053       3.91127829      -0.01596512       0.00105163       0.01007541
C        3.72072118       7.84501747       3.79360157       0.00700038       0.01419076      -0.00350274
C        2.47824440       9.96593287       3.67113319       0.00554906       0.00532575       0.00001891
C        9.86181532       1.41261434       3.70585044       0.00448661       0.00426036       0.00381274
C        8.62787270       3.55786086       3.72686845      -0.00775779      -0.00271837      -0.00381278
C        7.40771651       5.69789584       3.75451055       0.00111312       0.00480229       0.00019695
C        6.18681028       7.83850879       3.75146454       0.00290155      -0.00617951       0.00321989
C        4.93439197       9.95998363       3.71510542       0.00099671      -0.00282338      -0.00288686
Sc       2.45148452       4.93564359       4.70574661       0.00091607      -0.00287043       0.00454610
