49
Lattice="12.336457 0.0 0.0 -6.168228499999997 10.683685154694365 0.0 0.0 0.0 15.0" Properties=species:S:1:pos:R:3:forces:R:3 energy=-435.0832092142828 free_energy=-435.0832092142828 stress="-0.005573185405472507 1.8835938999708648e-05 4.5028344757009275e-06 1.8835938999708648e-05 -0.0079585173921189 -4.165865555066956e-06 4.5028344757009275e-06 -4.165865555066956e-06 -1.0873841066198897e-06" pbc="T T T"
C        0.01667986      -0.00124971       3.51518735       0.00623256       0.00839105       0.00507495
C       -1.21516819       2.13666555       3.50969205       0.00488374      -0.00172537      -0.00473413
C       -2.44302698       4.27000843       3.54195438       0.00343433      -0.00989996      -0.00207870
C       -3.67896378       6.40534020       3.56134404       0.00381954       0.00675051      -0.00396184
C       -4.92251327       8.53907985       3.56433931      -0.00516548      -0.00224466       0.00002563
C        2.48174173      -0.02653714       3.54084275      -0.00773740      -0.00231199       0.01226894
C        1.24892883       2.12320752       3.72484587      -0.00844567      -0.00906512      -0.00041387
C        0.02492695       4.25471029       3.74125479       0.00893969       0.00549936      -0.00135654
C       -1.22171714       6.41510116       3.56476457      -0.00347655       0.00383838      -0.00157084
C       -2.45408107       8.53804703       3.47541336       0.00393732      -0.00133582      -0.00317968
C        4.95449692      -0.01440121       3.56479402      -0.00562359      -0.00562753      -0.00265142
C        3.71019405       2.01605305       4.02584908      -0.00068213       0.00178422       0.00924039
C        1.20923951       6.45624033       3.90918911      -0.00212285      -0.00364635       0.00056206
C        0.01619868       8.54587039       3.54095142       0.00422900       0.00052173      -0.00884434
C        7.41475809       0.00880383       3.50786406      -0.00216655       0.00499608       0.00870825
C        6.19261325       2.12404928       3.75453779       0.00114905       0.00723276       0.00178236
C        5.07086248       4.27501310       4.26563841       0.00007773       0.00149491       0.00580566
P        3.58293021       6.42004920       4.82526117      -0.00585373      -0.00064875       0.00433478
C        2.47920184       8.59292130       3.74311923      -0.01004292      -0.00186558       0.00437637
C        9.88736307       0.01128915       3.50679661       0.00192728      -0.00081494       0.00128690
C        8.65121059       2.13878950       3.51503852       0.00129872      -0.00003442       0.00460883
C        7.43813138       4.26996684       3.70079531      -0.00110758       0.00134396      -0.00341725
C        6.22325375       6.42543438       3.89384543       0.01119157      -0.01061864       0.00650082
C        4.96108397       8.57232794       3.78012414       0.00497020       0.00311653      -0.00652427
C        0.01658781       1.42080321       3.54323627       0.00033920       0.00170195      -0.00825126
C       -1.22208666       3.55175887       3.56427938       0.00966023      -0.00417346      -0.00144294
C       -2.44300752       5.69753825       3.54333110      -0.00106043      -0.00421311      -0.00823804
C       -3.68548188       7.82785968       3.51781647       0.00049822       0.00716536       0.00039542
C       -4.92173453       9.95764176       3.51157512      -0.00500669       0.00041414       0.00494459
C        2.47937840       1.37375125       3.74727230      -0.00449859      -0.00146891      -0.00293430
C        1.20976513       3.51135103       3.91054446      -0.00897438      -0.00865927      -0.00183210
C        0.02511257       5.71147545       3.74146333       0.00046646       0.00779593      -0.00766218
C       -1.21538879       7.83003515       3.50861769       0.00553843       0.00245180      -0.00039623
C       -2.44869236       9.95571913       3.50698398      -0.00785907      -0.00549702       0.00458455
C        4.96192983       1.39410552       3.77944801       0.00100345      -0.00204536      -0.00172223
P        3.58697586       3.54250872       4.83541772      -0.00144528       0.00963802      -0.00461804
C        1.24849719       7.84414958       3.72212999      -0.00770959      -0.00230727      -0.00353326
C        0.01700651       9.96760633       3.51295146      -0.00032725       0.00078882      -0.00184998
C        7.41418848       1.42737556       3.56131802      -0.00068235       0.00728786       0.00137485
C        6.22444829       3.54085271       3.89510768       0.00175285       0.00529123       0.00086210
C        5.07059015       5.69012037       4.26489674      -0.00407289      -0.00394038      -0.00403851
C        3.70905544       7.94954015       4.02276192      -0.00070619       0.00403536       0.00539226
C        2.48161798       9.99332937       3.53762926      -0.00476503      -0.00151683       0.01404520
C        9.88258699       1.42885299       3.47497332       0.00302237      -0.00159096      -0.00542410
C        8.65800810       3.56144987       3.55932814      -0.00422540      -0.00270464      -0.00108436
C        7.43744149       5.69667992       3.70081144       0.00984743      -0.00053373      -0.00202853
C        6.19172098       7.84247839       3.75516938       0.00355779      -0.01215419       0.00328102
C        4.95368893       9.98104286       3.56634428       0.00972045       0.00764307      -0.00382392
Sc       1.61684019       4.98374275       5.39786936       0.00225997       0.00146123      -0.00184308
