49
Lattice="12.336457 0.0 0.0 -6.168228499999997 10.683685154694365 0.0 0.0 0.0 15.0" Properties=species:S:1:pos:R:3:forces:R:3 energy=-436.5907330507433 free_energy=-436.5907330507433 stress="-0.003731276241325686 0.0019110304114693525 2.872591414871291e-06 0.0019110304114693525 -0.0009031982182944131 8.285041617153899e-06 2.872591414871291e-06 8.285041617153899e-06 -3.0153007742997177e-06" pbc="T T T"
C       -0.00769725       0.00474686       3.76716724      -0.00149393       0.00925799       0.00564189
C       -1.23436731       2.13751774       3.88984515      -0.00354834      -0.01290567       0.00034143
C       -2.45923478       4.27132489       3.89298058      -0.00325542      -0.00354515       0.00356039
C       -3.70940037       6.40577003       3.78181029      -0.00172231       0.00507954      -0.00860627
C       -4.94759111       8.54643613       3.68357556      -0.00297381       0.01166229       0.00490634
C        2.45588252       0.00766584       3.77624015      -0.00064476      -0.00849056       0.01125974
C        1.23281022       2.18167152       3.86685390       0.00154564      -0.00230885      -0.00663722
C        0.02181175       4.29348133       3.99731014       0.00766227       0.00720809      -0.00295293
C       -1.25468095       6.42180530       3.94459761       0.01202088       0.00796573      -0.01081120
C       -2.47991212       8.54962880       3.82651189      -0.00003996      -0.00312131      -0.00249128
C        4.92993334      -0.00074601       3.81123838       0.00319341      -0.00062239      -0.00686296
C        3.70487862       2.13793574       3.68126459      -0.00231673       0.00990712      -0.00488756
O        1.14155010       6.46064481       4.02482565      -0.00386684      -0.00607387       0.01709943
C       -0.01903682       8.53858528       3.86772923      -0.00113514       0.00069321      -0.00430650
C        7.40238082      -0.01929760       3.84685403       0.00349254       0.00115329      -0.00676025
C        6.18480950       2.11491885       3.76025882      -0.00393677       0.00281274      -0.00143539
C        4.97022075       4.21037890       3.47494495       0.00456931      -0.00662106      -0.00518663
P        3.63064424       6.35842425       2.39819844       0.00585739       0.01011486       0.00145139
C        2.43328706       8.51749615       3.69043213      -0.01150177      -0.00405466      -0.00277499
C        9.86211623      -0.01358765       3.79755362       0.00057006      -0.00945668      -0.00661076
C        8.64250264       2.12537033       3.85177989      -0.00564345      -0.00490572       0.00788958
C        7.42070674       4.26147706       3.72600807      -0.01129236      -0.00564472      -0.00241280
C        6.18636384       6.40655865       3.48911442       0.00160477      -0.00742269      -0.00870548
C        4.91923460       8.54190436       3.53041158       0.01186576       0.01069186      -0.00278455
C       -0.00677820       1.42961004       3.85158203       0.00064145       0.00005240      -0.00603101
C       -1.23580689       3.56207558       3.93846473       0.00243467      -0.00709081      -0.00642040
C       -2.48003180       5.69409597       3.88312560       0.00396371       0.00625159      -0.00085128
C       -3.71614337       7.83436673       3.76531224      -0.00475184       0.00929175       0.00063330
C       -4.94387139       9.97219962       3.74243808      -0.00785218       0.00897604       0.00760124
C        2.46028439       1.43052678       3.77881274       0.00112403      -0.00427579       0.00220739
C        1.23445762       3.58682184       3.96291383       0.00758844       0.00250622      -0.00068627
C       -0.05587872       5.71707218       4.02433615       0.01450651       0.01089626      -0.00155645
C       -1.25845004       7.84128815       3.88975506       0.00164500       0.00347359       0.00083068
C       -2.47949144       9.97676947       3.79996926       0.00242193      -0.00808529       0.00776657
C        4.94563669       1.41478663       3.74968780      -0.00089160       0.00281993       0.00175657
C        3.75303287       3.52242179       3.49013129      -0.00328547       0.00785866      -0.01753992
C        1.19286829       7.85551591       3.83372704      -0.01081726      -0.00902741      -0.00116167
C       -0.00554274       9.96629074       3.84379093       0.00488566       0.00148190       0.00911542
C        7.41360662       1.40578142       3.83173693      -0.00466707       0.00210756       0.00663036
C        6.21060765       3.52725863       3.66013709      -0.00925164      -0.00113571       0.00574202
C        4.98233286       5.65241421       3.28968837       0.00080973      -0.00855254      -0.00247869
C        3.66832077       7.84818446       3.37689924       0.00479524       0.00766962       0.01598262
C        2.45751810       9.95163981       3.80245493      -0.00135613      -0.00698015       0.00882975
C        9.86873556       1.41266175       3.86077012      -0.00590008      -0.01276447      -0.00359859
C        8.64646005       3.55310030       3.83377041      -0.01130603      -0.00379749       0.00159428
C        7.40638734       5.69091938       3.67436878      -0.00238363      -0.00635157       0.00068413
C        6.15985447       7.82999415       3.54092142       0.00888252      -0.00105670      -0.00295630
C        4.92727689       9.96473777       3.71156046       0.00822250       0.00627203       0.00070366
Sc       2.70479548       5.07790426       4.44085872       0.00153110      -0.00191298       0.00527916
