50
Lattice="12.336457 0.0 0.0 -6.168228499999997 10.683685154694365 0.0 0.0 0.0 15.0" Properties=species:S:1:pos:R:3:forces:R:3 energy=-453.0420636945993 free_energy=-453.0420636945993 stress="-0.00494685379851095 -1.1754830018380956e-05 -5.997362354167801e-06 -1.1754830018380956e-05 -0.004955295822671903 7.034509374436403e-06 -5.997362354167801e-06 7.034509374436403e-06 -2.8740814166847203e-06" pbc="T T T"
C       -0.00072067      -0.00245577       3.72452605      -0.00427558       0.00449372       0.00354175
C       -1.23571878       2.13197421       3.71856591      -0.00534043      -0.00227636       0.00091031
C       -2.47099415       4.27044750       3.72066992       0.00402807       0.00265859       0.00091255
C       -3.70145588       6.40749154       3.73101356      -0.00384092      -0.00300019      -0.00964044
C       -4.93065618       8.54722543       3.73485717       0.00131949      -0.00438175      -0.00340233
C        2.46648894      -0.00755347       3.72861752       0.00658948      -0.00157946      -0.00044120
C        1.23476780       2.12287252       3.70892964       0.00060077       0.00417337       0.00476003
C       -0.01035808       4.26534655       3.71643260      -0.00912403      -0.00767750       0.00374606
C       -1.24298551       6.41481568       3.72103918      -0.00692642      -0.00012917      -0.00218008
C       -2.47250870       8.54722958       3.73857764       0.00276321      -0.00131715      -0.00177954
C        4.93419379      -0.00228313       3.72824801       0.00080933       0.00578051      -0.00284489
C        3.69858451       2.12339308       3.70920343      -0.00051907      -0.00047501       0.00212032
C        2.46621063       4.24328069       3.73453618       0.00386342      -0.00103313      -0.00443550
C        1.20797361       6.42222986       3.72415290       0.00399813      -0.00193173       0.01015878
C       -0.01107136       8.54864505       3.72552002      -0.00453776       0.00681350      -0.00921889
C        7.40016053       0.00071859       3.72646282      -0.00198083      -0.00532471      -0.00173081
C        6.16931246       2.13254855       3.71649235      -0.00106354      -0.00692399       0.00190415
C        4.94310541       4.26582049       3.71390188       0.00805842      -0.00348907       0.01246249
C        3.72433348       6.42236536       3.73746909       0.00327950      -0.00457768      -0.00214235
C        2.46656921       8.55595227       3.72670730       0.00405926       0.01074525       0.00314033
C        9.86964500      -0.00003883       3.72707680       0.00172111       0.00739925      -0.01228656
C        8.63524460       2.13413777       3.72121910      -0.00441051       0.00293976       0.00522342
C        7.40381204       4.27054580       3.71760653       0.00362358       0.00398018       0.00016275
C        6.17627926       6.41482121       3.71734882      -0.00029056       0.00090682      -0.00249822
C        4.94475679       8.54885820       3.72087169      -0.00242343      -0.00351274       0.00243908
C        0.00029069       1.42019992       3.71736264      -0.00207650       0.00660199       0.00031938
C       -1.23816132       3.55659877       3.71335917      -0.00628395      -0.00840630      -0.00151657
C       -2.46885275       5.69680914       3.72537269      -0.00424386       0.00090000       0.00072181
C       -3.70158127       7.83380533       3.73695748       0.00235869      -0.00494730       0.00079942
C       -4.93398058       9.96828991       3.73097764       0.00055251       0.00019521      -0.00218852
C        2.46670793       1.41730480       3.71704786       0.00097087       0.00103189       0.00722874
C        1.24184526       3.55879584       3.72129533      -0.00221962       0.00195858      -0.00369065
C        0.00383557       5.70295939       3.72262947      -0.00668472      -0.00478342       0.00101965
C       -1.23824214       7.83461915       3.73445536      -0.00236640       0.00100026      -0.00910096
C       -2.46938306       9.96840163       3.73378909       0.00839948      -0.00037943      -0.00039915
C        4.93332303       1.42062582       3.71777129      -0.00294554       0.00145889       0.00179385
C        3.69091210       3.55931783       3.72072168       0.00547928      -0.00259483      -0.00376046
C        1.22876543       7.82470482       3.72841766       0.00071786       0.00883951       0.00161652
C       -0.00220707       9.96927997       3.72859016      -0.00484339       0.00392478       0.00010560
C        7.40054453       1.42212098       3.72227096      -0.00288273      -0.00804429      -0.00033715
C        6.17094200       3.55700373       3.70915217       0.00656595      -0.00467947       0.00422799
C        4.92887895       5.70347890       3.72443828       0.00636967      -0.00228482       0.00075958
C        3.70465930       7.82497531       3.73133698      -0.00088104      -0.00182708      -0.00423847
C        2.46644971       9.97359420       3.72349399       0.00462462       0.00954549      -0.00320044
C        9.86975419       1.42130684       3.72314708      -0.00491121       0.00445327       0.00268953
C        8.63465999       3.55944303       3.72063777       0.00526975       0.00617360      -0.00314919
C        7.40229783       5.69686436       3.72160014      -0.00337568       0.00195882       0.00671582
C        6.17183538       7.83470101       3.72824769      -0.00167647      -0.00235053      -0.00071342
C        4.93584841       9.96915856       3.72522596      -0.00356292      -0.00082146       0.00116861
Sc       2.45416831       5.70195800       5.24231461       0.00766466      -0.00918466       0.00424728
