49
Lattice="12.336457 0.0 0.0 -6.168228499999997 10.683685154694365 0.0 0.0 0.0 15.0" Properties=species:S:1:pos:R:3:forces:R:3 energy=-436.73043923337286 free_energy=-436.73043923337286 stress="-0.003938062831364815 -0.0020113483513985284 -2.4122741415338504e-06 -0.0020113483513985284 -0.0025701561691430577 -2.7715112050926836e-06 -2.4122741415338504e-06 -2.7715112050926836e-06 1.7052140025477916e-06" pbc="T T T"
C       -0.00325379       0.00135937       3.77416321       0.00826386       0.00088898       0.00124808
C       -1.24732006       2.12495097       3.76539870       0.00229344       0.00097121       0.01159655
C       -2.47551839       4.25874784       3.82187204       0.00092416       0.00004650      -0.00449850
C       -3.69384888       6.40382770       3.86240734      -0.00514120       0.00094120       0.00448152
C       -4.92781900       8.55153031       3.85056975       0.00006065       0.00202756       0.00248964
C        2.46676282      -0.01558542       3.66731709       0.00109339       0.00208473      -0.00524562
C        1.22198144       2.13703836       3.58654787       0.00375865      -0.00646647       0.00876732
C        0.00834537       4.24875124       3.77339075       0.00292124       0.00010306       0.00865896
C       -1.25235816       6.40836533       3.83438550      -0.00259067      -0.00175466       0.00102958
C       -2.46703156       8.54260104       3.79222980      -0.00585756       0.00927502      -0.00147222
C        4.93477800      -0.01089971       3.64033440       0.00485761      -0.00540005       0.00442443
C        3.68458278       2.07997628       3.28762422      -0.00275868      -0.00148071       0.01215866
C        1.19119056       6.40287323       3.91167745       0.01045836       0.00347525      -0.00937639
C        0.00182858       8.53238867       3.80514834      -0.00139787       0.00319407       0.00357903
C        7.40022697      -0.01189726       3.74484139       0.00445951       0.00481592       0.00600574
C        6.15449978       2.14390020       3.60448242      -0.00692120      -0.00256097       0.00505659
C        4.90849811       4.34895815       3.61055968      -0.00288302      -0.00733068      -0.01254729
O        3.80006176       6.46106039       3.86643965      -0.00544622       0.00759291      -0.00860419
C        2.49028346       8.51660064       3.86829268      -0.00451857      -0.00540909      -0.00086501
C        9.86101259      -0.01344233       3.80930859      -0.00495823      -0.00316566      -0.00044107
C        8.62189273       2.12725030       3.76766699      -0.00400742       0.00356294       0.01005082
C        7.38570765       4.26995223       3.79954907       0.00909534      -0.00504674       0.00257006
C        6.20401337       6.43573680       3.89084670      -0.00148669      -0.00508359      -0.00141785
C        4.94904815       8.55037651       3.88156659       0.00163436       0.00344264       0.00012488
C       -0.01455580       1.41960909       3.71298703       0.00563028       0.00048777       0.00277775
C       -1.24697104       3.54241751       3.78478249       0.00059724       0.00207763       0.00096401
C       -2.46887178       5.68776344       3.84239060      -0.00665450      -0.00261435      -0.00383960
C       -3.69318641       7.83082881       3.84239622      -0.00304963       0.00509973       0.00935719
C       -4.93248816       9.97212566       3.77567472       0.00558759       0.00100394      -0.00430407
C        2.45706278       1.39561340       3.49647546       0.00036740      -0.00381126       0.00294503
C        1.21423739       3.54149116       3.60623479      -0.00588286      -0.00817106      -0.00217847
C       -0.00217718       5.70037138       3.84602524       0.00907191       0.00243726       0.00367176
C       -1.23508475       7.82729952       3.81508640      -0.00568162       0.00265464      -0.00948429
C       -2.46549485       9.96142838       3.69909065      -0.00112460       0.00576660      -0.00842289
C        4.93249087       1.41242574       3.49636764      -0.00391853      -0.01221233      -0.00409259
P        3.57867500       3.70609885       2.57982436      -0.00103412       0.00577446      -0.00780063
C        1.23772636       7.78796819       3.86990986      -0.00479115       0.00340881       0.00192934
C       -0.00111828       9.95615656       3.73142382       0.00912539       0.00230351       0.00482563
C        7.38763813       1.41788108       3.70823022      -0.00478245       0.00643999       0.00071233
C        6.15168012       3.56961932       3.67532614       0.00578012      -0.00155383      -0.00266486
C        5.00419361       5.74930492       3.79522856      -0.00555413      -0.00158481       0.00000412
C        3.73308672       7.86315366       3.89806852      -0.00113976       0.00302641      -0.00260464
C        2.46811946       9.95081799       3.81268944      -0.00347234      -0.00854456      -0.00710357
C        9.85351167       1.41315626       3.78470903      -0.00447784       0.00041391       0.00395825
C        8.62334245       3.55349065       3.80112088       0.00568069      -0.00031827      -0.00363280
C        7.41732328       5.69183791       3.86486967       0.00118886      -0.00563403      -0.00866518
C        6.18927701       7.85173017       3.89466284       0.00105792      -0.00207022      -0.00039571
C        4.93160060       9.97230745       3.83062807       0.00341991       0.00361055       0.00177610
Sc       2.53981185       4.90923117       4.57389671       0.00220302       0.00328616      -0.00550593
