49
Lattice="12.336457 0.0 0.0 -6.168228499999997 10.683685154694365 0.0 0.0 0.0 15.0" Properties=species:S:1:pos:R:3:forces:R:3 energy=-436.6002985838521 free_energy=-436.6002985838521 stress="-0.003743346262367754 -0.000741471940903296 -1.0366047456364078e-05 -0.000741471940903296 -0.0011616056005692126 3.438850505346609e-06 -1.0366047456364078e-05 3.438850505346609e-06 2.4678559764752766e-06" pbc="T T T"
C       -0.01506079      -0.01805897       3.71922335      -0.00053943      -0.01035855       0.00098363
C       -1.25996134       2.11528014       3.90306366       0.00607623       0.00327426       0.00460339
C       -2.50487418       4.26010219       3.76558023       0.00436949       0.00235638      -0.00679994
C       -3.71420840       6.39833902       3.58216234      -0.00224895       0.00165419      -0.00241269
C       -4.94433564       8.53873697       3.54551786      -0.00572701      -0.00210866      -0.00673042
C        2.46132898      -0.01734030       3.68900980      -0.00158112       0.00708768       0.00836822
C        1.22667424       2.02387264       4.14747714       0.01590512       0.00636737      -0.00163787
C       -0.12356196       4.31028510       4.22472667      -0.00754541       0.00964565      -0.01161596
C       -1.27654819       6.41791624       3.79373124       0.00224898      -0.01323690      -0.00168060
C       -2.47979244       8.54099436       3.59172836      -0.01014281      -0.00118094       0.01142887
C        4.92739576      -0.00981704       3.63249089       0.00703447       0.00927356      -0.00577330
C        3.69226869       2.15605419       3.82907582      -0.00394407       0.00013265      -0.00682452
C        1.18496644       6.40751958       4.18280291      -0.00106145      -0.00563208      -0.00485517
C       -0.00835175       8.52255753       3.70849698      -0.00424655       0.00705091       0.00352460
C        7.39564175      -0.02636105       3.62740059       0.00801225       0.00583920      -0.00042682
C        6.15497815       2.12643488       3.60131730      -0.00907452      -0.00655512       0.01103384
C        4.88902265       4.28673953       3.63378682       0.00171716       0.00345949      -0.00071386
O        3.75678356       6.44608182       3.33405936       0.00019976      -0.00260666      -0.00723957
C        2.47410387       8.49582786       3.67105883       0.00377950      -0.00048764      -0.00610527
C        9.85351855      -0.02488436       3.65624998      -0.00786871      -0.00453665       0.00461484
C        8.61973922       2.11765257       3.65692877      -0.00935887      -0.00334168       0.00415854
C        7.37597069       4.25847867       3.56958199       0.00469179       0.00167788       0.00159881
C        6.17166478       6.41029289       3.50242792      -0.00082523       0.00533807      -0.00407266
C        4.93157552       8.53709222       3.52281374       0.00744767      -0.00349594       0.00417459
C       -0.02699824       1.39168651       3.93628855       0.01298881      -0.00410118       0.00878780
C       -1.28578113       3.54490366       3.96861437       0.00585530       0.00762167      -0.01051682
C       -2.49021716       5.68824654       3.70678949      -0.00020996       0.00121307      -0.00305449
C       -3.70828676       7.82554545       3.55769634      -0.01067459      -0.00362671       0.00177076
C       -4.94450853       9.96177595       3.64179324      -0.00205464      -0.00410515       0.00192444
C        2.46619434       1.38808023       3.89095457       0.00323304       0.00575656      -0.00651248
P        1.35314234       3.61718426       4.80247946      -0.00255253      -0.00901728       0.00916457
C       -0.04544782       5.73421459       4.07677928       0.00073741      -0.01125512      -0.00362001
C       -1.25041478       7.82817285       3.67910964      -0.00692799      -0.00711458       0.01671218
C       -2.47466317       9.95953112       3.61623926       0.00300052       0.01019266       0.00351653
C        4.92487128       1.41729854       3.66633232      -0.01333879       0.00584498      -0.00538892
C        3.70344418       3.57087194       3.91600389      -0.00097989      -0.00674047       0.00037590
C        1.22741590       7.76602497       3.85477463      -0.00216125      -0.00600927      -0.01109111
C       -0.00801044       9.94448335       3.63600007       0.01196460       0.01395191       0.00659407
C        7.39211084       1.40165198       3.60913278      -0.00809901      -0.00296441       0.00083909
C        6.15144389       3.55015740       3.56586432       0.00382113      -0.00780537       0.00768704
C        4.96448048       5.71028209       3.52349703       0.00197305       0.00491621      -0.00839516
C        3.71310326       7.84898263       3.54388637       0.00711487      -0.00062485      -0.00127416
C        2.46108685       9.93624679       3.63404351      -0.00127814       0.00193883       0.00917790
C        9.85478911       1.40663519       3.73146628      -0.00662988      -0.00022977      -0.00071969
C        8.61366277       3.54570615       3.65050318       0.00358028      -0.00124869       0.00288387
C        7.39636354       5.68211300       3.54706069      -0.00083445       0.00659474      -0.00432822
C        6.16883619       7.83181059       3.50318082       0.00167138       0.00184187      -0.00499872
C        4.92105107       9.96040935       3.62579600      -0.00816611      -0.00783991       0.00431277
Sc       3.01078709       5.39273730       4.97972089       0.01064856       0.00319377      -0.00144785
