50
Lattice="12.336457 0.0 0.0 -6.168228499999997 10.683685154694365 0.0 0.0 0.0 15.0" Properties=species:S:1:pos:R:3:forces:R:3 energy=-442.90046575583324 free_energy=-442.90046575583324 stress="-0.0028378502336216744 0.0007629538775815781 -1.1513062028932864e-05 0.0007629538775815781 -0.0034470992792646348 8.389657254576973e-06 -1.1513062028932864e-05 8.389657254576973e-06 -1.8939321677688991e-06" pbc="T T T"
C        0.00520211      -0.02020782       3.90053090      -0.00054957       0.00203193      -0.00375135
C       -1.22497368       2.11661766       3.93928274      -0.00221409      -0.00251436       0.00106898
C       -2.45410520       4.25735535       3.97290884       0.00582713       0.00380810      -0.00449245
C       -3.68805521       6.39596213       3.97021956      -0.00669882      -0.00677118       0.00198788
C       -4.93666529       8.52568858       3.88502615      -0.00883243      -0.00043094       0.00586459
C        2.47172458      -0.02599190       3.96053430      -0.00638031       0.00597553      -0.00082668
C        1.24268974       2.10377846       3.92488407       0.00040490       0.00069187       0.00525864
C        0.00405172       4.24576729       3.73781816       0.00127836       0.00949854       0.01034537
C       -1.23824363       6.40871317       3.73648618      -0.00072408      -0.00513845       0.00520618
C       -2.46349114       8.53205966       3.86990783       0.00634688      -0.00721360       0.00692789
C        4.93923011      -0.01584650       3.92081879       0.00135906       0.00135438      -0.00352488
C        3.70757883       2.10785597       3.97025781       0.00588760      -0.00031742      -0.00142049
C        2.48370277       4.23408425       3.82129675      -0.00646749       0.00571856       0.00750953
S        0.87144673       6.39384055       2.04806704      -0.01515557       0.00053620       0.00335708
C       -0.01871934       8.55645859       3.53806772       0.00385063       0.00255288      -0.00208517
C        7.40836600      -0.00909615       3.79780692       0.00395690      -0.00609715       0.00192020
C        6.18249324       2.11370300       4.00663746      -0.00528188       0.00394823      -0.00123775
C        4.95919661       4.24172235       3.84815586       0.00689028      -0.00540523      -0.00767589
S        3.92923517       6.33267101       2.35981368      -0.00746019       0.00312057      -0.01115079
C        2.46433617       8.59354070       3.21320010       0.00457352      -0.00203447      -0.00024156
C        9.87439657      -0.01272933       3.79077851       0.00402364      -0.01374771       0.00005874
C        8.64838845       2.11894471       3.98418551      -0.01041852       0.00369894       0.00110088
C        7.41866569       4.25452164       4.01860945       0.00094009       0.00213722       0.01483450
C        6.19252698       6.39571839       3.79517655       0.00474650       0.00085985      -0.00237910
C        4.95235985       8.53867230       3.60567686       0.00193699       0.00388434      -0.00270555
C        0.00893250       1.40420624       3.92815415       0.00049802      -0.00066170      -0.00329692
C       -1.22806322       3.54093435       3.90924508       0.00647287       0.00399461       0.00436975
C       -2.45379373       5.68391270       3.93715760      -0.00306427      -0.00118531       0.00317852
C       -3.69614048       7.81751697       3.92239860      -0.00390883      -0.00516244       0.00147209
C       -4.93226074       9.95099511       3.91977753      -0.00701459       0.00291770       0.00580083
C        2.47362633       1.39850382       3.96578741       0.00352597       0.00576408       0.00298708
C        1.26001279       3.54661665       3.82964437      -0.00416980       0.00003746      -0.00761433
C       -0.04352850       5.65837163       3.45265906      -0.00167887       0.00864363      -0.00074500
C       -1.23227095       7.82447149       3.69371068       0.00989596      -0.00916362       0.00547963
C       -2.46191741       9.95418133       3.92392188      -0.00290975       0.00153817       0.00052681
C        4.94194010       1.40576791       3.98212404       0.00290395      -0.00008361       0.00022542
C        3.69931503       3.54639626       3.88592009      -0.00438428      -0.00104203      -0.01026106
C        1.17775622       7.94030824       3.02283929      -0.00434036       0.01129697       0.01008407
C        0.00256208       9.96623747       3.77806371       0.00321127       0.00206293      -0.00930249
C        7.41350459       1.40714570       3.95924060      -0.01069770       0.00051768      -0.00594888
C        6.19155531       3.53617105       4.00025609       0.00388161       0.00053296      -0.00548029
C        5.01378036       5.63509730       3.57059768       0.01574466      -0.00140426       0.00643421
C        3.72792360       7.89356722       3.20500810       0.00849671       0.00299518       0.00308216
C        2.46999267       9.98358620       3.62554206       0.00446578      -0.00900044      -0.01201304
C        9.88009278       1.40700858       3.92828963      -0.00767396      -0.00674678      -0.00048669
C        8.65126089       3.54253998       4.02362073       0.00184352       0.00726175       0.00733349
C        7.41767190       5.67993087       3.97265142      -0.00168324      -0.00377252      -0.00558159
C        6.16803998       7.81551979       3.74282690      -0.00322132       0.00115615      -0.00494890
C        4.93985133       9.95595785       3.78286225       0.00625446      -0.00144443      -0.00771903
Sc       2.19709789       6.29595721       4.13221253       0.00571266      -0.00919875      -0.00152464
