49
Lattice="12.336457 0.0 0.0 -6.168228499999997 10.683685154694365 0.0 0.0 0.0 15.0" Properties=species:S:1:pos:R:3:forces:R:3 energy=-432.1640731628743 free_energy=-432.1640731628743 stress="-0.003888224758477977 -0.0005402009264893549 -7.78493249361103e-07 -0.0005402009264893549 -0.001661959271802913 5.8200875205327024e-06 -7.78493249361103e-07 5.8200875205327024e-06 2.3775515635826393e-06" pbc="T T T"
C       -0.01496897      -0.00103907       3.58523030       0.00010605       0.00113267      -0.00133937
C       -1.26778969       2.12410066       3.82502283       0.00314501       0.00272613      -0.00489313
C       -2.51481930       4.27130093       3.73516133       0.00419130      -0.00051343      -0.00022267
C       -3.72000907       6.41501123       3.51704161       0.00412702      -0.00247501       0.00651385
C       -4.94240192       8.55515564       3.43505365       0.00090912       0.00040683      -0.00133846
C        2.46269224       0.01118781       3.55515915      -0.00192965      -0.00240671      -0.00779278
C        1.22280630       2.06107639       4.06589602       0.00095788       0.00186225       0.00438763
C       -0.19824442       4.27293431       4.46061583       0.00000986      -0.00484156       0.00994799
C       -1.31581402       6.42863928       4.00033187       0.00470031      -0.00661790      -0.00298266
C       -2.47866455       8.54915025       3.61291502      -0.00661854       0.00284886      -0.00538505
C        4.92060726      -0.00102301       3.55516635       0.00839680       0.00425701       0.00149936
C        3.70876857       2.11558419       3.63798104      -0.00369358      -0.00697229      -0.00555018
P        1.28675231       6.43256016       5.01632250       0.00423524      -0.00523166       0.00025098
C       -0.02054679       8.55832892       3.86428325      -0.00298256      -0.00246882       0.00111090
C        7.39162630      -0.01076972       3.56183946      -0.00001813       0.00237735      -0.00000882
C        6.16151986       2.13249679       3.46074581      -0.00506484       0.00062302       0.00156536
C        4.96728694       4.27769814       3.55902771       0.00547922       0.00057474       0.00361026
N        3.77248929       6.43776244       3.80276626      -0.00591831      -0.00298919       0.00468202
C        2.47213686       8.53917183       3.78105632       0.00446560       0.00001780      -0.00531915
C        9.85609798      -0.00684432       3.55389275      -0.00421552      -0.00251490       0.00419546
C        8.62089015       2.13207542       3.52963149      -0.00318010       0.00035608       0.00540771
C        7.38740111       4.27930063       3.43776038      -0.00380188       0.00161697       0.00182159
C        6.16211337       6.41983920       3.36822553      -0.00021580       0.00551564       0.00227682
C        4.92670809       8.53957937       3.48935118       0.00287286      -0.00093600      -0.00764991
C       -0.02112874       1.41016632       3.82813887       0.00310795       0.00447990      -0.00652969
C       -1.31972730       3.53922133       3.99683316       0.00291424       0.00089691       0.00743300
C       -2.51470076       5.70167960       3.73378453       0.00687372      -0.00138502       0.00311163
C       -3.71157541       7.84064170       3.50471786      -0.00362193      -0.00284678      -0.00574398
C       -4.94258684       9.98160532       3.51309915      -0.00209614      -0.00245261      -0.00158024
C        2.47143984       1.43995354       3.72017367      -0.00627084      -0.00453923      -0.01044737
P        1.25192992       3.49732454       5.06598844      -0.00984749      -0.00379853      -0.00852292
C       -0.19279512       5.69018573       4.45378504      -0.00700425      -0.00467477       0.00933899
C       -1.26352978       7.84535846       3.84083063      -0.00665205      -0.00491868      -0.01146242
C       -2.47941060       9.97791342       3.55318621       0.00542560       0.00683450       0.00021877
C        4.92069203       1.43323449       3.50952205      -0.00265598       0.00270863       0.00608076
O        3.73372345       3.52442865       3.65607013       0.01136379       0.00076572      -0.00184119
C        1.23333331       7.91054232       4.09621274       0.00349740       0.00596418      -0.00252223
C       -0.01518356       9.97005732       3.63377088       0.00512509      -0.00015712       0.00019933
C        7.38491622       1.41948413       3.48443641      -0.00533076       0.00170013       0.00291264
C        6.15828336       3.55902129       3.44643636      -0.00299525      -0.00212286       0.00278668
C        4.92899252       5.71010230       3.50199464      -0.00298232       0.00200059      -0.00192224
C        3.71729025       7.81094240       3.68423062       0.00255143      -0.00406971      -0.00780628
C        2.46152100       9.95888659       3.59407714      -0.00259331       0.00096865       0.00030717
C        9.85320537       1.41907241       3.61060433      -0.00076661      -0.00112011       0.00668203
C        8.61203870       3.55965940       3.53590430      -0.00275938       0.00295264       0.01067786
C        7.38378159       5.70073357       3.40894986       0.00049963       0.00371755       0.00236151
C        6.15960679       7.83859069       3.40130096       0.00478905       0.00474649       0.00565164
C        4.92207279       9.96720408       3.52734480      -0.00196775      -0.00035255      -0.00335680
Sc       3.29856637       4.93926206       5.24284913       0.00543880       0.00835424      -0.00081439
