49
Lattice="12.336457 0.0 0.0 -6.168228499999997 10.683685154694365 0.0 0.0 0.0 15.0" Properties=species:S:1:pos:R:3:forces:R:3 energy=-439.45164547944415 free_energy=-439.45164547944415 stress="-0.004323308349278846 -0.0020380465133717747 2.651690756361775e-06 -0.0020380465133717747 0.0010586103196493326 -2.153543666264966e-06 2.651690756361775e-06 -2.153543666264966e-06 1.6861635645010287e-06" pbc="T T T"
C       -0.00660078       0.00218889       3.82015896       0.00449498      -0.00349400      -0.00431129
C       -1.25463979       2.12428976       3.86435017      -0.00421360       0.00741357      -0.00828243
C       -2.47320331       4.26478240       3.86786264      -0.01442238      -0.00302879      -0.00185287
C       -3.68667361       6.41358032       3.82638550       0.00948043      -0.00063558       0.00387108
C       -4.92351867       8.56070955       3.81605085       0.00368581       0.00174252      -0.00318116
C        2.46151925       0.01413491       3.78603944      -0.00189080       0.00414939       0.00413370
C        1.19651185       2.16319228       3.83005981       0.00310003      -0.00382917       0.00081193
C       -0.02102347       4.24460315       4.01315418       0.00139770       0.00427551       0.00344941
C       -1.24151634       6.40827353       3.94314773      -0.00244109      -0.00409733      -0.00437244
C       -2.46298682       8.55052385       3.84819570      -0.00533226       0.00187060      -0.00190157
C        4.93006806      -0.00319442       3.69072520      -0.01140966       0.00163580       0.00017636
C        3.66797829       2.08817461       3.36563230       0.00078591       0.00464111       0.00853165
N        1.15842556       6.41130534       4.04441475      -0.00481057       0.00267444      -0.00753272
C       -0.00195000       8.52489812       3.84462026       0.00333850      -0.00248786       0.00119702
C        7.39580774      -0.02465444       3.71565906       0.00255783       0.00998817       0.01098228
C        6.15768062       2.13640826       3.52087958      -0.00041381      -0.00347630      -0.00952477
C        5.02052606       4.34642999       3.28703122       0.00204083      -0.00366416       0.00218841
N        3.79945609       6.42398276       3.60504010      -0.01457417      -0.00686332      -0.00452333
C        2.46366056       8.48532192       3.80024855       0.00947627      -0.00503650       0.00942183
C        9.85418130      -0.02595416       3.78165325      -0.00011878      -0.00110964      -0.00495184
C        8.62134233       2.12389467       3.73927480       0.00484786      -0.00301818       0.00095665
C        7.41516689       4.27537791       3.67106715       0.00517926      -0.00516385      -0.00461943
C        6.21948178       6.44329000       3.65590753      -0.00006236       0.00509059      -0.00370803
C        4.94208831       8.53797978       3.74866738      -0.00317491       0.00301836       0.00431940
C       -0.01683176       1.43138960       3.84504300      -0.00211279      -0.00137147      -0.00398385
C       -1.25037095       3.54220255       3.91927560      -0.00870482       0.01085752      -0.00024526
C       -2.46635594       5.69013822       3.88748058       0.00026750      -0.00690832       0.00002443
C       -3.69232990       7.84040270       3.84063158       0.00182895      -0.00064813      -0.00189140
C       -4.93571902       9.98430110       3.82684963       0.00657752      -0.00188989       0.00289803
C        2.44466373       1.44742711       3.68315551       0.00313000       0.00095665       0.00650193
N        1.15966661       3.53044270       4.01233244       0.00494072      -0.00391056       0.01032406
C       -0.02126788       5.69973670       4.02607456      -0.00076880       0.00439411      -0.00038757
C       -1.23397591       7.82972678       3.88698076      -0.00187934      -0.00274501      -0.00801029
C       -2.47006590       9.97981546       3.77896916      -0.01138304       0.00261797       0.00127731
C        4.92046285       1.42496412       3.51522392      -0.00418856      -0.00005953      -0.00448276
S        3.60970905       3.65003548       2.54732092       0.00642803      -0.00154521       0.00125996
C        1.21578117       7.78269107       3.89468695       0.00766888      -0.00142678       0.00546365
C       -0.00177140       9.95400193       3.74518176      -0.00237796       0.00603447       0.00670469
C        7.38392113       1.41302447       3.65558498       0.00426175       0.00781855       0.00254049
C        6.18450035       3.56678396       3.49059773       0.00521310      -0.00681104      -0.00601165
C        5.00325705       5.75863579       3.49165168      -0.00719661       0.00132238      -0.00488350
C        3.72404928       7.79327130       3.73145992       0.00209839      -0.00582819       0.00327766
C        2.45771495       9.92553517       3.76362547       0.00245041      -0.00244674       0.00872094
C        9.85116862       1.40494645       3.80134429       0.00096069      -0.00011186      -0.00575367
C        8.63306319       3.55136356       3.76457460      -0.00390703      -0.00980292       0.00054614
C        7.42752278       5.70182378       3.72001274       0.00748636       0.00081778       0.00141482
C        6.18737282       7.85253204       3.74879046      -0.00083929       0.00858668      -0.00314902
C        4.92675027       9.96159012       3.79233549      -0.00025270       0.00228970      -0.00016073
Sc       2.60469623       4.97222797       4.49930974       0.00277765      -0.00078556      -0.00327229
