49
Lattice="12.336457 0.0 0.0 -6.168228499999997 10.683685154694365 0.0 0.0 0.0 15.0" Properties=species:S:1:pos:R:3:forces:R:3 energy=-435.20612012164355 free_energy=-435.20612012164355 stress="-0.005144732630087051 -0.0002087449695049228 1.0100074408404365e-05 -0.0002087449695049228 -0.002694384970071564 -1.3512242181661091e-06 1.0100074408404365e-05 -1.3512242181661091e-06 2.6410973854325596e-06" pbc="T T T"
C        0.00252681       0.01904505       3.57104899       0.00982859       0.00473679       0.01353179
C       -1.23969240       2.13648847       3.38605956       0.00168965       0.00605402       0.00295287
C       -2.47816783       4.28798668       3.34102699      -0.00041456      -0.00464356      -0.00336517
C       -3.70282199       6.42947993       3.47139390       0.00527409      -0.00332995       0.00122687
C       -4.93391843       8.56863153       3.64274902      -0.00764428       0.00650242      -0.00658666
C        2.46664432       0.04753965       3.66461674       0.00595309      -0.01074936       0.00118968
C        1.19119163       2.16178045       3.77157962       0.00202373      -0.00435354       0.00266567
C       -0.08417065       4.21452489       3.78509085      -0.00404938       0.00878162      -0.01161037
C       -1.26010614       6.41535222       3.71207467       0.00223864       0.00239476      -0.00357615
C       -2.46750970       8.56836414       3.63606766      -0.00123329       0.00309858      -0.00566282
C        4.93023146       0.02066474       3.58183421      -0.00713950       0.00623252       0.00704496
C        3.73994493       2.16483733       3.78945189      -0.00800469      -0.00616175       0.00302365
P        1.17747717       6.35496091       4.91725461       0.00516400       0.00087518       0.00574218
C       -0.01495352       8.58514362       3.87584984       0.01141577      -0.00615525       0.00818021
C        7.39956206       0.01565561       3.54105604      -0.00440629      -0.00243067       0.00289513
C        6.17049820       2.13984628       3.41235234      -0.00100990       0.00469282       0.00281358
C        5.01624677       4.21989215       3.83229212       0.00284458       0.00427232      -0.00427972
P        3.79278304       6.37871972       5.02108361      -0.01617693       0.00973850       0.00143623
C        2.47018075       8.64022643       4.08442009      -0.00229923      -0.00325129       0.00088787
C        9.87012398       0.01529785       3.53644750       0.00248768      -0.00282202       0.00358922
C        8.63303174       2.14330905       3.29193763       0.00271824       0.00640590       0.00208459
C        7.40734632       4.28907759       3.36098701       0.00210669      -0.00594565      -0.00667146
C        6.19355158       6.41656396       3.74581617       0.00181002      -0.00396290      -0.00529971
C        4.95028472       8.58745947       3.89585341      -0.01200703      -0.00540027       0.00312721
C       -0.00794488       1.44080498       3.52366679       0.00287683       0.00323662       0.00367722
C       -1.25979714       3.54985004       3.41275593      -0.00277218       0.00416243       0.00729705
C       -2.47732339       5.71181460       3.46238874       0.00635283      -0.00459280      -0.00661408
C       -3.70088945       7.85571458       3.57505330      -0.00513975       0.00271302       0.00217841
C       -4.92947006      10.00176484       3.63369240       0.00696476       0.00310389      -0.00500538
C        2.46624871       1.48399424       3.77737294      -0.00232077      -0.01647600       0.00447052
N        1.06179749       3.50701240       4.05460524      -0.00963880       0.00006345      -0.00934401
C       -0.10416828       5.62881853       3.98124289      -0.00457394       0.00657879      -0.00043593
C       -1.24097848       7.85077601       3.75669252       0.00335969       0.00402075       0.00431276
C       -2.47338808      10.00182560       3.63693125       0.00043560      -0.00012420      -0.01142915
C        4.93974519       1.44334193       3.54614360      -0.00561876       0.00666287       0.00468776
N        3.86710572       3.50956957       4.08214630       0.00808343      -0.00657589      -0.00173797
C        1.21429791       7.96783113       4.23797716       0.01328341      -0.00227333       0.00395035
C       -0.00474765       9.99497459       3.63997260      -0.00559041      -0.00356880       0.00388482
C        7.40050295       1.42892995       3.36502691       0.00012773       0.00369723      -0.00128837
C        6.18967590       3.55335542       3.44953583       0.00176627       0.00143005       0.00218124
C        5.04088589       5.63317403       4.04020412       0.00486349       0.00336372       0.00003422
C        3.72507463       7.97213669       4.27111164      -0.00848175       0.00667518      -0.00092531
C        2.46760894      10.00765762       3.68780385      -0.00130203      -0.00877512       0.00220933
C        9.86636701       1.42745946       3.35279179       0.00334741       0.00405045      -0.00017743
C        8.63233075       3.57251970       3.27353352       0.00106638      -0.00040396      -0.00897240
C        7.40747678       5.71272947       3.47952613       0.00519875      -0.00670037      -0.00289228
C        6.17735203       7.85282608       3.77894174      -0.00892272       0.00177170       0.00086149
C        4.93802697       9.99447258       3.63887582       0.00462341      -0.00361364       0.00177505
Sc       2.45131900       4.25434735       5.42838207       0.00084144      -0.00300527      -0.00803755
