49
Lattice="12.336457 0.0 0.0 -6.168228499999997 10.683685154694365 0.0 0.0 0.0 15.0" Properties=species:S:1:pos:R:3:forces:R:3 energy=-435.363242182881 free_energy=-435.363242182881 stress="-0.004251599890006771 0.0031055318596684444 -1.8540782594789207e-06 0.0031055318596684444 -0.004182745255028633 -1.7369896294202692e-06 -1.8540782594789207e-06 -1.7369896294202692e-06 -7.615327426090002e-06" pbc="T T T"
C        0.00083351      -0.00032209       3.76828546       0.00187850      -0.00203745       0.00416165
C       -1.22090273       2.14631396       3.73398740       0.00835040       0.00944819      -0.01444840
C       -2.45850491       4.27825748       3.88856770      -0.00130118      -0.00401758       0.00919714
C       -3.71593326       6.40963750       3.93373123      -0.00143093      -0.00098501       0.00285223
C       -4.95041812       8.54179602       3.84938683      -0.00595116      -0.00649232      -0.00825213
C        2.46706289       0.00325835       3.81991249       0.00985232       0.01111723       0.00490868
C        1.25288511       2.10235551       3.44877901      -0.00115600      -0.00133389      -0.00396934
C       -0.01555879       4.33572534       3.55360066      -0.01384398      -0.00232380       0.00859214
C       -1.26220817       6.44211234       3.86630620      -0.00115988      -0.00085084      -0.00298796
C       -2.48512712       8.55597764       3.93270847      -0.00202057      -0.00426869      -0.01100666
C        4.93545751      -0.00218161       3.89775973       0.00087746      -0.01139855       0.00128621
C        3.74092249       2.12989595       3.74230958       0.00529741      -0.00144832      -0.00361776
N        1.15009362       6.46411638       3.71551695       0.00136738      -0.00370274       0.00202003
C       -0.01807077       8.55068897       3.84808499      -0.00221704       0.00793915       0.00261397
C        7.40984885      -0.00891376       3.89770361      -0.00177810       0.00386212      -0.00002966
C        6.18936632       2.11597216       3.91884405      -0.00382083      -0.00140907       0.00480112
C        4.97547882       4.19569463       3.74277880       0.00440752       0.00038185      -0.00206209
P        3.73075637       6.35652542       2.53433121      -0.00613740       0.00383693      -0.00156772
C        2.44744800       8.54556531       3.66066118      -0.00628220      -0.01566538       0.00996829
C        9.87344363      -0.00171323       3.81649765      -0.00802561       0.00302184      -0.01487871
C        8.65323022       2.13255120       3.92188072       0.00671988      -0.00079219      -0.00269930
C        7.41608437       4.26276473       3.92715430       0.00826716       0.00831705       0.00992858
C        6.16431994       6.39405660       3.75624991      -0.00171373       0.00050378       0.00542302
C        4.92825839       8.54336993       3.66138303      -0.00049118      -0.00479117      -0.00693489
C        0.00699918       1.42424709       3.65785468       0.00298540       0.00207590      -0.00680041
C       -1.22913546       3.57337151       3.74044078      -0.00267145       0.00283199       0.00755723
C       -2.48058708       5.70502724       3.91482677      -0.00186327      -0.00375620       0.00667611
C       -3.71777925       7.83565634       3.92011447      -0.00391506      -0.00523749      -0.00088791
C       -4.93808570       9.96992366       3.81947681       0.00946395      -0.00282103      -0.01684236
C        2.48847917       1.42293379       3.66589027       0.00522698       0.01253329       0.00916734
P        1.19228188       3.59424731       2.49849999       0.00552389      -0.00143418      -0.00499690
C       -0.04114488       5.77393619       3.71463986      -0.00651122      -0.00453657      -0.00350405
C       -1.25396041       7.85234506       3.90328997       0.00218970       0.00237070       0.00628508
C       -2.47446208       9.97728651       3.89842683       0.00148272      -0.00352856       0.00570205
C        4.95375542       1.41768616       3.86110064      -0.00071451      -0.01040890       0.00163661
N        3.78495219       3.50405401       3.73004433      -0.01279474       0.00573315       0.00276037
C        1.19491109       7.83850810       3.72920148      -0.00953991      -0.00018072      -0.00278762
C       -0.00003698       9.97060138       3.89372379       0.00097289       0.00495823       0.00925344
C        7.42065913       1.41224225       3.93851253      -0.00002538       0.00298961      -0.00810180
C        6.19682485       3.52626406       3.88986754       0.00758832       0.00219951      -0.00818495
C        4.95209434       5.63153588       3.57988555       0.01554770      -0.00361871       0.00477717
C        3.68315879       7.86640015       3.45188758       0.00428874       0.00109818      -0.00528534
C        2.46812145       9.96509348       3.81548347      -0.00804510      -0.01070726       0.01161224
C        9.88539434       1.42620147       3.84595597       0.01111800       0.01037063      -0.00802410
C        8.65172184       3.55832688       3.93545444       0.00439531      -0.00203861       0.00274637
C        7.39471376       5.68924808       3.89843467      -0.00210785       0.00813585       0.00732211
C        6.15606197       7.82143443       3.74164329      -0.00749078      -0.00449172      -0.01425459
C        4.93476171       9.96864691       3.76780380      -0.00662704       0.00085977       0.00376246
Sc       2.43892786       4.95982646       4.30583893       0.00183444       0.00969199       0.00711304
