49
Lattice="12.336457 0.0 0.0 -6.168228499999997 10.683685154694365 0.0 0.0 0.0 15.0" Properties=species:S:1:pos:R:3:forces:R:3 energy=-429.78830419519267 free_energy=-429.78830419519267 stress="-0.004280108517469148 -0.00033569189695799675 -1.1607172897399281e-05 -0.00033569189695799675 -0.0033836381619373546 -1.0364555153944861e-05 -1.1607172897399281e-05 -1.0364555153944861e-05 -1.152992181399067e-06" pbc="T T T"
C        0.00278049       0.01171546       3.62150790      -0.00613399       0.00213640      -0.00877563
C       -1.24433635       2.13698957       3.36314018      -0.00469397       0.00003026       0.01125811
C       -2.47426655       4.29504648       3.32796011       0.00033629       0.00060369      -0.00095558
C       -3.70248567       6.42845958       3.51578268       0.00095096       0.00304574       0.00438452
C       -4.93632192       8.56165653       3.69995009       0.00486315       0.00343566      -0.00193395
C        2.46691969       0.03423779       3.68135822      -0.00354029      -0.00264766      -0.00512676
C        1.18334359       2.11715540       3.71529798       0.00301865       0.00204155      -0.00683797
C       -0.08196865       4.24763161       3.60127393      -0.00445721      -0.01004452       0.01225288
C       -1.24964519       6.41871419       3.67308218      -0.00031930       0.00181749      -0.00045932
C       -2.46633577       8.56144447       3.67026747       0.00032354       0.00858301       0.00158229
C        4.93016183       0.01336850       3.61230331       0.00432311       0.00377373      -0.00983957
C        3.74708306       2.11959188       3.73925903      -0.00204097       0.00242779       0.00105738
P        1.22994799       6.31602166       4.80455241      -0.00223934       0.00610194      -0.01074724
C       -0.01143979       8.58530388       3.90776322      -0.00114124      -0.00274152       0.00420073
C        7.39929689       0.02766832       3.61149364       0.00426619      -0.00765255       0.00064550
C        6.17619530       2.14203194       3.40780419       0.00227833      -0.00085074       0.00403884
C        5.02114295       4.25073171       3.73138548       0.00514757      -0.01283503       0.00815798
P        3.73048433       6.34367703       4.97703182       0.01471173       0.00559547       0.00386100
C        2.46952646       8.65800757       4.15492271       0.00284492      -0.00117683      -0.00605505
C        9.87196905       0.02822450       3.62050723      -0.00536116      -0.01009694      -0.00619870
C        8.63405128       2.15227442       3.33715918      -0.00066941       0.00049244      -0.00166243
C        7.40634121       4.29642614       3.37803159      -0.00604005       0.00320762      -0.00393032
C        6.18603921       6.41786697       3.76405231      -0.00362827       0.00138670      -0.00229003
C        4.94690951       8.58911987       3.96925380       0.00431335      -0.00164299      -0.00205027
C       -0.00808192       1.43465122       3.51389270       0.00003438       0.00417295       0.00335675
C       -1.25374808       3.55400660       3.31663740       0.00086197      -0.00134242       0.00498318
C       -2.46912108       5.71419421       3.46589962      -0.00014661       0.00034124       0.00269810
C       -3.70181815       7.85130041       3.62376849       0.00477844       0.00451809      -0.00035150
C       -4.92754864       9.99786982       3.68039718      -0.00463812       0.00073992      -0.00259872
C        2.46583112       1.49332108       3.75012062      -0.00026549      -0.00726354      -0.00334171
O        1.07488166       3.51168652       3.91108880       0.00053961       0.00361275      -0.00732954
C       -0.05823732       5.62361351       3.83745214       0.00425839      -0.00175064      -0.01192063
C       -1.23449225       7.84512805       3.76628299      -0.00454765       0.00405715       0.00655252
C       -2.47503183       9.99781778       3.66626126       0.00155753       0.00636013       0.00105618
C        4.93967700       1.43846960       3.53863419      -0.00044975       0.00448423      -0.00235268
O        3.85832744       3.50639951       3.98961708       0.00307332       0.00293923      -0.00232083
C        1.21978155       7.97587337       4.26024657      -0.00041321      -0.00143521       0.01905890
C       -0.00432479       9.99915890       3.69331521       0.00261286      -0.00299242       0.00356186
C        7.39751925       1.43974778       3.41059929       0.00269912      -0.00173116       0.00924630
C        6.18612630       3.55923104       3.40467163      -0.00270933      -0.00289019      -0.00068156
C        5.00102239       5.62454536       3.98085317      -0.00871174      -0.00271850      -0.01399982
C        3.71735826       7.98443155       4.33085911       0.00359038      -0.00588779       0.01548001
C        2.46793659      10.03066602       3.77658332       0.00063916      -0.00908321      -0.00756940
C        9.87106327       1.43751612       3.39849739      -0.00425595      -0.00309180       0.00383949
C        8.63352775       3.57970629       3.30253981      -0.00345897       0.00270818      -0.00398235
C        7.40089567       5.71459146       3.51656246      -0.00370577       0.00323950      -0.00011999
C        6.17136046       7.84691596       3.83199358       0.00788598       0.00337631       0.00191472
C        4.93835700       9.99941051       3.71999714      -0.00420814      -0.00349893      -0.00367826
Sc       2.43073870       4.26493102       5.38280773      -0.00213301       0.00814543       0.00392258
