49
Lattice="12.336457 0.0 0.0 -6.168228499999997 10.683685154694365 0.0 0.0 0.0 15.0" Properties=species:S:1:pos:R:3:forces:R:3 energy=-428.343243679608 free_energy=-428.343243679608 stress="-0.001598568073585795 -2.794905613492375e-05 4.824574680625202e-07 -2.794905613492375e-05 0.0007648747969474111 3.0399774441465113e-06 4.824574680625202e-07 3.0399774441465113e-06 -4.253940504097359e-06" pbc="T T T"
C        0.00247075       0.00119724       3.79757347       0.00613049      -0.00277238      -0.00143533
C       -1.24726064       2.12204808       3.96890110      -0.00328068      -0.00130046      -0.00194311
C       -2.47422193       4.27563292       4.07150156      -0.00170408      -0.00047606       0.00031434
C       -3.70098415       6.41419832       3.97969867      -0.00019982       0.00941370       0.00402987
C       -4.93948976       8.54586043       3.80785170      -0.00167687       0.00300775      -0.00736455
C        2.46708735       0.02971286       3.80598532       0.00049025      -0.00716815       0.00319846
C        1.20091059       2.12571100       3.81562581       0.00272898      -0.00119238      -0.00214079
C       -0.06358732       4.23958784       3.89746909       0.00100067       0.00282631      -0.00460810
C       -1.23473463       6.41134089       3.83480146      -0.00159914      -0.00041638       0.00092900
C       -2.46254235       8.54596005       3.80495040      -0.00149963       0.00352296      -0.00644487
C        4.93158266       0.00163417       3.79929539      -0.00276849      -0.00122948      -0.00077757
C        3.73280433       2.12631178       3.83047200      -0.00285319      -0.00247982      -0.00822517
S        1.04514657       6.31748407       2.39573003       0.00061187       0.00149414      -0.00297007
C       -0.00609842       8.54591284       3.54186988       0.00271663      -0.00287580      -0.00453018
C        7.40448400      -0.00454951       3.75349544       0.00247762      -0.00104640      -0.00255943
C        6.18143853       2.12195852       3.97858197       0.00424258       0.00219849      -0.00078274
C        4.99695655       4.24010382       3.92429458      -0.00186271       0.00636464      -0.00981288
S        3.89046674       6.31021176       2.41377573      -0.00047323       0.00385214      -0.00186555
C        2.46763143       8.56883526       3.28979311      -0.00604449      -0.00333151       0.00518984
C        9.86616480      -0.00479336       3.75320059      -0.00321867       0.00043481      -0.00197867
C        8.63543055       2.13070029       4.00199974      -0.00175682       0.00662453      -0.00896858
C        7.40876717       4.27574394       4.07944332       0.00085349      -0.00262663       0.00174657
C        6.16835741       6.41162974       3.84837803       0.00593319      -0.00412716       0.00224200
C        4.94040326       8.54524950       3.54674497      -0.00311131      -0.00397086      -0.00311937
C       -0.00389122       1.43065600       3.86366566       0.00145861      -0.00211509      -0.00082815
C       -1.26136388       3.53649442       4.04859640       0.00088702      -0.00083503       0.00337386
C       -2.46058718       5.69989634       4.00350014      -0.00322950       0.00362189       0.00910000
C       -3.70088317       7.83513907       3.87564199      -0.00212522       0.00848140      -0.00447231
C       -4.92894067       9.98636026       3.79436237       0.00344182      -0.00332893      -0.00290555
C        2.46709403       1.48902979       3.80626494      -0.00115618      -0.00769229       0.00470713
O        1.13152745       3.52443223       3.75036802      -0.00206806      -0.00137567       0.00854639
C       -0.01404657       5.63518929       3.69440042      -0.00043615      -0.00389671       0.00429668
C       -1.23123533       7.82468422       3.70436735       0.00341329      -0.00069265       0.00721947
C       -2.47328768       9.98648112       3.79454221      -0.00173856      -0.00087145      -0.00462605
C        4.93781674       1.43096746       3.87269494       0.00036409       0.00259283       0.00183127
O        3.80076680       3.52575696       3.78731674       0.00218657      -0.00140548      -0.00058464
C        1.21054954       7.89313771       3.20138111       0.01402349       0.00840477       0.00105905
C       -0.00063114       9.97218697       3.70629177       0.00096083      -0.00186413      -0.00121487
C        7.40222683       1.41604732       3.93293521       0.00374332       0.00168127      -0.00288199
C        6.19578681       3.53629615       4.06439028      -0.00177858       0.00024237       0.00175894
C        4.94696064       5.63529433       3.71737547       0.00024633      -0.00476439       0.00071580
C        3.72408490       7.89241471       3.20618765      -0.00830654       0.00351348       0.00191096
C        2.46711586       9.98261165       3.61623593       0.00008790      -0.00185388       0.00091638
C        9.86845326       1.41597185       3.93009759      -0.00570651       0.00329851      -0.00592000
C        8.63551079       3.55734736       4.07939631      -0.00025746       0.00084323       0.01403505
C        7.39500466       5.70016282       4.01157147       0.00564007      -0.00091206       0.00652180
C        6.16537893       7.82445422       3.71175192      -0.00404921      -0.00158611       0.00729525
C        4.93473154       9.97172168       3.70737225      -0.00047865       0.00048289      -0.00303034
Sc       2.45806789       5.17813273       4.13257802      -0.00025937      -0.00469479       0.00505277
