49
Lattice="12.336457 0.0 0.0 -6.168228499999997 10.683685154694365 0.0 0.0 0.0 15.0" Properties=species:S:1:pos:R:3:forces:R:3 energy=-434.07571926781566 free_energy=-434.07571926781566 stress="-0.0019428157283072269 2.412368850438346e-05 -2.9851799624612067e-06 2.412368850438346e-05 0.004059306054462063 -5.396347082202668e-07 -2.9851799624612067e-06 -5.396347082202668e-07 1.2664724157741998e-06" pbc="T T T"
C        0.00060972       0.00333026       3.64572071       0.00036674      -0.00216389       0.00423459
C       -1.24526671       2.13480170       3.73193971       0.00155503       0.00309166       0.00788711
C       -2.46900976       4.27374992       3.85069702      -0.01245846      -0.00351631      -0.00227949
C       -3.70142205       6.41213204       3.82224537       0.00644077      -0.00112762      -0.00539662
C       -4.93644749       8.55145482       3.71929699       0.00092262      -0.00937650      -0.01073141
C        2.46757854       0.03267512       3.64435478      -0.00513226       0.00042020      -0.00057084
C        1.20487569       2.13403044       3.63228974       0.00483443       0.01184230      -0.01519639
C       -0.03959471       4.28168675       3.90490032      -0.00711175       0.00169469       0.01056338
C       -1.24795459       6.41218974       3.84145990      -0.00549347      -0.00008380       0.00556106
C       -2.46542079       8.55136635       3.71608624      -0.00585358      -0.00594188      -0.00797430
C        4.93379411       0.00420549       3.64990466      -0.00401100      -0.00372097      -0.00920517
C        3.72914949       2.13506552       3.64548882      -0.00287393       0.00623576      -0.00034302
O        1.16607325       6.42517675       3.72147552      -0.00344589       0.00050958      -0.01414015
C       -0.00209548       8.52872323       3.65059202       0.00130736      -0.00494015       0.00114960
C        7.40876770      -0.02506923       3.66218427       0.00219050       0.00790088      -0.00257580
C        6.17928985       2.13489199       3.74197824       0.00083087       0.00456524       0.00297222
C        4.97511633       4.28155727       3.93034502       0.00884518      -0.00035789       0.00776614
O        3.76776076       6.42402250       3.75408557      -0.00144441       0.00489718       0.00264436
C        2.46752118       8.46968365       3.61939628      -0.00115705       0.00454132      -0.00717147
C        9.86190239      -0.02518159       3.66260976       0.00268485       0.00376782      -0.00109266
C        8.63531931       2.12826457       3.75913606       0.00143271      -0.00341744      -0.00599233
C        7.40365183       4.27315350       3.85784084       0.00908330       0.00576582      -0.00960681
C        6.18211012       6.41187949       3.85112076       0.00570479      -0.00078289       0.01011024
C        4.93617464       8.52780061       3.66210947      -0.00361656      -0.00747641       0.00601134
C       -0.00256705       1.43782148       3.65080576       0.00596650       0.00491663       0.00778625
C       -1.24771854       3.55460001       3.83899107      -0.01134835       0.00302511       0.00559838
C       -2.46952051       5.69374449       3.85051351      -0.00144062      -0.00425330      -0.00004300
C       -3.70101551       7.83910779       3.75877748       0.00004882      -0.00660933      -0.00303472
C       -4.92772593       9.99163954       3.66078470      -0.00085736      -0.00752888       0.00999765
C        2.46733574       1.49600383       3.61983071      -0.00067908       0.00345535      -0.00566167
O        1.16622673       3.54186363       3.71708192       0.00368321       0.00184637      -0.00005498
C       -0.03982843       5.68476793       3.90983235      -0.00487647       0.00132361      -0.00240249
C       -1.24467900       7.83174218       3.73258458      -0.00329081      -0.00096334       0.01111502
C       -2.47373350       9.99171302       3.66121657      -0.00767559      -0.00479662       0.01163608
C        4.93641990       1.43877428       3.66072976      -0.00329392       0.00209130       0.00816604
O        3.76773071       3.54059607       3.75988305       0.00244209      -0.00175866      -0.01474562
C        1.20494443       7.83191899       3.62803716       0.00235455      -0.00431478       0.00427045
C        0.00083900       9.96332720       3.64717205       0.00302462      -0.00123387       0.00165310
C        7.40014754       1.41550741       3.71776440       0.00030514       0.00495057       0.01007061
C        6.18206349       3.55436302       3.85310324       0.01312048       0.00426679       0.00467068
C        4.97513387       5.68450123       3.93079258       0.00357960      -0.00105558      -0.00419206
C        3.72917601       7.83069255       3.64836188      -0.00490861      -0.00537250      -0.01480713
C        2.46717439       9.93323148       3.64460912       0.00194523       0.00619606       0.00727198
C        9.87029149       1.41543243       3.71595566       0.00308204       0.00264329      -0.00332191
C        8.63565157       3.55518675       3.82419874      -0.00414128      -0.00731824      -0.00922622
C        7.40351797       5.69308373       3.85523452       0.00804914       0.00487299       0.00497727
C        6.17921987       7.83157460       3.74121718      -0.00060769      -0.00357297       0.01016425
C        4.93330424       9.96263960       3.64920188      -0.00212398      -0.00480549       0.00001679
Sc       2.45252152       4.98312501       4.60078162       0.00404155       0.00166880      -0.00652828
