49
Lattice="12.336457 0.0 0.0 -6.168228499999997 10.683685154694365 0.0 0.0 0.0 15.0" Properties=species:S:1:pos:R:3:forces:R:3 energy=-428.43437294168245 free_energy=-428.43437294168245 stress="0.0006742336639686695 6.4778414010028805e-06 -1.581142135798281e-05 6.4778414010028805e-06 -0.00038034359941150416 1.1303594470414832e-06 -1.581142135798281e-05 1.1303594470414832e-06 7.093410819993816e-06" pbc="T T T"
C       -0.00850843       0.00249139       3.87234164       0.00029552      -0.00264294       0.00980767
C       -1.24687030       2.14044569       3.99394261       0.00521490       0.01646114      -0.00373774
C       -2.46692183       4.27497888       4.00655206      -0.00357221      -0.00141152      -0.00479750
C       -3.70484643       6.40659807       3.90314345       0.00572191      -0.00366761       0.00128410
C       -4.95019008       8.54243434       3.81255511      -0.00442113      -0.00615238      -0.00454296
C        2.45228562      -0.00087662       3.84805137       0.00271466      -0.00048684       0.01224673
C        1.21021378       2.11425273       3.88036588      -0.00645975      -0.00639843      -0.00272355
C       -0.02151266       4.28194255       4.10244556      -0.00270790      -0.00510416      -0.01438395
C       -1.23815377       6.40542452       4.05504059       0.00537580      -0.01210014      -0.00321299
C       -2.47331487       8.53626461       3.94372034       0.00129050       0.00307148      -0.01190686
C        4.92178831      -0.00787973       3.81548756       0.00786630       0.00687131      -0.00040701
C        3.68483276       2.08133959       3.40634882       0.00169710       0.00549857       0.00703476
O        1.19531439       6.45873374       4.04130234      -0.01311624      -0.00414939       0.00539883
C       -0.00987055       8.53243626       3.93667189      -0.00569174       0.00646307       0.00156056
C        7.38985817      -0.00905357       3.85937385      -0.00626582       0.00874797      -0.00004035
C        6.16140806       2.12816490       3.63111269       0.00087929      -0.00329150      -0.00291963
C        5.03219933       4.27432028       3.13052911      -0.00666123      -0.00104774      -0.00707636
S        3.69067247       6.50108232       2.28669773      -0.00981980       0.00171333       0.00263763
C        2.44347076       8.52236991       3.73587584       0.00566553       0.00536093       0.00759257
C        9.85420376      -0.00256078       3.87299988       0.00623322      -0.00309135       0.00912540
C        8.62350444       2.13764385       3.89846953      -0.00026452       0.00036089      -0.01080286
C        7.40473022       4.26976779       3.75008417       0.00417695       0.00297807      -0.00255007
C        6.19459263       6.42523134       3.52970483      -0.00176712       0.00012920       0.00675877
C        4.92178032       8.55114288       3.61811183       0.00855631      -0.01121166      -0.00002761
C       -0.00993956       1.43388159       3.93568134      -0.00367985       0.00172078       0.00605967
C       -1.23783568       3.56099806       4.05682270       0.00128945       0.01328414      -0.00626816
C       -2.46734710       5.69194836       4.00560676       0.00293034      -0.00961996      -0.00156170
C       -3.71309886       7.82886215       3.89834445      -0.00177023      -0.00117658      -0.01192726
C       -4.94690589       9.97529922       3.85905719      -0.00051046      -0.00465342       0.00283015
C        2.44355778       1.44374835       3.73670778       0.00341218      -0.00217774       0.00602326
O        1.19566456       3.50821949       4.03983162      -0.01515474      -0.00265078       0.00941475
C       -0.02179031       5.68489147       4.10068903      -0.00045726      -0.00381530      -0.00873101
C       -1.24665971       7.82570483       3.99387956      -0.00069891      -0.00670898      -0.00727914
C       -2.48218755       9.96859419       3.87150128       0.00850236       0.00937194       0.01483668
C        4.92221259       1.41571072       3.61807379       0.00337197      -0.00086481       0.00023805
S        3.68998332       3.46517280       2.28825276      -0.00586493      -0.00024396      -0.00168522
C        1.21012291       7.85217660       3.88060789      -0.00568971       0.00894279      -0.00234597
C       -0.00837505       9.96384039       3.87255780      -0.00121316       0.00676063       0.00790671
C        7.38654000       1.42404279       3.81206499      -0.00364427       0.00337794      -0.00249398
C        6.19457658       3.54133406       3.52999053       0.00219507      -0.00138762       0.00711991
C        5.03317126       5.69200376       3.12857557      -0.01715040       0.00656461      -0.00219526
C        3.68465647       7.88531523       3.40473135       0.00605894      -0.00952925       0.00921959
C        2.45245580       9.96687433       3.84825446      -0.00377799       0.00601043       0.01518168
C        9.86290919       1.42975596       3.94424879       0.00819013       0.00602958      -0.01021860
C        8.63217347       3.56004556       3.90368662      -0.00228401       0.00011699      -0.00164641
C        7.40451650       5.69643094       3.75020414       0.00481245       0.00456547      -0.00433668
C        6.16095860       7.83862678       3.63182927       0.00492146      -0.00757834      -0.00765468
C        4.92166466       9.97438647       3.81666758       0.00681159      -0.01107612      -0.00465086
Sc       2.75570321       4.98399014       4.09592367       0.01445948      -0.00216270      -0.00015307
