49
Lattice="12.336457 0.0 0.0 -6.168228499999997 10.683685154694365 0.0 0.0 0.0 15.0" Properties=species:S:1:pos:R:3:forces:R:3 energy=-425.9764257006319 free_energy=-425.9764257006319 stress="-0.006597334205421539 -9.547697628073679e-06 -2.9020921176564326e-06 -9.547697628073679e-06 -0.010639791732558263 -2.7800106167087112e-06 -2.9020921176564326e-06 -2.7800106167087112e-06 -2.216178401504472e-06" pbc="T T T"
C       -0.00125703      -0.01107456       3.41773142      -0.00144924      -0.00502181      -0.00015430
C       -1.24172144       2.12424797       3.52108151      -0.00139660       0.00969117      -0.00476510
C       -2.47695333       4.26937964       3.34275718      -0.00146537       0.00693229       0.00336365
C       -3.70197202       6.40650126       3.25485841      -0.00097953      -0.00111233       0.00746849
C       -4.93911955       8.53824859       3.32638224       0.00020592      -0.00539269       0.00466623
C        2.46701640      -0.03039235       3.48173173      -0.00437373      -0.00069919      -0.00086954
C        1.20716810       1.98544083       4.06843148      -0.00725445      -0.01110776      -0.00693201
C       -0.16465624       4.27627330       4.08063640       0.00406962       0.00092711       0.00667750
C       -1.27475588       6.42021608       3.58678582      -0.00543034       0.00342243       0.00334684
C       -2.46423824       8.53941216       3.31735254       0.00217763      -0.00544389       0.00211198
C        4.93421695      -0.00846822       3.42753224       0.00192638      -0.00349354       0.00092228
C        3.72466038       1.98399475       4.09245685       0.00611016      -0.00171174      -0.01133761
P        1.09656128       6.51544500       4.98060118      -0.00397196       0.00030857       0.01688180
C       -0.01259632       8.57065875       3.62360149       0.00134760      -0.00131027       0.00544035
C        7.39878387       0.00929871       3.37528530       0.00263972       0.00275415      -0.00952579
C        6.17580598       2.12588415       3.55325603       0.00137332       0.00979739      -0.00450697
C        5.11013071       4.27828950       4.14950266      -0.00446851      -0.00817718      -0.00237519
P        3.83854182       6.53036267       5.02847367       0.00108365      -0.00936895       0.00527867
C        2.46735735       8.62914529       3.85066184      -0.00175740       0.00427039      -0.00265625
C        9.87045488       0.00781089       3.36904457       0.00392114      -0.00199221      -0.00008961
C        8.63423279       2.13607701       3.27949685      -0.00322528      -0.00313821      -0.00452871
C        7.41087033       4.26972149       3.37249446      -0.00176146       0.00607050       0.00722078
C        6.21344260       6.42100127       3.63542197       0.00559415       0.00322573      -0.00327270
C        4.94628323       8.57003046       3.64153573       0.00312892       0.00228671       0.00276178
C       -0.01166535       1.39511434       3.64295048      -0.00710755      -0.00560029      -0.00051666
C       -1.27723011       3.54328677       3.60285000      -0.00478726       0.00876508      -0.00080380
C       -2.47652099       5.69451891       3.33587222      -0.00043946       0.00618942       0.00765453
C       -3.70179042       7.82996853       3.26433000       0.00139139      -0.00511248       0.00184116
C       -4.93627622       9.95842009       3.37264929       0.00002545      -0.00415434       0.00311234
C        2.46663548       1.33516150       3.88069635       0.00093678      -0.00093893       0.00107739
P        1.08354286       3.44973625       5.01314389       0.00496494       0.00135643      -0.00670645
C       -0.16086722       5.68788762       4.06537276      -0.00801530      -0.00106372       0.01153380
C       -1.24145292       7.84008936       3.50332174       0.00404342      -0.00179233       0.00037634
C       -2.46628882       9.95945628       3.37481856      -0.00578307      -0.00218601      -0.00281030
C        4.94523024       1.39591526       3.66856799       0.00949674      -0.00130653      -0.00300279
P        3.84213215       3.44356346       5.04980237      -0.00106123      -0.00345435      -0.00871480
C        1.20900664       7.97832864       4.03679809      -0.00346801      -0.00827098      -0.00283342
C       -0.00309367       9.97938821       3.41640412       0.00537356      -0.00185277      -0.00547992
C        7.39649376       1.42872535       3.34261344      -0.00664837       0.00505055       0.00130154
C        6.21496760       3.54446421       3.65258583       0.00122924       0.00654691      -0.00673754
C        5.10750467       5.69072347       4.13634235       0.01346316      -0.00603334       0.00199881
C        3.72470086       7.97912991       4.05743876      -0.00037149       0.00773286      -0.00184063
C        2.46667647       9.99766450       3.46808906       0.00127215       0.00291081      -0.00383263
C        9.87220225       1.42715316       3.32775339       0.00347703       0.00076979      -0.00041786
C        8.63414135       3.55836065       3.26646346      -0.00360628       0.00035392       0.00201369
C        7.41100255       5.69485880       3.36569186      -0.00282457       0.00494188       0.00264178
C        6.17632224       7.83966744       3.52980470       0.00025604      -0.00073818      -0.00010153
C        4.93562307       9.97676294       3.41561041       0.00195805      -0.00568431      -0.00612774
Sc       2.44814023       4.99269884       6.38763488       0.00018033       0.01185426       0.00124812
