49
Lattice="12.336457 0.0 0.0 -6.168228499999997 10.683685154694365 0.0 0.0 0.0 15.0" Properties=species:S:1:pos:R:3:forces:R:3 energy=-440.00345771317666 free_energy=-440.00345771317666 stress="0.0037173960186694176 0.0010318815928414707 4.563703140820052e-06 0.0010318815928414707 -0.007607002507386933 4.5471085226337875e-07 4.563703140820052e-06 4.5471085226337875e-07 5.598226545757174e-07" pbc="T T T"
C       -0.01323038      -0.00450273       3.64209477      -0.00125286       0.00338894      -0.00375287
C       -1.23140736       2.15564894       3.77806233      -0.00138468       0.00543104       0.00538265
C       -2.47111236       4.28511095       3.86373245      -0.00365034      -0.00741017      -0.00565840
C       -3.72563530       6.40064771       3.84306038       0.00121940      -0.00149426       0.00486739
C       -4.96483736       8.51579567       3.69595901      -0.00995962       0.00134698      -0.00139164
C        2.45160952      -0.05742277       3.62005238       0.00146225      -0.00826881       0.00564814
C        1.24544503       2.07920927       3.85834064      -0.00523294      -0.00431451       0.00034906
C        0.00359666       4.29913203       4.00324121       0.00525654      -0.00159333      -0.00715646
C       -1.20728115       6.41143344       3.85635761       0.00734333      -0.00002508      -0.00224726
C       -2.47436147       8.51865242       3.69374996      -0.00876222       0.00245205       0.00467707
C        4.92677730      -0.02232583       3.56810550       0.01005521       0.00930459       0.00187279
C        3.67820045       2.06676621       3.61037996      -0.00328451       0.00487587       0.00773034
B        1.49381591       6.39117066       3.94609771      -0.01361504      -0.01155558       0.00022186
C        0.00242383       8.54726072       3.65813500       0.00265928      -0.00674899      -0.00732932
C        7.38272282       0.03917164       3.53421194      -0.00424206       0.00567492       0.00531177
C        6.14729294       2.14283080       3.65731258       0.00525594       0.00602975      -0.00133148
C        4.87726156       4.22775804       3.94274954       0.00133658       0.00457493      -0.00622276
B        3.43210234       6.46386632       3.66699847      -0.00754646      -0.00496769      -0.00282628
C        2.44608096       8.63802129       3.48996834       0.00812164       0.00806987       0.00828097
C        9.86507506       0.04811070       3.53127909       0.00781472      -0.00017110       0.00002551
C        8.62579008       2.16547494       3.68663603       0.00117298      -0.00853487       0.00173344
C        7.37448401       4.27796433       3.85363733      -0.00939443      -0.00199209       0.00461493
C        6.09616126       6.40898889       3.88674281       0.00018361       0.00132622       0.01852398
C        4.91176317       8.56782855       3.53635430       0.00733369      -0.00634169      -0.00094722
C       -0.00656135       1.41930788       3.75948712      -0.00693065       0.00337698      -0.00415996
C       -1.22948843       3.57308838       3.88765431       0.00377464       0.00369752      -0.00282004
C       -2.46578012       5.70569543       3.86875314       0.00667025      -0.00440080      -0.00049770
C       -3.72079574       7.81444209       3.75139635      -0.01147626       0.00087971       0.00764400
C       -4.95810713       9.93569003       3.64511705      -0.00427376      -0.00098216      -0.01197680
C        2.45104979       1.35787560       3.67193983      -0.00281957      -0.00750939       0.01387441
B        1.32018961       3.54816283       4.16469682      -0.00335541      -0.00422592      -0.00934768
C        0.05719381       5.69782207       3.94529334       0.00324898      -0.00264769      -0.00179533
C       -1.23115294       7.82329929       3.74316057      -0.00453266       0.00116355      -0.00474592
C       -2.47620609       9.93324073       3.60910643       0.00814757       0.00295170      -0.00607630
C        4.92697960       1.39575477       3.57256766       0.00614531       0.01247958      -0.00891428
C        3.71192809       3.45387557       3.75311352      -0.00023732       0.00744782       0.00580393
C        1.25686677       7.88728313       3.67002518       0.00830466      -0.00427334      -0.00337771
C       -0.00597178       9.97355336       3.56867345       0.00243422      -0.00271576       0.00771917
C        7.38895421       1.45313014       3.61280218       0.00065587       0.00274277      -0.01289395
C        6.15811125       3.54785537       3.81564389      -0.00459596       0.00268289      -0.00241579
C        4.79515704       5.67286220       4.00334750       0.00108408       0.00102737       0.01245493
C        3.65911669       7.92619586       3.45526289       0.00406546      -0.00201810      -0.00045639
C        2.45431403      10.04588995       3.47706685       0.00036602       0.01279038      -0.00181076
C        9.86729299       1.46137458       3.65312110       0.00517089      -0.00102303       0.00638899
C        8.62379431       3.58118572       3.80452800      -0.00989205      -0.00910691       0.00235968
C        7.35018605       5.70516233       3.88729464      -0.00425925       0.00037349       0.00075645
C        6.12327986       7.81618069       3.71094011       0.00079956      -0.00459071      -0.01191449
C        4.92257337       9.99478300       3.54813764       0.00665117      -0.00566522      -0.00422029
Ta       3.03173190       4.88824594       4.95233063       0.00396416       0.00848827       0.00004561
