49
Lattice="12.336457 0.0 0.0 -6.168228499999997 10.683685154694365 0.0 0.0 0.0 15.0" Properties=species:S:1:pos:R:3:forces:R:3 energy=-436.97171403503836 free_energy=-436.97171403503836 stress="-0.0003395223491586018 -0.0007939866328114551 -8.952241640650148e-06 -0.0007939866328114551 -0.0070718796052050385 3.3216038985714013e-06 -8.952241640650148e-06 3.3216038985714013e-06 2.312412256354813e-06" pbc="T T T"
C       -0.00238007      -0.00425178       3.50120883      -0.00925288      -0.00243158      -0.00415239
C       -1.23206550       2.15271446       3.57227246      -0.00155811      -0.00395422      -0.00616668
C       -2.50344177       4.26711342       3.83956946       0.00778887       0.01004312      -0.00206272
C       -3.73733395       6.39498055       3.89537811       0.00288362      -0.00679517       0.00048648
C       -4.94730049       8.52336883       3.69038345      -0.01162712      -0.00031091      -0.00502610
C        2.46490486      -0.08869125       3.44237403      -0.00257371       0.00243784      -0.00114281
C        1.26474405       2.04178642       3.28970678       0.00234710       0.01142844       0.01164472
C       -0.06298114       4.33178082       3.81040447      -0.00534008       0.00228006       0.00234344
C       -1.27977937       6.40972287       4.06594852       0.00045527       0.00206612       0.00184576
C       -2.47354802       8.51518310       3.81027659      -0.00089017      -0.00595946      -0.00261809
C        4.93697664      -0.04709877       3.62815554      -0.00090844       0.00494438      -0.00261870
C        3.69242240       2.00948760       3.27080143       0.00265147       0.00631770      -0.00285403
B        1.26251729       6.38669745       4.34653298      -0.00074080       0.00002784      -0.00357612
C       -0.00067084       8.53518040       3.96701665       0.00159488      -0.00418952       0.00010370
C        7.38976751       0.01048956       3.74951002       0.00806866      -0.01211366      -0.01121705
C        6.13458976       2.14342746       3.67965089      -0.00770284      -0.00353832       0.00069255
C        4.80875049       4.32145430       3.88414606       0.00484227       0.00401022      -0.00181873
N        3.73238576       6.54227023       3.93072609       0.00355752       0.00323542       0.00474831
C        2.46825403       8.57477338       3.86927237       0.00211493       0.00184275       0.00375108
C        9.86264089       0.01999683       3.63661165       0.00556830      -0.00370368       0.01037236
C        8.61517857       2.14619397       3.71773325      -0.00539371       0.00492774      -0.00038156
C        7.34105113       4.26634985       3.85810992       0.00225224      -0.00478080       0.00254952
C        6.14231842       6.43264233       3.87646666       0.00809862       0.00117840       0.00270009
C        4.94002291       8.57130370       3.67752223      -0.00750823       0.00060539      -0.00257014
C        0.00510296       1.43116834       3.43833267       0.00097481      -0.00097409       0.00221073
C       -1.25542758       3.55953034       3.71940273      -0.00257068       0.00264401      -0.00312060
C       -2.50636893       5.68679362       3.95060054       0.00674943       0.00210391      -0.00031035
C       -3.71683780       7.81267342       3.80812865      -0.00705018      -0.00273687       0.00106062
C       -4.94911921       9.93403611       3.53114995      -0.00925314       0.00467220      -0.00787143
C        2.46955643       1.31592072       3.26803774       0.00841717      -0.00050479       0.00619522
S        1.51721767       3.77839573       3.28434532       0.00357537      -0.00784331      -0.00386656
C       -0.04899686       5.68248308       4.13512511      -0.00079565       0.00678641       0.00589720
C       -1.24278074       7.82187049       3.98339610       0.00200999      -0.00287971      -0.00303781
C       -2.46400572       9.91572417       3.61544746      -0.00068751      -0.00186736      -0.00518755
C        4.93189073       1.37422326       3.50505209      -0.00582231       0.00326320       0.00187689
B        3.59598219       3.47606394       3.34958683      -0.00423757       0.00037672       0.00796321
C        1.25990097       7.86052107       4.07487517       0.00046352      -0.00144105       0.00093344
C       -0.00281668       9.95422316       3.79145246       0.00128289      -0.00516969      -0.00579309
C        7.37847684       1.43600483       3.71483694      -0.00364634      -0.00616772      -0.00836597
C        6.10962394       3.55925009       3.81109575      -0.00222148       0.00165982      -0.00168453
C        4.88819471       5.77674451       3.99248873       0.00379573       0.01567108       0.00916422
C        3.70939989       7.88837597       3.78834578      -0.00333082       0.01471161       0.00625715
C        2.46293543       9.99870934       3.74678080       0.00952885      -0.00986418      -0.00242582
C        9.86696749       1.44466846       3.63046614      -0.00428305      -0.00209702       0.00846526
C        8.59211671       3.56268119       3.80251963       0.00510027       0.00869538      -0.00207052
C        7.35701100       5.69309267       3.88580460       0.00562809      -0.00955353       0.00314723
C        6.15188717       7.83717692       3.74210727      -0.00833115      -0.00358980      -0.00345911
C        4.92948758       9.98774983       3.59593135      -0.00213485      -0.00561054       0.00190198
Ta       3.02097155       4.93359213       4.77963127       0.00811094      -0.00785278      -0.00291269
