49
Lattice="12.336457 0.0 0.0 -6.168228499999997 10.683685154694365 0.0 0.0 0.0 15.0" Properties=species:S:1:pos:R:3:forces:R:3 energy=-442.08227464514505 free_energy=-442.08227464514505 stress="-0.0009619828608116415 -0.0012976176058579546 5.855598433649391e-06 -0.0012976176058579546 -0.001453854989205475 5.052345081732981e-06 5.855598433649391e-06 5.052345081732981e-06 2.0598131943506894e-06" pbc="T T T"
C        0.00680025      -0.01109343       3.61821367       0.00605219       0.00288819       0.00078863
C       -1.23044431       2.13405462       3.75027868       0.00123031      -0.00483962      -0.00296730
C       -2.44435924       4.26897807       3.86647078       0.00109666       0.01241205      -0.00167223
C       -3.67465733       6.40648009       3.76907551      -0.01181203      -0.00592042       0.00366006
C       -4.91995279       8.54289702       3.68915167       0.00314071      -0.00885537      -0.00179199
C        2.47307457       0.00828546       3.58407801      -0.00505315      -0.00112257      -0.00049426
C        1.21079753       2.08205382       3.49190672       0.00193225       0.00631541      -0.01044081
C        0.03253421       4.23305023       3.97992415      -0.00842045      -0.00578498      -0.00932726
C       -1.20804675       6.40176765       3.75625638      -0.00087570      -0.00286625       0.00159201
C       -2.45015472       8.54545977       3.62973044       0.00798050       0.00278367       0.01308366
C        4.93606585       0.02103061       3.60907545       0.00461713       0.01051356       0.00701988
C        3.68592567       2.18871869       3.75605366      -0.00395851      -0.01199344      -0.00289872
C        1.24694403       6.44877627       3.74545788       0.00719735       0.00508720      -0.00024228
C        0.01048042       8.55872505       3.59431195       0.00524486      -0.00198546       0.00418020
C        7.40693401       0.01379370       3.62789152      -0.00760894      -0.00540231      -0.00351019
C        6.17422965       2.14185824       3.73569395       0.00288377       0.00989206       0.00122308
C        4.94942227       4.26340507       3.96460414      -0.00256267       0.00720646       0.00244972
B        3.64552806       6.38733886       4.09588070      -0.00980597      -0.00341853      -0.00164861
C        2.47913766       8.57525588       3.69423403       0.00121885       0.00736007      -0.00416783
C        9.87933700       0.00720687       3.66874283      -0.00515166       0.00003200      -0.00228765
C        8.64289334       2.14062337       3.74522095      -0.00214034       0.00249437      -0.00160837
C        7.42130995       4.27207231       3.82298401       0.00658684      -0.00744142       0.01216305
C        6.19123915       6.41056163       3.87060539       0.00803589      -0.00058599       0.00075163
C        4.94549912       8.54453712       3.76875974      -0.00455760       0.00030496       0.00335073
C       -0.00797157       1.41233052       3.59118405       0.00672556       0.00529426      -0.01071426
C       -1.22449039       3.53814184       3.92971539      -0.00689881      -0.00242986      -0.00332409
C       -2.43077038       5.69428433       3.80428718      -0.00978691       0.00715477      -0.00315596
C       -3.68127701       7.83179025       3.69101873       0.00422522      -0.00411502       0.00963784
C       -4.92216101       9.97171974       3.61323293      -0.00009509      -0.00714694      -0.00138639
C        2.45980731       1.44733246       3.58219453      -0.00681822      -0.00512920      -0.00643428
O        1.15253356       3.49966992       3.37535632      -0.00071852      -0.00225344      -0.00966350
C        0.07292930       5.66996531       3.86330945       0.00511495      -0.00265267      -0.00542686
C       -1.21210584       7.82383729       3.64596310       0.00720160      -0.00482279       0.00466139
C       -2.46026139       9.97645709       3.59747254       0.00338165       0.00912203       0.00571834
C        4.92941622       1.44495383       3.68829774       0.00472934       0.00584176       0.00038438
C        3.70826335       3.57452784       4.01394167       0.00629333      -0.01207808      -0.00836054
C        1.25506629       7.86102266       3.63718055       0.00509437       0.00881602      -0.00071736
C        0.00336678       9.98387510       3.59467751      -0.00330946      -0.00412709       0.00461860
C        7.40951607       1.43096051       3.69247884      -0.00322122      -0.00110260      -0.00816687
C        6.19557562       3.55334910       3.83256517       0.00130898       0.00852798       0.00762994
C        4.97211789       5.67644683       3.99612678       0.00290248       0.01259690       0.00303178
C        3.69861170       7.86599199       3.84334372      -0.00580911       0.00080840      -0.00028108
C        2.47498043       9.99405130       3.64540860      -0.00611195       0.00041582      -0.00104421
C        9.88066135       1.43041550       3.71533061      -0.00439765      -0.00233128      -0.00255771
C        8.65527558       3.56293364       3.80821422       0.00844413       0.00355338       0.01339990
C        7.42938926       5.69959583       3.82571847      -0.00052259      -0.01461717       0.00522842
C        6.18460479       7.83274376       3.78525012       0.00163920      -0.00310114      -0.00140338
C        4.94284303       9.96735719       3.67696437       0.00153940       0.00383441       0.00783642
Ta       1.98093479       4.84895835       4.67088478      -0.00618098      -0.00713211      -0.00671563
