49
Lattice="12.336457 0.0 0.0 -6.168228499999997 10.683685154694365 0.0 0.0 0.0 15.0" Properties=species:S:1:pos:R:3:forces:R:3 energy=-438.4010782470266 free_energy=-438.4010782470266 stress="-0.0014256971949415044 -0.0018693837934825122 -5.656840085831323e-06 -0.0018693837934825122 -0.007512514992480231 -8.852075993916452e-06 -5.656840085831323e-06 -8.852075993916452e-06 2.879078639102158e-06" pbc="T T T"
C       -0.01266767      -0.01523006       3.46796247      -0.00259049      -0.00608760      -0.00516158
C       -1.25012245       2.13116705       3.70026779       0.00425675       0.00254545       0.00134460
C       -2.50671294       4.26130229       3.82888353      -0.00530220      -0.00289526      -0.00455712
C       -3.72636205       6.39219539       3.72216097      -0.00202971      -0.00360663       0.00288181
C       -4.94450111       8.51841327       3.48479044      -0.00210724       0.00543154      -0.00588563
C        2.46283482      -0.07822489       3.37587366       0.00552969       0.00274159      -0.00460776
C        1.25030616       2.02745327       3.62166177       0.00091345       0.00683933       0.01141997
C       -0.06815540       4.30376445       3.99144904       0.00482963      -0.00167897      -0.00741570
C       -1.27040932       6.41217672       3.92183141      -0.00234264      -0.00275611      -0.00117845
C       -2.46907297       8.51200576       3.60487280       0.00274967       0.00113242       0.00242639
C        4.93292174      -0.03567777       3.55466928      -0.00673473      -0.00197768      -0.01199446
C        3.67844134       2.04486493       3.44976871      -0.00632256      -0.00920187       0.00236854
B        1.26562109       6.39299494       4.37807152       0.01238462       0.00743271       0.00086810
C       -0.00087163       8.53018033       3.83813173       0.00827326       0.00302156       0.00380436
C        7.38227675       0.00714990       3.68989214       0.00247900      -0.00289072      -0.00457916
C        6.13039048       2.14650395       3.74050846      -0.00237755      -0.00875777       0.00144695
C        4.82724630       4.33571244       4.05533930      -0.00053125      -0.00465891      -0.00846761
N        3.74616582       6.54339157       3.89765609       0.00215026       0.01155159       0.00336224
C        2.46094112       8.56328227       3.76732792       0.00504979      -0.00655677       0.00028200
C        9.85250395       0.00886050       3.59031498      -0.00855601       0.00711733       0.00036501
C        8.60622715       2.13812226       3.74124205       0.00289812       0.01112104      -0.00221612
C        7.34195816       4.26545935       3.85205143       0.00505979      -0.00309270       0.00022329
C        6.15462770       6.43216552       3.72597039       0.00009816      -0.00126367       0.00786316
C        4.93261843       8.55965421       3.50746302      -0.00636773       0.00025407      -0.00136681
C       -0.01407629       1.40596171       3.59180319       0.00372891      -0.00448155       0.00216056
C       -1.26790986       3.54451425       3.83373159      -0.00766101      -0.00044918       0.00693849
C       -2.50029221       5.68602308       3.82839459      -0.00531263      -0.00794481      -0.00146665
C       -3.71003142       7.80761277       3.59010871      -0.00058320       0.00284675       0.00406298
C       -4.95232902       9.93265739       3.41198590       0.00562882       0.00670421      -0.00765005
C        2.46445359       1.32384699       3.41442480      -0.00187589      -0.00332831       0.00517569
P        1.54456838       3.66966404       4.12536807       0.00978760       0.00520086       0.00585483
C       -0.05727213       5.70422478       4.10504610       0.00739992       0.00251034       0.00050306
C       -1.24122691       7.82129920       3.80373203       0.00550752       0.00117970       0.00579176
C       -2.46291381       9.92013589       3.47684401      -0.00253852      -0.00021963       0.00455457
C        4.92423252       1.39182992       3.55634890      -0.00795160      -0.00832820      -0.00682979
B        3.52147562       3.51322967       3.73515796      -0.00580500      -0.00372153      -0.00111075
C        1.25420765       7.84981666       4.00262363       0.00806647      -0.00068537      -0.00646600
C       -0.00796335       9.95349941       3.69061023      -0.00190617       0.00119425      -0.00820692
C        7.36981767       1.43392540       3.71784806       0.00601675       0.00097807       0.00884028
C        6.10690441       3.56396483       3.90296832       0.00532863      -0.00548485      -0.00451528
C        4.92250751       5.79501684       3.96541510      -0.00375351       0.00110728      -0.00946994
C        3.70561471       7.87652610       3.65947916      -0.00135018       0.00364957       0.00165240
C        2.45309222       9.98796062       3.66422871      -0.00080816      -0.00861672       0.00559896
C        9.84997305       1.42877473       3.66496999       0.00050161       0.01071139       0.00877403
C        8.59036194       3.55718693       3.80795038      -0.00100106       0.00441791      -0.00393349
C        7.36999237       5.69173878       3.77071085       0.00071887      -0.00659549       0.01212384
C        6.15458925       7.83366687       3.54315279      -0.00393249      -0.00198290       0.00123129
C        4.92035442       9.97749923       3.49910938      -0.00899313      -0.00073004      -0.00138142
Ta       3.16305752       5.11028538       5.08454624      -0.01062265       0.00830429      -0.00345849
