49
Lattice="12.336457 0.0 0.0 -6.168228499999997 10.683685154694365 0.0 0.0 0.0 15.0" Properties=species:S:1:pos:R:3:forces:R:3 energy=-437.7082589148441 free_energy=-437.7082589148441 stress="0.0026151776509357855 0.0034713633350190193 1.3017378245184898e-06 0.0034713633350190193 -0.0076689853373156725 -6.185735383367407e-06 1.3017378245184898e-06 -6.185735383367407e-06 -1.9937042863416767e-07" pbc="T T T"
C        0.00050050      -0.03305732       3.54439950       0.00239755      -0.00301282      -0.00369810
C       -1.17875361       2.16240171       3.79482352       0.00035677      -0.00498952       0.00186551
C       -2.39308153       4.27140117       4.01770546      -0.00298021       0.00033120      -0.00176700
C       -3.68352377       6.38868276       3.87853349       0.00388487      -0.00069578      -0.00542608
C       -4.94591238       8.50012545       3.60843443      -0.00745301      -0.00069701       0.00294423
C        2.47179457      -0.08049872       3.56614645       0.00339548       0.01300569       0.00724107
C        1.27443118       2.02855960       3.54848968      -0.00578362      -0.00085815      -0.00028806
C        0.17314153       4.35197054       4.08417843      -0.00739010       0.00142393       0.01282572
C       -1.21768155       6.44611870       3.93401963       0.00207447      -0.00144147      -0.01138026
C       -2.47114430       8.52248334       3.70218956       0.00163246      -0.00279889       0.00404570
C        4.93158497       0.00182135       3.71189419       0.00216698      -0.00715889       0.00081940
C        3.68184813       2.06167297       3.81096013       0.00752612       0.00818886       0.00091890
N        1.17004048       6.61221366       3.76552296      -0.00208922       0.00022346      -0.00034957
C       -0.03371157       8.59541149       3.59397388       0.00678730      -0.00109331      -0.01011623
C        7.41093021       0.03293522       3.69194163      -0.00194433      -0.00088446      -0.00663580
C        6.18137935       2.13526046       3.94219463      -0.00386251      -0.00417456       0.00079563
C        4.90185892       4.25015331       4.03769634       0.00100398       0.00119886       0.00578286
P        3.55006842       6.15670603       2.86938424       0.00272621      -0.00925249      -0.00117589
C        2.45177351       8.60058439       3.38732706       0.00274701       0.00032892       0.00534269
C        9.88806739       0.02752191       3.61110077      -0.00205534      -0.00883564       0.00692859
C        8.67126433       2.15059828       3.89837561      -0.00021626      -0.00593022       0.00331314
C        7.42072177       4.25955102       4.02046899       0.00233403       0.00223296      -0.01003755
C        6.18491311       6.38615751       3.74561999      -0.00243926       0.00094130       0.00332662
C        4.92118052       8.52377363       3.45610692       0.00140872       0.00914890      -0.00408128
C        0.01826933       1.39497425       3.60166847      -0.00180784      -0.00465969      -0.00190642
C       -1.13694086       3.57953336       3.99205718      -0.00498341      -0.00099989      -0.00018685
C       -2.43099685       5.69845181       3.97359470       0.00331658      -0.00190249      -0.00188625
C       -3.70439523       7.80257021       3.72922881      -0.00389198       0.00075180       0.00558958
C       -4.94113866       9.91670554       3.54299955       0.00364066       0.00323143      -0.00661875
C        2.48848498       1.32110859       3.60377576       0.00380484       0.01287671       0.00123244
B        1.49385817       3.48095158       3.75040669      -0.00163044      -0.00257539      -0.00759333
C        0.04920059       5.81653906       4.05402247      -0.00174184       0.00168896       0.00610191
C       -1.23368501       7.84497695       3.74916584       0.00713114      -0.00157540      -0.00722013
C       -2.45780301       9.93583254       3.64474892      -0.00023052      -0.00045043       0.00006783
C        4.93820149       1.41753670       3.82957234       0.00115368      -0.00785508      -0.00274182
B        3.47936259       3.55046024       4.05107449      -0.01525978       0.00856030       0.00153289
C        1.18710941       7.92818174       3.46074678       0.00456131      -0.00145230      -0.00090228
C       -0.00397163      10.00701554       3.66090878       0.00373696      -0.00422311       0.00141219
C        7.42147422       1.44170455       3.85721551      -0.00354840      -0.00249490      -0.00165392
C        6.17051195       3.54466355       4.05151169       0.00099216       0.00115601       0.00120820
C        4.97148359       5.62704779       3.75609033      -0.01024444       0.01241505      -0.00147612
C        3.66181765       7.87023950       3.30393290       0.00555361       0.00883310       0.00787376
C        2.47343275      10.01751043       3.56140098      -0.00429245      -0.00333031      -0.00399388
C        9.90962038       1.45080429       3.77327743       0.00076156      -0.00995839       0.01019093
C        8.68023738       3.56658452       4.00272318      -0.00020116      -0.00320779      -0.00065379
C        7.41785201       5.67938514       3.90933730       0.00229780       0.00188931      -0.00189705
C        6.15429827       7.79553707       3.57793557      -0.00673308      -0.00237337      -0.00188325
C        4.93338370       9.95878678       3.53217299       0.00196066       0.00088773       0.00437166
Ta       1.97603591       5.17889896       4.76366343       0.01142631       0.00956729      -0.00016177
