49
Lattice="12.336457 0.0 0.0 -6.168228499999997 10.683685154694365 0.0 0.0 0.0 15.0" Properties=species:S:1:pos:R:3:forces:R:3 energy=-438.7895397469885 free_energy=-438.7895397469885 stress="-0.0014976244080358706 0.003844052251130891 -2.6160122186271255e-06 0.003844052251130891 -0.005725307509265823 -7.340635855587101e-06 -2.6160122186271255e-06 -7.340635855587101e-06 3.323145304077156e-06" pbc="T T T"
C        0.00626613       0.01744505       3.55018358       0.00035889      -0.00962782       0.00203743
C       -1.21649327       2.16869173       3.60744323       0.00157449       0.00048778       0.00519622
C       -2.48912624       4.28329751       3.89696077      -0.00979476      -0.00209265       0.00303618
C       -3.74848817       6.40505970       3.94270531      -0.00013691      -0.00389372       0.00058170
C       -4.96950254       8.52796809       3.73532569       0.00286731       0.00217939       0.00371427
C        2.46051982      -0.03143523       3.63201774       0.00567587       0.00140195      -0.00986526
C        1.27913805       2.10041730       3.35931756       0.01086715      -0.00372710      -0.01145108
C       -0.06025050       4.37342787       3.71399333      -0.00688158       0.00558271       0.00651280
C       -1.28319287       6.44188421       3.97737674       0.00517961       0.00967208       0.00500743
C       -2.49698806       8.53729949       3.84829923      -0.00682322       0.00888268      -0.00045578
C        4.93945002      -0.04322696       3.74992590       0.00413842      -0.00175523       0.00128751
C        3.75137004       2.04979666       3.60302368       0.00047347      -0.00238417       0.00176086
N        1.17681792       6.43911659       3.99344349       0.01869474       0.00387191      -0.00005935
C       -0.01652783       8.52476826       3.81727934      -0.00189095       0.00489545       0.00367793
C        7.40022089      -0.00566814       3.74026326       0.00954231      -0.00487216       0.00225934
C        6.17866016       2.10760491       3.88477783      -0.00517761      -0.00031771       0.00071064
C        4.89595407       4.16160445       4.11257089       0.00074914      -0.00160475      -0.00264924
B        3.70652034       6.49059120       3.46999111      -0.01662087       0.00144143       0.00744799
C        2.43286347       8.56603637       3.56856656      -0.00728581      -0.01149698       0.00766420
C        9.86841004       0.02058653       3.58531060      -0.00129185       0.00012623       0.00249013
C        8.64208917       2.14124821       3.80918170      -0.00762129      -0.00373288      -0.00229345
C        7.37209144       4.25804961       3.99819101       0.00525745      -0.00091663      -0.00454298
C        6.12196855       6.39573859       3.88685979       0.00193738       0.00172841      -0.01061023
C        4.93412021       8.57779389       3.50600900      -0.00894670      -0.00944494       0.00270429
C        0.01866410       1.45373115       3.49411036       0.00920302      -0.00385097       0.00504302
C       -1.24770989       3.58479833       3.74433973      -0.01086472       0.00221138       0.00620399
C       -2.50248036       5.70695224       3.96171059       0.00220321      -0.00024873       0.00725944
C       -3.73964174       7.82433604       3.85851367      -0.00015835      -0.00136047      -0.00468198
C       -4.94913300       9.95646234       3.62870582       0.00668354      -0.00101559      -0.01161372
C        2.48597369       1.39336867       3.50260750       0.00927408      -0.00440791      -0.01072983
S        1.36180958       3.79753499       2.92834928       0.00418609       0.01538466      -0.00412411
C       -0.02758617       5.76592906       3.95324450       0.01076746       0.00738763       0.01202620
C       -1.25887183       7.84147182       3.90669685      -0.00580578       0.01192862      -0.00662000
C       -2.47786476       9.94746852       3.74346957       0.00056268       0.00619607       0.00062640
C        4.96879353       1.37107197       3.73712582      -0.00183794      -0.00370777      -0.00427057
N        3.77977381       3.37982129       3.84723497      -0.00811866       0.00210874      -0.00364646
C        1.22167444       7.79622369       3.78491270      -0.00388342       0.00212082       0.00575399
C        0.00518683       9.93782412       3.77234207       0.00704354       0.00107865      -0.00005140
C        7.41245307       1.41486542       3.81943688      -0.00608561      -0.00299381      -0.00505706
C        6.16417943       3.50847132       4.04060951       0.00420774       0.00156348      -0.00999230
C        4.84987142       5.61594183       3.95533341       0.00721811       0.00360284       0.00031670
C        3.67607838       7.92782561       3.38771286      -0.01059474      -0.00846579       0.00765319
C        2.45515587       9.98782851       3.62714092       0.00436675      -0.01129473      -0.00104774
C        9.88462439       1.44639932       3.66608787      -0.00180098       0.00378569       0.00832840
C        8.61845047       3.56230628       3.91272175      -0.00356767      -0.00683025      -0.00194931
C        7.34892706       5.69043682       3.96434955      -0.00002061      -0.00231108      -0.00445711
C        6.12587654       7.81053632       3.70003047      -0.00117342       0.00393893       0.00203152
C        4.93774455       9.99780369       3.53395275      -0.00563252      -0.00818079       0.00409314
Ta       2.87955309       4.95104388       4.49496282      -0.00101649       0.00895711      -0.00525596
