49
Lattice="12.336457 0.0 0.0 -6.168228499999997 10.683685154694365 0.0 0.0 0.0 15.0" Properties=species:S:1:pos:R:3:forces:R:3 energy=-433.3195866874293 free_energy=-433.3195866874293 stress="0.0016204243713080124 -0.0017885417028752377 -4.0197238719308525e-06 -0.0017885417028752377 -0.007325971140976079 -5.58763654507115e-06 -4.0197238719308525e-06 -5.58763654507115e-06 -6.13308614974865e-07" pbc="T T T"
C       -0.00203996      -0.05845987       3.71586846       0.00718125      -0.00030473      -0.00085382
C       -1.21625254       2.11893440       3.79488450       0.00511477       0.00276365       0.00838914
C       -2.42388049       4.25413976       3.93169287      -0.00448521      -0.00176302       0.00083997
C       -3.66702414       6.39037069       3.93182398       0.00246721      -0.00296103       0.00160681
C       -4.91711595       8.50889536       3.85439857      -0.01102757      -0.00940089      -0.00025675
C        2.47892529      -0.09226016       3.54087534       0.00156641       0.00273333       0.00300534
C        1.23783894       1.98136524       3.43997021      -0.00656777      -0.00791309      -0.00778846
C        0.09917413       4.25647776       3.97360717       0.00612370      -0.00647335      -0.00440392
C       -1.22289457       6.41881579       3.77539896      -0.00004256       0.00506024       0.01017756
C       -2.43874686       8.51395212       3.67401185       0.00413907       0.00491022      -0.00260553
C        4.93738931       0.00442078       3.52942358      -0.00510266      -0.00324123      -0.00036512
C        3.65498379       2.06312892       3.36699574       0.00383066       0.01190691      -0.01441764
B        1.19668449       6.48588600       3.23444129      -0.00324674      -0.00020768       0.01451336
C        0.01404226       8.57297186       3.48559597       0.00374784       0.00404340       0.00416361
C        7.41300046       0.02271865       3.62189148      -0.01240363      -0.00549548       0.01267588
C        6.14871833       2.17154118       3.65971689       0.00371888      -0.00516200       0.00383507
C        4.93454778       4.37251024       3.92168587       0.01058700       0.00166376      -0.00113675
O        3.73486643       6.45850545       4.25541633       0.00489197      -0.00387311      -0.00436506
C        2.51440330       8.55234845       3.64418497       0.00360885      -0.00573158      -0.00314714
C        9.87904621      -0.00402824       3.77168952      -0.00642756      -0.00099698      -0.00779085
C        8.64174407       2.14285391       3.80693676       0.00632785       0.00439102       0.00388906
C        7.40587024       4.27227398       3.94273552      -0.00449831       0.00394657       0.00359487
C        6.20538933       6.42442621       4.14146551      -0.00205858      -0.00582453      -0.00497218
C        4.94736351       8.51868567       3.91983154      -0.00517898       0.00660922      -0.00914953
C       -0.00506115       1.35848824       3.64272595      -0.00172788      -0.00131127       0.00460252
C       -1.19767055       3.52645036       3.92688521       0.00057780       0.00328423      -0.00167327
C       -2.42981407       5.68516444       3.89200413       0.00146498      -0.00517651       0.01605230
C       -3.66798613       7.80631795       3.83150081      -0.00001568       0.00110693       0.00025848
C       -4.92970309       9.91344361       3.69306669       0.00410609      -0.00436484      -0.00232110
C        2.46903532       1.31074091       3.40271257       0.00029537       0.00000459      -0.00766615
B        1.36081197       3.43042208       3.52071283       0.01126990       0.00153545      -0.01161232
C        0.03481299       5.69956391       3.82164402      -0.00110234       0.00503563       0.00940633
C       -1.19636768       7.81814975       3.62045508       0.00581381       0.00647975      -0.00701187
C       -2.44262838       9.92826289       3.56808292      -0.00138997       0.00325612      -0.00122700
C        4.91528341       1.44751331       3.50959041       0.00373652      -0.00692730      -0.00800368
S        3.37149430       3.81957399       3.18613014      -0.00542485      -0.00807671      -0.00363239
C        1.27096700       7.91356264       3.41088064       0.00071191       0.00636094       0.00313621
C        0.00670129       9.99616341       3.54040801      -0.00970035      -0.00361952       0.00758200
C        7.39071552       1.45039008       3.69690599       0.00505699      -0.00069821       0.00291639
C        6.14960755       3.58564642       3.83300575      -0.00060214       0.00291838       0.01334793
C        4.98319335       5.73020262       4.20415029       0.00097974       0.00087625      -0.00166792
C        3.71429280       7.84229229       3.89636487       0.00178657       0.00035061      -0.01411732
C        2.48780770       9.99054626       3.68704038      -0.01053775      -0.00743178      -0.00102134
C        9.87888924       1.42464958       3.79619593       0.00549230       0.00176019       0.00881669
C        8.65785921       3.56024081       3.90006549      -0.00836735       0.00443155      -0.00089870
C        7.42569097       5.68970817       4.03307602      -0.00039786      -0.00161941      -0.01145759
C        6.19277556       7.82547640       4.00366729      -0.01449052      -0.00971089       0.00270423
C        4.93244478       9.93671897       3.80828632       0.00289414       0.00586693      -0.00578731
Ta       1.94820804       5.13838590       4.59461894       0.00730470       0.01698929       0.00383697
