49
Lattice="12.336457 0.0 0.0 -6.168228499999997 10.683685154694365 0.0 0.0 0.0 15.0" Properties=species:S:1:pos:R:3:forces:R:3 energy=-434.8931586517847 free_energy=-434.8931586517847 stress="5.5649684401097734e-05 -0.0016729137446857363 -8.817561081034326e-06 -0.0016729137446857363 -0.007071509010975798 1.3462426443602465e-06 -8.817561081034326e-06 1.3462426443602465e-06 -1.8697895351809859e-06" pbc="T T T"
C        0.00271368      -0.04021316       3.60336879       0.00052838       0.00808487      -0.00604790
C       -1.21468136       2.12636383       3.82565932      -0.00490646      -0.01173654       0.00266392
C       -2.42929488       4.25525991       3.92547009       0.01027213      -0.00134841       0.00833498
C       -3.67886174       6.38884926       3.77089471      -0.00210740      -0.00183095       0.00943393
C       -4.92083950       8.50932588       3.63096322      -0.00596955      -0.00153730       0.00589173
C        2.47922548      -0.08529007       3.46054405       0.00177781      -0.01278939       0.00101099
C        1.24682114       2.02377420       3.55386201       0.00599276       0.00518224      -0.00321424
C        0.07869829       4.27441343       4.11037048       0.00227803       0.00666093      -0.00191975
C       -1.23156015       6.41368953       3.69869027       0.00409833       0.00531629       0.01402978
C       -2.43961194       8.51013903       3.52778015      -0.00583709      -0.00055091      -0.00827755
C        4.95178289      -0.01844653       3.55102288       0.00461282       0.00694923      -0.01086563
C        3.67495406       2.02611034       3.68712042      -0.00404615      -0.00707174       0.00745646
B        1.20114532       6.44182743       3.25140904      -0.00048735       0.00398470      -0.00966490
C        0.02811334       8.55346337       3.42265164       0.00086632      -0.00700621       0.00235574
C        7.42041851       0.01023992       3.63067196      -0.00844309       0.00542719      -0.00143778
C        6.16220991       2.15065156       3.79700406       0.00266238      -0.00457390      -0.00159235
C        4.94658240       4.37022278       4.02330789      -0.00131198       0.00170876      -0.00057970
O        3.73759325       6.49545871       4.21369060       0.00415343      -0.00286203       0.00579027
C        2.51991043       8.54840345       3.57737220       0.00014822       0.01385692       0.01210012
C        9.88474697       0.00016027       3.71277224       0.00179561      -0.01215331      -0.00480759
C        8.64693365       2.13733192       3.83827655       0.00773586      -0.00172162      -0.00534961
C        7.40930435       4.27074317       3.91252618      -0.01396364      -0.00342015      -0.00383838
C        6.18942906       6.43058349       3.92457500      -0.00368132       0.00983828      -0.00381320
C        4.95261611       8.52918446       3.74829319      -0.00333022       0.00053088      -0.00530903
C       -0.00007721       1.38050763       3.64449187       0.00141672       0.00717896      -0.00163830
C       -1.20052958       3.53393417       3.99486322       0.00648318      -0.00886356      -0.00160423
C       -2.44296442       5.68357868       3.80922434       0.00712771       0.00450386       0.01070174
C       -3.67455454       7.80325193       3.63349036      -0.00626297      -0.00331017       0.00286159
C       -4.93171228       9.91965886       3.53131290      -0.00542872      -0.00527568      -0.00104473
C        2.46534649       1.31241292       3.50690289       0.00049359      -0.01023557       0.01093722
B        1.40146601       3.49031472       3.81467625      -0.00711919      -0.00020887       0.01170643
C        0.01107368       5.70164750       3.83849448       0.00748028       0.00286037       0.00086825
C       -1.19571613       7.81182858       3.51724293      -0.00524494       0.00123281       0.00742024
C       -2.44025068       9.92428967       3.48760040       0.00797143      -0.00119982      -0.00756991
C        4.94218748       1.40645084       3.68303946       0.00077780       0.00762156      -0.01188179
P        3.34614121       3.68251295       4.08775484      -0.00240511       0.01583873      -0.00516294
C        1.28369002       7.88068351       3.37015113       0.00910615      -0.00004945       0.00586649
C        0.01911824       9.97589236       3.52508322      -0.00281485      -0.00280284      -0.00543753
C        7.40415211       1.43407579       3.75840541       0.00527159       0.00080476       0.00106521
C        6.16590892       3.57502657       3.91445541      -0.00991770      -0.00989848      -0.00372633
C        4.97410592       5.75812012       4.07837249       0.00485108       0.00394766       0.00399465
C        3.72517252       7.84889241       3.81056057      -0.00084826       0.00069566       0.00499035
C        2.49511780       9.98418730       3.63936987      -0.00801817       0.01180842       0.00510856
C        9.88475351       1.42674093       3.79633278       0.00027058      -0.01823315      -0.00083618
C        8.65753934       3.55728455       3.90214637       0.00216587       0.00308480      -0.00397065
C        7.41691663       5.69166474       3.88281783      -0.01114333       0.00234764      -0.00478545
C        6.18978228       7.82872807       3.77299260      -0.00612533       0.00704949      -0.00620710
C        4.93896567       9.94951899       3.68092005       0.00403351      -0.00087146      -0.01350528
Ta       1.82341106       5.29509916       4.87572098       0.01504124      -0.00696351      -0.00050063
