49
Lattice="12.336457 0.0 0.0 -6.168228499999997 10.683685154694365 0.0 0.0 0.0 15.0" Properties=species:S:1:pos:R:3:forces:R:3 energy=-434.29888332044453 free_energy=-434.29888332044453 stress="0.0033828144752203536 0.004035415823221859 1.034720765176911e-08 0.004035415823221859 -0.006926944571805145 -1.8526886889593863e-06 1.034720765176911e-08 -1.8526886889593863e-06 -2.3168998982043277e-06" pbc="T T T"
C        0.00522455      -0.03019101       3.55940031      -0.00343623      -0.00500984      -0.00024123
C       -1.17734611       2.16275246       3.76012514       0.00221111       0.01228437       0.00540110
C       -2.38745585       4.27355844       3.99025699       0.01016239       0.00517199       0.00234942
C       -3.68267180       6.38830623       3.90802007      -0.00632700       0.00212782      -0.00218301
C       -4.95279701       8.49618449       3.63797304      -0.00887991      -0.01188017       0.00446094
C        2.47236479      -0.08134501       3.64441142       0.00078590       0.00152123       0.00176218
C        1.28257665       2.03374399       3.62651608       0.00170335       0.01637900       0.00224349
C        0.17754388       4.35566954       3.98240424      -0.00731963       0.00485618       0.00698230
C       -1.23011741       6.45109047       4.02456952      -0.00406858      -0.00153106      -0.00126269
C       -2.46943292       8.52066781       3.77363499       0.00089998      -0.00311455      -0.00370002
C        4.93549157      -0.00382721       3.78695624      -0.00405912       0.00565749       0.00062374
C        3.68609430       2.06167541       3.88802844       0.00726064      -0.00572374      -0.01002486
O        1.05754134       6.53284510       3.24895337       0.00077581      -0.01159070      -0.01611838
C       -0.02585716       8.58395636       3.62028393      -0.00272551       0.00866361      -0.00342522
C        7.41218168       0.02686304       3.70816679      -0.00504113      -0.01094691      -0.01055924
C        6.18656245       2.13013122       3.97317841       0.00465433      -0.00509791       0.00037749
C        4.90545707       4.24656418       4.04459934       0.00254145       0.01181242       0.00299211
S        3.57951569       6.18235136       2.96069013       0.01482437      -0.00705607      -0.00554131
C        2.43385564       8.58813217       3.33948336      -0.00060440       0.00191720      -0.00513213
C        9.88640699       0.02383816       3.58982314      -0.00233071       0.00198640       0.00814905
C        8.67528041       2.14945269       3.87879191      -0.00516256      -0.00350535      -0.00325134
C        7.42469574       4.25614267       4.01005958       0.01139232       0.00246655       0.00466576
C        6.18500839       6.38193645       3.73172522       0.00376469       0.00372161       0.00097333
C        4.91795392       8.52151907       3.44634531      -0.00498801      -0.00945948       0.00772781
C        0.02458799       1.39704878       3.62050074       0.00184222       0.00693646       0.00091632
C       -1.13355552       3.58508004       3.92537326       0.00716184       0.01013436       0.00509908
C       -2.43236238       5.69670629       4.01114024      -0.00478620       0.00382641      -0.00788643
C       -3.70763786       7.80086490       3.77657419      -0.00453725      -0.00258246       0.00813293
C       -4.94139297       9.91656923       3.58559823      -0.00173289      -0.01047435       0.00487863
C        2.49090303       1.32080229       3.69233990       0.00052568       0.00608557       0.00443583
B        1.50568110       3.49124402       3.79259690      -0.00537135       0.01025704       0.00234606
C        0.03743575       5.79663390       4.02240412      -0.00495295      -0.00886079       0.00417869
C       -1.24102964       7.84130478       3.82153329       0.00164891      -0.00210101      -0.00759748
C       -2.45796672       9.93440606       3.72182093       0.00112523       0.00087997       0.00312004
C        4.94140657       1.41480746       3.89742427       0.00657785       0.00035754      -0.00722720
B        3.48234148       3.55962202       4.09058198      -0.00884506      -0.01131656      -0.01270233
C        1.16890433       7.94869114       3.35729371      -0.00062903       0.00477839       0.00514147
C        0.00126639      10.00147317       3.71100622      -0.00834108       0.00765015      -0.00677672
C        7.42609487       1.44113582       3.86824414      -0.00397071      -0.01509791      -0.00843402
C        6.17853476       3.54035827       4.05393403       0.00686204       0.00019754       0.01057170
C        4.99653313       5.60289132       3.71977256       0.01030877       0.00764506       0.00444096
C        3.66422928       7.88114494       3.28452501       0.00312294       0.00155802      -0.00341068
C        2.46944423      10.01414736       3.54616329      -0.00013744      -0.00074416      -0.00640319
C        9.91219621       1.45062255       3.74420688      -0.00011977       0.00704202       0.01347593
C        8.68622734       3.56576172       3.97972292       0.01267812      -0.00069276       0.00111957
C        7.42004251       5.67527393       3.90831389      -0.00108246       0.00457856      -0.00073940
C        6.14780143       7.78933795       3.57660974      -0.00814770      -0.00670711       0.00014143
C        4.93505781       9.96141670       3.51905376      -0.00736928      -0.00650640       0.00881317
Ta       2.00457343       5.29918639       4.59358840       0.00213601      -0.01049368      -0.00290366
