49
Lattice="12.336457 0.0 0.0 -6.168228499999997 10.683685154694365 0.0 0.0 0.0 15.0" Properties=species:S:1:pos:R:3:forces:R:3 energy=-435.6613720195372 free_energy=-435.6613720195372 stress="-0.0011533250695360975 -0.002261228318273602 -6.627576194344773e-06 -0.002261228318273602 -0.006487954964004236 -3.07598261731007e-06 -6.627576194344773e-06 -3.07598261731007e-06 2.2666169025658046e-06" pbc="T T T"
C       -0.01265598      -0.01315605       3.52765770      -0.00695510      -0.00165048      -0.00090619
C       -1.25190785       2.13111875       3.74857621      -0.00365495      -0.00272856       0.00348502
C       -2.51006461       4.26015512       3.87701079       0.00911203       0.00375591      -0.00110147
C       -3.72657882       6.39382960       3.79517692       0.00348756      -0.01030386      -0.00476309
C       -4.94521863       8.52112240       3.55966182       0.00106761      -0.00471001      -0.00876134
C        2.46251793      -0.07743271       3.42866284      -0.00922840      -0.00998747      -0.00121074
C        1.25044642       2.02879966       3.68361266       0.00611775       0.00327995       0.00830016
C       -0.07021328       4.30229343       4.04387643       0.00289249       0.00044278      -0.00377821
C       -1.27168068       6.41185646       3.95368698       0.00418631      -0.00390784      -0.00467787
C       -2.46807516       8.51180830       3.64248146       0.00121756       0.00120911       0.00306694
C        4.93274483      -0.03749806       3.54424633       0.00185648       0.00815966      -0.00519307
C        3.67286340       2.04663734       3.46770497       0.00074525      -0.00283650       0.00433544
B        1.26871036       6.38791517       4.33074485       0.00025334       0.01355734       0.00072653
C        0.00754157       8.52244067       3.79429978      -0.00296081      -0.00292817       0.00824076
C        7.38494059       0.00238904       3.64969507       0.00679523      -0.00604546      -0.00251957
C        6.12900424       2.14601106       3.70543082      -0.00613976      -0.00178425      -0.00204647
C        4.81369405       4.33828163       3.98486146      -0.00106763      -0.00508987       0.00822230
O        3.73706857       6.48172981       3.47605415      -0.00804906       0.00853952       0.00851120
C        2.46884908       8.54451875       3.66886855       0.00422476       0.00840544      -0.00519491
C        9.85138152       0.00654777       3.58995507       0.00869699      -0.00028548      -0.00278377
C        8.60436897       2.13839451       3.74049120      -0.00877946       0.00463430       0.00388768
C        7.33610510       4.26710063       3.86361754      -0.00569030      -0.00613024       0.00083613
C        6.16430433       6.44089827       3.80804039       0.00058301       0.00917196       0.00330795
C        4.93302789       8.55823356       3.49447463      -0.00374276       0.00317304      -0.00133391
C       -0.01327887       1.40844773       3.65437449       0.00340904       0.00189596       0.00100767
C       -1.26995689       3.54397559       3.88814755       0.00123078      -0.00105225       0.00930372
C       -2.50104267       5.68568065       3.88463301       0.00842614      -0.00260888      -0.00882353
C       -3.70893567       7.80973984       3.66263130       0.00401823      -0.00722579      -0.00847444
C       -4.95073709       9.93578306       3.47729158      -0.01294672      -0.00645275      -0.00361104
C        2.46206501       1.32441553       3.46506238       0.00614997      -0.00948428       0.00706092
P        1.55193287       3.68366518       4.14629311      -0.00116904       0.01098954      -0.00334324
C       -0.05731022       5.70349910       4.12649529       0.00677249       0.00351479      -0.00241564
C       -1.23740314       7.81834398       3.81039113      -0.00215343      -0.00495279       0.00671366
C       -2.46330545       9.91870145       3.50251248      -0.00141114       0.00436875       0.00806158
C        4.92043542       1.39172668       3.54199108       0.00052640       0.00350757      -0.00116382
B        3.50427467       3.52490712       3.71275373       0.00092028      -0.00309838      -0.00032568
C        1.25823053       7.83158595       3.92061515       0.00347756       0.00773308      -0.00290076
C       -0.00580880       9.94911824       3.65187158       0.00063738      -0.00219268      -0.00633043
C        7.36891480       1.43237465       3.69013676      -0.00651322      -0.00370681       0.00677542
C        6.10026814       3.56594101       3.86105796      -0.00724114      -0.00529198      -0.00744520
C        4.92421739       5.78294611       3.93693401       0.00051326       0.00384972      -0.01009262
C        3.70889644       7.89626039       3.53018145      -0.00440470       0.00537530      -0.00446153
C        2.45579985       9.98084975       3.61992890       0.01282553       0.00071445      -0.00517411
C        9.84891516       1.43074192       3.68384703      -0.00734689      -0.00198669       0.00839597
C        8.58695139       3.55736651       3.82815028       0.00207807       0.00704298       0.00055301
C        7.37180115       5.69193582       3.83755016      -0.00164008      -0.00556890       0.00919486
C        6.16318173       7.83633184       3.60011192      -0.00230982       0.00906469       0.00352653
C        4.91946351       9.98013964       3.52231200      -0.00014126      -0.00392390      -0.00394428
Ta       3.17865020       5.18007631       5.02055664       0.00132419      -0.00645158      -0.00073648
