49
Lattice="12.336457 0.0 0.0 -6.168228499999997 10.683685154694365 0.0 0.0 0.0 15.0" Properties=species:S:1:pos:R:3:forces:R:3 energy=-434.0889002331096 free_energy=-434.0889002331096 stress="5.563696576518141e-05 -0.001144872107613086 -1.506643610135043e-05 -0.001144872107613086 -0.0055960932325988845 3.1103031571348807e-06 -1.506643610135043e-05 3.1103031571348807e-06 5.471915141642692e-07" pbc="T T T"
C       -0.00251227      -0.00231834       3.55378919      -0.00611706       0.00155788       0.00100569
C       -1.23497908       2.15305062       3.61318922      -0.00859621      -0.00927178      -0.00526638
C       -2.50727714       4.26656875       3.88306231       0.00599112       0.00100521       0.00219980
C       -3.73947838       6.39511674       3.96706621       0.01307343      -0.00794567       0.00603454
C       -4.95092644       8.52428655       3.77042902      -0.00280145       0.00643414      -0.00793922
C        2.46377165      -0.08539883       3.51450600      -0.00690748      -0.00187099      -0.00779818
C        1.26369835       2.04650513       3.36782378       0.00392688       0.00802804       0.00028309
C       -0.06431608       4.32786382       3.87126856      -0.01144530       0.00632451      -0.00652735
C       -1.28130197       6.40971001       4.09916365       0.00017371       0.00005420      -0.00554861
C       -2.47241826       8.51515831       3.84924180      -0.00165029      -0.00313621       0.00225571
C        4.93665143      -0.04692331       3.62572358      -0.00559066       0.00352856      -0.01047587
C        3.68473293       2.01695024       3.31388736       0.00126701       0.00372227       0.00257474
B        1.25784122       6.38461333       4.30826137       0.00759379      -0.00035193       0.00091521
C        0.00778075       8.52683809       3.91148210      -0.00129412      -0.00621978       0.00764644
C        7.39250227       0.00412940       3.68188415       0.01030345      -0.00942500       0.00522850
C        6.13499773       2.14456884       3.64487652      -0.00772342      -0.00203035      -0.00090177
C        4.80496608       4.32589117       3.82369640       0.00493907      -0.00546804      -0.00278602
O        3.75711554       6.49991577       3.49017656      -0.01056461       0.01268305       0.00443867
C        2.47571910       8.55170498       3.73244115      -0.00301062       0.00303944      -0.00255150
C        9.86093793       0.01524740       3.60303086       0.01046863      -0.00229951       0.00790864
C        8.61274300       2.14722723       3.70205440      -0.01228767       0.00556378       0.00062442
C        7.33407440       4.26961008       3.87233909       0.00567944      -0.00408834       0.00365278
C        6.14758345       6.43855139       4.00225184       0.01121174       0.00352881       0.00068032
C        4.94039286       8.56669062       3.64894620      -0.00389659       0.00648446      -0.00190894
C        0.00525039       1.43425602       3.50054329       0.00058780       0.00040391       0.00269038
C       -1.25798599       3.55868110       3.77410009      -0.00659317      -0.00341150      -0.00278932
C       -2.50804138       5.68658780       4.00277692       0.01056990      -0.00647970      -0.00001416
C       -3.71670036       7.81372433       3.88160438      -0.00000359      -0.00199999      -0.00318804
C       -4.94875011       9.93652487       3.60231432      -0.01124622       0.00732351      -0.00921138
C        2.46722230       1.32081159       3.34465968       0.00916400      -0.00560112      -0.00125565
S        1.51556481       3.78556568       3.31680024       0.00532920      -0.00681492       0.00619906
C       -0.05170626       5.68328729       4.16652578       0.00116389       0.01006721      -0.00824075
C       -1.23886050       7.81935779       3.98672333      -0.00218609      -0.00389381       0.00244316
C       -2.46385700       9.91610894       3.65362255      -0.00714669      -0.00120441      -0.00577314
C        4.92802752       1.37735049       3.50495776      -0.00491533       0.00269048      -0.00265824
B        3.57457754       3.48882865       3.34133706      -0.00560741       0.00044910       0.01347528
C        1.26194920       7.84305570       3.97564277      -0.00009262      -0.00351193       0.00585011
C       -0.00036979       9.94933227       3.74028187      -0.00047147      -0.00455008      -0.00588474
C        7.37760805       1.43441890       3.67047083      -0.00744189      -0.00386779       0.00355881
C        6.10584385       3.56357830       3.77284330       0.00045211       0.00023069      -0.00961156
C        4.89153899       5.76213972       4.01496091       0.00346164       0.00717914       0.00092163
C        3.71646632       7.90395326       3.62059472      -0.00704058       0.01299535      -0.00652401
C        2.46467427       9.98756365       3.66272805       0.01448824      -0.00638156      -0.00016368
C        9.86447342       1.44567122       3.63017850      -0.01322968      -0.00420697       0.00172645
C        8.58809224       3.56404782       3.81585276       0.00256001       0.00617604       0.00272832
C        7.35429972       5.69208757       3.96530246       0.01461184      -0.00743433       0.00944322
C        6.15731915       7.83731904       3.81196716      -0.00074105       0.00657814       0.00170187
C        4.92804571       9.98815072       3.59547180       0.00430632      -0.00240649       0.00695881
Ta       3.04041215       4.99058844       4.75186774       0.00727805      -0.00217572       0.00387286
