49
Lattice="12.336457 0.0 0.0 -6.168228499999997 10.683685154694365 0.0 0.0 0.0 15.0" Properties=species:S:1:pos:R:3:forces:R:3 energy=-442.12183476810213 free_energy=-442.12183476810213 stress="-0.0017957223817419792 0.0013548637452003404 -2.005407716217636e-07 0.0013548637452003404 -0.0024948191448891746 -6.418551559429266e-06 -2.005407716217636e-07 -6.418551559429266e-06 1.7163159388199181e-06" pbc="T T T"
C        0.01103682       0.00065741       3.58970822      -0.00598156      -0.00766054      -0.00760586
C       -1.21732049       2.14602584       3.66224822      -0.00429437      -0.00163246      -0.00173487
C       -2.45628635       4.27279356       3.79668445       0.01084112       0.00205197       0.00111525
C       -3.69583485       6.40718157       3.76092944      -0.00054123       0.00912164      -0.00467783
C       -4.93258609       8.54120154       3.66655227      -0.00052784       0.00840771       0.01595747
C        2.48415963       0.00677335       3.62089967       0.01306888      -0.00188725      -0.00054961
C        1.25274242       2.13295488       3.54450391      -0.00483486      -0.00396370      -0.00893837
C        0.02834472       4.26672613       3.91663654       0.00078694      -0.00225174      -0.00125435
C       -1.23734906       6.41823890       3.85165276       0.00625394       0.00560583       0.00349609
C       -2.46255095       8.54431389       3.69003218      -0.00035092      -0.00705447       0.00911279
C        4.93687238       0.00667484       3.66552065       0.00394967      -0.01407326      -0.00886352
C        3.73281695       2.11859723       3.79397228       0.00811440       0.00278652      -0.00212815
C        1.20829713       6.46609926       3.83398294      -0.00456232       0.00685285       0.00434994
C        0.00194067       8.55656070       3.67247451      -0.00247659       0.00426111       0.00451847
C        7.40917966       0.00770874       3.63781043       0.00229710       0.00156217      -0.00574451
C        6.18590514       2.12961679       3.73256746      -0.00221770      -0.00382451       0.00277561
C        4.97954455       4.23328416       3.92425797      -0.00883724       0.00140611       0.00652461
B        3.63189404       6.38516368       4.00413339      -0.00052897       0.00118375      -0.00130758
C        2.47447792       8.57832462       3.68260689      -0.00026263      -0.00024540      -0.00662561
C        9.88341187       0.01265717       3.61790614      -0.00126056       0.00562584       0.00531161
C        8.65005266       2.14142788       3.68813334      -0.00264957      -0.00006190       0.00014887
C        7.41298413       4.27127601       3.77366237       0.00110516      -0.00129817       0.00457194
C        6.16384898       6.39167787       3.78935122      -0.00716660      -0.00228550       0.00300422
C        4.94115586       8.54767853       3.69721489       0.00196160      -0.00472431       0.00462847
C        0.01651087       1.42421279       3.56992369      -0.00937365      -0.00882716      -0.00570846
C       -1.24108648       3.55361549       3.80160171       0.00694761      -0.00325184       0.00915136
C       -2.45820417       5.70285349       3.81308832       0.00564792       0.00875055      -0.00329852
C       -3.69635308       7.83151463       3.70517079      -0.00399916       0.00646495       0.00539484
C       -4.92225259       9.96996827       3.61207195       0.00479340       0.00523169      -0.00056117
C        2.50436491       1.44224552       3.63154209       0.00822526       0.00306898       0.00460819
C        1.19168046       3.52417813       3.62301407      -0.00213625      -0.00259018      -0.00684500
C        0.03035881       5.70390702       3.97551719       0.00140937      -0.00198473       0.00144281
C       -1.22778605       7.83081392       3.73731425       0.00075874       0.00357210       0.00256676
C       -2.46079875       9.97492491       3.65493261       0.00656748      -0.01416306       0.00270731
C        4.94775219       1.43189776       3.72127655       0.00343165      -0.01031500      -0.00392633
O        3.78492125       3.50721377       4.10605124      -0.00818004       0.00893540      -0.00468319
C        1.24446487       7.86974597       3.69527131      -0.00429838       0.00323808      -0.00263725
C        0.00336703       9.97668105       3.64843286       0.00441436      -0.00014442      -0.00663474
C        7.41019595       1.42933313       3.67452219      -0.00159798      -0.00086905       0.00130734
C        6.18826629       3.53837118       3.79776463      -0.00830149      -0.00091862      -0.00113485
C        4.93327749       5.63279396       3.90404586      -0.00950067      -0.00219902      -0.00245062
C        3.69453832       7.86325325       3.77386103       0.00057825      -0.00330920      -0.00430790
C        2.47690508       9.99585450       3.62707685       0.00226571       0.00392979      -0.00283774
C        9.88353200       1.43311232       3.64465177      -0.00357933       0.00532334      -0.00195149
C        8.64743697       3.56378299       3.74743162       0.00719022      -0.00046050       0.00101849
C        7.40331734       5.69218710       3.77349269      -0.00262701       0.00355479       0.00362199
C        6.16761645       7.81905817       3.71735220       0.00168577      -0.00057467       0.01579542
C        4.94593067       9.97471159       3.62387348      -0.00598702      -0.00470724      -0.00874666
Ta       2.02269972       4.90870367       4.76199652       0.00377937       0.00434273      -0.00797572
