49
Lattice="12.336457 0.0 0.0 -6.168228499999997 10.683685154694365 0.0 0.0 0.0 15.0" Properties=species:S:1:pos:R:3:forces:R:3 energy=-431.02750189572123 free_energy=-431.02750189572123 stress="-0.004385128837387538 0.0006413631007328489 2.369532928064087e-06 0.0006413631007328489 -0.009546010335983105 7.193295927411341e-06 2.369532928064087e-06 7.193295927411341e-06 6.609568801832509e-07" pbc="T T T"
C        0.01030403      -0.03434324       3.46635767      -0.00195017       0.00110917      -0.00846873
C       -1.20901690       2.13924170       3.45448979       0.00411667       0.00372988      -0.01105789
C       -2.43475242       4.26778146       3.74451636      -0.00337901       0.00422804       0.00831956
C       -3.67097855       6.40043672       3.85138069       0.00128453      -0.00535966       0.00196714
C       -4.93365710       8.51476580       3.73608979      -0.00611715       0.00091280       0.00516463
C        2.47389075      -0.10122150       3.29912502       0.01113682       0.00782416      -0.00037817
C        1.24805368       2.01718450       3.04263914      -0.00192821       0.00292598       0.00003291
C        0.02314938       4.28127490       3.84380065      -0.00483542       0.00385449       0.00844162
C       -1.23401257       6.42775641       4.04037626       0.00015684      -0.00608487      -0.00781031
C       -2.44635414       8.52273895       3.69328083      -0.00211457      -0.00117437       0.01053952
C        4.95141575      -0.02449711       3.44688857       0.00741752       0.00188339       0.01384630
C        3.69451981       2.00718539       3.25844633       0.00410095       0.00130256       0.00568919
B        1.26747946       6.57249849       4.41693018       0.00403770       0.01313104      -0.01071098
C        0.00752650       8.59354353       3.85751152      -0.00327894      -0.00838933      -0.00176308
C        7.41421327       0.03285261       3.59074685      -0.00459936       0.00293043      -0.01196462
C        6.17770895       2.14549190       3.51663219      -0.00616732      -0.01129656       0.01198613
C        5.01567583       4.31039853       3.93481910       0.00593002      -0.00233584      -0.00860691
S        3.57641810       6.36306899       4.96843493       0.00182295      -0.00667670       0.00486184
C        2.49286917       8.66201873       4.03457799       0.00850365      -0.00772616      -0.00042098
C        9.89819209       0.02947246       3.62077353      -0.00908129      -0.00465625      -0.00522200
C        8.65764465       2.15358694       3.55438557       0.00876832       0.00183708      -0.00331272
C        7.43180168       4.27572414       3.74073408      -0.00244001      -0.00518771       0.00400003
C        6.20607171       6.41943999       4.06721080      -0.00436640      -0.00027582      -0.00183926
C        4.94652781       8.56612166       3.99235054      -0.00146262       0.00825493       0.00137345
C        0.01267671       1.39041715       3.28593723      -0.00295351      -0.00162131      -0.01233999
C       -1.22534120       3.53364671       3.64754870      -0.00545180       0.00586434      -0.00527775
C       -2.43554554       5.69393649       3.88268049       0.00100083      -0.00274983       0.00676602
C       -3.68422921       7.81563761       3.76933460      -0.00489301      -0.00395172      -0.00071575
C       -4.93486541       9.91331135       3.48268160       0.00500560       0.00492436      -0.00175811
C        2.46887932       1.29813312       3.10693452       0.00250658       0.00774356      -0.00252616
P        1.43995736       3.81041230       2.75431181       0.00285780       0.00615711       0.00013032
C        0.00824083       5.69371049       4.22730892      -0.00711925       0.00754293      -0.00034526
C       -1.21489963       7.83887825       3.88087916      -0.00290330      -0.00746462       0.00120905
C       -2.44701732       9.92141185       3.46135867       0.01090389       0.00203982       0.00410213
C        4.95931478       1.39631607       3.39128101      -0.00203474      -0.00486367      -0.00666981
P        3.45032296       3.56522485       3.92978772      -0.00699163      -0.00484565      -0.00027200
C        1.25734678       7.98210749       4.11083885       0.00589491       0.00215094      -0.00832567
C        0.01322994       9.98954663       3.61220215       0.00132331      -0.00307948       0.01346039
C        7.41438851       1.44784617       3.52477008       0.00147411       0.00454255      -0.00535324
C        6.20227253       3.55947529       3.68811118       0.00171924      -0.01037222      -0.00261717
C        5.03364865       5.66013321       4.28014348      -0.00269822      -0.00264972      -0.00194927
C        3.69939559       7.96995299       4.28285647       0.00627828      -0.00459096       0.01511763
C        2.49136748      10.03868105       3.72516081      -0.00927195      -0.00560489      -0.00725705
C        9.89307382       1.44358761       3.51688235       0.00735281      -0.00247110       0.00426049
C        8.66518861       3.56933084       3.65714623      -0.00065562       0.00327984      -0.00281634
C        7.43175308       5.69470132       3.88050809      -0.00046208      -0.00357133      -0.00611636
C        6.17841120       7.83357577       3.97007084      -0.00898758       0.00249996       0.01102855
C        4.95236268       9.97476766       3.68790691      -0.00301413       0.01048564       0.01093654
Ta       1.68276989       4.60128491       5.02557932       0.00556399       0.00584477      -0.00733786
