49
Lattice="12.336457 0.0 0.0 -6.168228499999997 10.683685154694365 0.0 0.0 0.0 15.0" Properties=species:S:1:pos:R:3:forces:R:3 energy=-437.64087446250034 free_energy=-437.64087446250034 stress="-0.0004343066001585046 -0.0011302662895324074 -3.6099095474900767e-06 -0.0011302662895324074 -0.007714370400819355 -3.4484262630547746e-06 -3.6099095474900767e-06 -3.4484262630547746e-06 -4.854647593924941e-07" pbc="T T T"
C        0.00324990      -0.04303930       3.59747580      -0.00321826      -0.00177140      -0.00381656
C       -1.21262322       2.12577594       3.82642558       0.00347518       0.00493541       0.00318479
C       -2.42690370       4.25853543       3.92361858      -0.00797857       0.00002527      -0.00743495
C       -3.68145021       6.38919427       3.75436268       0.00072133       0.01065103       0.00263780
C       -4.91962859       8.51007015       3.61133580       0.00498251       0.00623613      -0.00514494
C        2.47918543      -0.08457984       3.46493655       0.00078390       0.00456753       0.00325713
C        1.24936786       2.02408745       3.57711706      -0.00271755      -0.00447400      -0.00236233
C        0.07869332       4.27792007       4.09320676      -0.00172383      -0.00508941       0.00488614
C       -1.22816237       6.41665507       3.68512536      -0.00377080      -0.00718709       0.00678001
C       -2.44306020       8.51071208       3.51062385       0.00924232       0.00285213      -0.00271822
C        4.95010146      -0.01578529       3.55432634       0.00236589      -0.00621602      -0.00156939
C        3.67670932       2.02060843       3.74625549      -0.00215420      -0.00008148       0.00245040
B        1.21681146       6.45862695       3.25926681       0.00018819       0.00326230      -0.00344103
C        0.01981067       8.56461454       3.39820554      -0.00429526       0.00017477      -0.00205509
C        7.41800446       0.01516444       3.63115347       0.00693932      -0.00656032       0.00607934
C        6.16569121       2.14500075       3.83117011      -0.00378311       0.00121967      -0.00949340
C        4.96069661       4.35188211       4.06439460      -0.00489975      -0.00552368      -0.00854437
N        3.73582817       6.46588599       4.13876930       0.00008880       0.00999861      -0.00284237
C        2.50820661       8.56101815       3.57466663      -0.00822730      -0.01272903       0.00292052
C        9.88636061       0.00222667       3.71742967      -0.00702631       0.00401212      -0.00254958
C        8.65017254       2.13827338       3.85155849      -0.00397006       0.00403055      -0.00805951
C        7.41344561       4.27085365       3.92086027       0.00792892       0.00260194       0.00394639
C        6.18687605       6.42890924       3.88136924       0.00435259      -0.00801990       0.00629360
C        4.95135432       8.52524076       3.73862267       0.00412938       0.00148612      -0.00507318
C        0.00075536       1.37777171       3.64637424       0.00058540      -0.00355347       0.00729603
C       -1.19658684       3.53700851       3.98700692      -0.00408910       0.00417356       0.00759302
C       -2.44308715       5.68678594       3.80032803      -0.00969455      -0.00159759       0.01362766
C       -3.67940805       7.80235353       3.61328868       0.00780621       0.01261375      -0.00030771
C       -4.93292931       9.91708893       3.52240976       0.00067168       0.00658654      -0.00294364
C        2.46804980       1.31186309       3.53898961      -0.00242859       0.00203517      -0.00259518
B        1.40008454       3.48928995       3.84299922       0.00709358      -0.00514882       0.01352049
C        0.01768055       5.70410950       3.82127194       0.00259008      -0.00330493      -0.00415089
C       -1.19904621       7.81588754       3.50002600       0.00247951      -0.00667282      -0.00347068
C       -2.44140490       9.92549761       3.48090569       0.00113726       0.00058979       0.00985162
C        4.94394644       1.40457455       3.71770432      -0.00430708      -0.00568302      -0.01355143
P        3.36264986       3.67590831       4.16641381       0.00166505       0.00687405       0.00275751
C        1.28247924       7.90484358       3.33653470      -0.01388597      -0.00364411       0.01363084
C        0.01702180       9.98203664       3.51348917       0.00628537      -0.00179873      -0.00047325
C        7.40640179       1.43515970       3.77622048      -0.00180953      -0.00046093      -0.00563898
C        6.16856307       3.57103724       3.94892614       0.00473714       0.00506711      -0.00527361
C        4.93261614       5.77226350       4.04726031      -0.00257192       0.00054625       0.01583816
C        3.71421894       7.80038607       3.81377217       0.00000925       0.00737497      -0.00361209
C        2.49181421       9.99080412       3.64302214       0.00081641      -0.01430198      -0.00437491
C        9.88690849       1.42511248       3.80250638      -0.00130606       0.00837128       0.00231417
C        8.65870664       3.55999914       3.91005030      -0.00153983       0.00067852      -0.00164266
C        7.41059110       5.69436433       3.86402725       0.00908995      -0.00032094       0.00096586
C        6.18070119       7.82397989       3.74723574       0.00604960      -0.00720125      -0.00962569
C        4.94119373       9.94237660       3.67840661      -0.00555233       0.00207987      -0.00633298
Ta       1.84673559       5.31019558       4.88327330       0.00473512      -0.00170351      -0.00073287
