50
Lattice="12.336457 0.0 0.0 -6.168228499999997 10.683685154694365 0.0 0.0 0.0 15.0" Properties=species:S:1:pos:R:3:forces:R:3 energy=-449.2469071596562 free_energy=-449.2469071596562 stress="-0.005526529382205424 0.0049125441709875674 4.239550771391179e-06 0.0049125441709875674 -0.0033992504285192343 -6.558464850424695e-06 4.239550771391179e-06 -6.558464850424695e-06 -3.9093522822191136e-06" pbc="T T T"
C        0.01451410       0.01281283       3.75359508      -0.00069948       0.00354362      -0.00178148
C       -1.19869546       2.16320220       3.81669221      -0.00012777      -0.00336856      -0.00025040
C       -2.43363347       4.28716880       3.77880179      -0.00293660       0.00477133       0.00314482
C       -3.69288426       6.42364168       3.67479980       0.00177962      -0.00401018       0.00008784
C       -4.95268119       8.54902475       3.70334664       0.00114348      -0.00064100      -0.00420377
C        2.47051699       0.01642399       3.55879101      -0.00371323       0.00111635      -0.00300279
C        1.27194080       2.15297488       3.71935293       0.00042252      -0.00830218      -0.00829385
C        0.01938197       4.32320715       4.12768988      -0.00113354       0.00476972      -0.00140814
C       -1.27698299       6.45924587       3.92942595       0.00103722      -0.00022735      -0.00069147
C       -2.48073217       8.57168449       3.64287853       0.01191749       0.00391309       0.00039888
C        4.94864202       0.00910402       3.44854007       0.00312955       0.00213714       0.00293524
C        3.74549315       2.12825055       3.34704344       0.00104203      -0.00023230      -0.01187072
B        2.64119461       4.35867030       3.61662575      -0.00466448      -0.00043050      -0.00863859
C        1.06444081       6.63190591       4.47099215      -0.00875317       0.00548811      -0.00236169
C       -0.02004679       8.60147712       3.79439776       0.00040544      -0.00578316       0.00267483
C        7.42737601       0.01282137       3.58086957      -0.00176623       0.00172026       0.00143153
C        6.23036088       2.11629885       3.32270493      -0.00448022      -0.00296752       0.00068327
C        5.04539603       4.22962992       3.38643236       0.00486340       0.00099334      -0.00119093
S        3.50497075       6.11898441       4.32259385      -0.00082056       0.00262328      -0.00570977
C        2.46102697       8.59824149       3.96882318      -0.00220589      -0.00307096       0.00287804
C        9.89793866       0.01711201       3.75411927       0.00107815      -0.00636215      -0.00030537
C        8.68552940       2.14320466       3.57671800       0.00375065       0.00464647      -0.00317175
C        7.47095788       4.27350287       3.48406238      -0.00565813      -0.00465999      -0.00078942
C        6.18534713       6.39500080       3.71130790      -0.00375292       0.00122756       0.00094695
C        4.91798997       8.52780025       3.88734871      -0.00443496       0.00550074      -0.00134782
C        0.03712486       1.44549198       3.77825282      -0.00197495      -0.00489102      -0.00190544
C       -1.22053233       3.57822662       3.91478793      -0.00326248       0.00086696       0.00345534
C       -2.46307767       5.71993020       3.78673315       0.00087431       0.00206366      -0.00383078
C       -3.71101249       7.84930392       3.66905301       0.00843664       0.00110120       0.00356319
C       -4.93125791       9.98167684       3.67742037      -0.00383585       0.00206686      -0.00057241
C        2.48536549       1.44459075       3.52555515       0.00248278      -0.00198115      -0.00325541
C        1.27683297       3.62618037       3.89838544       0.00567575      -0.00439715      -0.00947482
C       -0.03814977       5.76459798       4.24496986       0.00016018       0.01459194       0.01048875
C       -1.25219367       7.86872929       3.78120659       0.00417174      -0.00597735       0.00679737
C       -2.46705010       9.98928442       3.52839221       0.00285440       0.00656211       0.00559105
C        4.97934440       1.41485189       3.32777648       0.00091114      -0.00053490      -0.00770668
C        3.82664154       3.53637979       3.32962726       0.00568636      -0.00046055       0.00051146
C        1.19855555       7.94607745       4.07582723      -0.00343960       0.00065595       0.00656709
C        0.00942738       9.99680667       3.57572887      -0.00009969      -0.00462233       0.00405064
C        7.45362304       1.42178255       3.46243961      -0.00179704       0.00655769       0.00529316
C        6.27048199       3.53634683       3.32545302      -0.00182337      -0.00636498       0.00530308
C        5.02961047       5.59120328       3.73270389       0.00008373       0.00662259      -0.00418645
C        3.65942155       7.87440694       4.03970150      -0.00019665      -0.00654539      -0.00521919
C        2.48771097      10.00289509       3.75361798      -0.00121762      -0.00508496       0.00421211
C        9.91020884       1.44270463       3.71197792       0.00078648      -0.00638844       0.00380969
C        8.69289016       3.56683305       3.59293471      -0.00154553       0.00429023       0.00152277
C        7.43328931       5.69614347       3.60214213      -0.00050214      -0.00732942      -0.00220051
C        6.15379119       7.82213105       3.79237009      -0.00258066       0.00238708       0.00834565
C        4.94688298       9.97253814       3.81190392       0.00273637       0.00499214       0.00718806
Ta       1.60298866       4.96420158       5.39374500       0.00199335      -0.00057591       0.00148884
