50
Lattice="12.336457 0.0 0.0 -6.168228499999997 10.683685154694365 0.0 0.0 0.0 15.0" Properties=species:S:1:pos:R:3:forces:R:3 energy=-448.7906719650809 free_energy=-448.7906719650809 stress="0.0003489627217169311 -0.005593418405669438 -1.4075302562642028e-06 -0.005593418405669438 0.006858189684846327 -8.185726714813835e-06 -1.4075302562642028e-06 -8.185726714813835e-06 4.743724122152817e-06" pbc="T T T"
C        0.04661496       0.01869627       3.70352884      -0.00201979       0.00312665      -0.00761433
C       -1.21572328       2.12803275       3.56389703      -0.00350405      -0.01305107      -0.00653993
C       -2.46585772       4.29121816       3.56377950      -0.00056242       0.00241023      -0.00034171
C       -3.66153497       6.43890228       3.70367161       0.00616004       0.00173372       0.00768448
C       -4.86648958       8.58510013       3.76050886      -0.00459857       0.00185841      -0.00053409
C        2.52594242       0.05432911       3.78415954      -0.00816969      -0.00630572      -0.00269166
C        1.24842713       2.16858082       3.59661931       0.00257725      -0.00403280       0.00650560
C       -0.05353553       4.24221733       3.10709130      -0.00085018       0.00340423       0.00580428
C       -1.19997858       6.40631834       3.59924123       0.00748882      -0.01235652      -0.00013848
C       -2.39132805       8.56934121       3.78438528       0.00525427      -0.00998692      -0.00030185
C        4.98860170       0.02869198       3.85130863      -0.00048775       0.00812055       0.01766352
C        3.72440618       2.23670540       3.84455143      -0.00191193       0.00575411      -0.00416161
B        2.35784698       4.45115562       3.91941872      -0.00087765       0.00369294       0.00079776
B        1.33419595       6.22235874       3.92346899      -0.00464618      -0.00277911       0.00095160
C        0.09963085       8.51346200       3.84395806       0.00104392       0.00427516       0.01177914
C        7.44886463      -0.00138067       3.83483492       0.00621972       0.00850154       0.00227150
C        6.19296797       2.17460564       3.83433284       0.00455133      -0.00051484       0.00729358
C        4.95256429       4.36288890       3.82150096      -0.00444898       0.00062918      -0.00072175
O        3.84830863       6.49338493       3.68353904      -0.00797843      -0.00369445       0.00430529
C        2.55491977       8.51410554       3.82139077       0.00290642      -0.00036630      -0.00541360
C        9.90589987       0.00265159       3.74519312      -0.00257610      -0.00728229      -0.00413064
C        8.65345447       2.14489181       3.72714631      -0.00392290       0.00204311      -0.00997671
C        7.42379752       4.30113259       3.74886013      -0.00198281      -0.00079769      -0.00860587
C        6.22552002       6.45871148       3.76817234       0.00366649       0.00120856       0.00138861
C        5.00676133       8.57004875       3.76427511       0.00115180       0.00616581       0.00779729
C        0.02362892       1.44463589       3.60405695       0.00386205      -0.00451030      -0.01098447
C       -1.22913481       3.56278616       3.42039463       0.00406816       0.00182684       0.00526621
C       -2.43846963       5.70664413       3.60418282       0.00397915      -0.00030148      -0.00507996
C       -3.63225521       7.86389066       3.75115313       0.00097586      -0.00016522      -0.00176405
C       -4.87312847      10.01513855       3.74952759      -0.01133420      -0.00015679       0.00965767
C        2.50946882       1.48788195       3.76313484       0.00242692      -0.00371681      -0.01477143
C        1.18269865       3.57448331       3.42765734      -0.00560220      -0.01154407       0.00785768
C       -0.01518012       5.64497208       3.43502628       0.00076667       0.00367640      -0.00583352
C       -1.15808320       7.83828918       3.76326752       0.00697178      -0.01427644      -0.01101666
C       -2.40886730      10.00426652       3.82116454      -0.00039952      -0.00298126      -0.00560040
C        4.96062719       1.47488044       3.85744258       0.00301510       0.00932668       0.00546287
C        3.69869945       3.69591306       3.86025492      -0.00859897       0.00597920      -0.00193808
C        1.35048036       7.76079203       3.86155244      -0.00032299       0.00699073      -0.00554524
C        0.05864764       9.96445898       3.85920646       0.00639986       0.01239695      -0.01059486
C        7.42745877       1.43678388       3.81013674       0.00267540       0.00298445      -0.00798115
C        6.18338179       3.61385944       3.80897694      -0.00094380      -0.00219555      -0.00714228
C        5.01550045       5.77825540       3.77451850       0.00112473      -0.00214767       0.00661642
C        3.81242274       7.86201526       3.77348997       0.00082497      -0.00008136       0.00390663
C        2.52218819       9.95484351       3.80687663       0.00199323       0.00023486      -0.00124931
C        9.88632464       1.42700961       3.68236661      -0.00769659      -0.00960913      -0.00030005
C        8.64735148       3.57192886       3.68391851      -0.00303137       0.00301027      -0.00206239
C        7.44703428       5.72495438       3.74056687       0.00713665       0.00102896       0.00544176
C        6.24411143       7.87697430       3.75961184      -0.00311814       0.00337971       0.01612965
C        4.98265916       9.99510626       3.73660333       0.00019970       0.00503938       0.01323796
Ta       0.43643702       4.51779142       5.05673742       0.00214493       0.00405514      -0.00478342
