49
Lattice="12.336457 0.0 0.0 -6.168228499999997 10.683685154694365 0.0 0.0 0.0 15.0" Properties=species:S:1:pos:R:3:forces:R:3 energy=-437.0087270522547 free_energy=-437.0087270522547 stress="0.001710012771178801 0.0042905610537354024 1.2021722898832011e-05 0.0042905610537354024 -0.007814757153175866 1.526617004708165e-05 1.2021722898832011e-05 1.526617004708165e-05 -4.219688130046443e-07" pbc="T T T"
C        0.00098946      -0.02952227       3.53911919       0.00284739      -0.00656677       0.00574409
C       -1.17683054       2.16322429       3.79592756      -0.00637099       0.01435332       0.00466882
C       -2.39073542       4.27224779       4.00657543      -0.00300478      -0.00273711      -0.00133397
C       -3.68201607       6.38852124       3.85807123       0.00314394      -0.00106841       0.00347120
C       -4.95573618       8.49668519       3.59204046       0.00045264      -0.01420620       0.00516779
C        2.46919051      -0.07929203       3.55157094       0.00616758       0.00763650       0.00886039
C        1.27618350       2.03202076       3.58149435      -0.00403433       0.00266589       0.00152336
C        0.17170561       4.35701478       4.08505147      -0.00553644      -0.00418297       0.00121341
C       -1.22517746       6.44821577       3.92106037      -0.00002464      -0.00320278      -0.00065763
C       -2.47611127       8.52201269       3.67053823       0.00446123      -0.00258348      -0.00092308
C        4.93009763       0.00076196       3.68979705      -0.00769220      -0.00204667      -0.00639850
C        3.68351483       2.06062596       3.82338790       0.01048258      -0.00416498      -0.00338762
N        1.14197909       6.60385469       3.71623927       0.00560683       0.00214154       0.00890099
C       -0.03607655       8.59379636       3.55931247       0.00615724       0.01323427      -0.01280118
C        7.40812753       0.03406264       3.67179863      -0.00620221       0.00124707      -0.00166599
C        6.18374975       2.13039495       3.93689952       0.00178828      -0.01095253       0.00692704
C        4.90812940       4.24221942       4.06981049      -0.00221039       0.00840738      -0.01297562
S        3.55597022       6.18378484       3.06832543       0.00807751       0.00216744      -0.00426458
C        2.44539818       8.59759542       3.40700314       0.00091232       0.00748226       0.00069411
C        9.88754431       0.02728350       3.61154378      -0.00257951      -0.00130524      -0.00030555
C        8.67402265       2.14932130       3.88770432      -0.00242320      -0.00457128       0.00496264
C        7.42682184       4.25532690       4.01171363       0.00129075       0.00911753       0.00791166
C        6.18533599       6.38044347       3.74197970      -0.00128782       0.00920410       0.00139115
C        4.91662395       8.52136954       3.48074478      -0.00244906      -0.00578320      -0.00203244
C        0.01923252       1.39734428       3.60947297      -0.00677596       0.00525301       0.00926749
C       -1.13533173       3.58232507       3.98869007      -0.00088416       0.01009506      -0.00215926
C       -2.43167003       5.69817412       3.95727764      -0.00166491      -0.00617297       0.00248852
C       -3.70930764       7.80092378       3.70490168       0.00520701      -0.00749413      -0.00300040
C       -4.94545449       9.91776774       3.52689125       0.00977191      -0.01072471       0.01245895
C        2.48868580       1.32324679       3.61334257       0.00400706       0.00872502       0.00385414
B        1.49362396       3.47971818       3.81001594       0.01034054      -0.00586681      -0.00014878
C        0.04381448       5.81768129       4.05171563      -0.00183142      -0.00606954      -0.00560352
C       -1.23920629       7.84198338       3.71601619       0.00790092       0.00299966      -0.00292935
C       -2.46089959       9.93568383       3.61958894      -0.00040598      -0.00136242      -0.00559270
C        4.93968644       1.41614683       3.82450191       0.00443897      -0.00920003      -0.00509840
B        3.48824990       3.54947415       4.09682437      -0.01338657      -0.01332009       0.00512085
C        1.18397522       7.92620195       3.44052736       0.00372873       0.00288459      -0.01386225
C       -0.00548516      10.00748110       3.63064953      -0.00537741       0.01178817       0.00228586
C        7.42341055       1.44088385       3.84278322      -0.00028549      -0.00613897      -0.00400262
C        6.18059154       3.53723048       4.05503693      -0.00075248      -0.00191111      -0.00000893
C        4.99956740       5.60052278       3.75576493       0.00225598       0.01166210       0.00394771
C        3.65504012       7.88549489       3.36168285       0.00160379       0.00910691      -0.00922480
C        2.47234771      10.02013659       3.55838673      -0.00562270       0.00558024      -0.00493899
C        9.91191093       1.45217850       3.76922142      -0.00142229       0.00295289       0.00476485
C        8.68623579       3.56448194       3.99112574      -0.00137913      -0.00243226       0.00062538
C        7.42344683       5.67357983       3.89785893      -0.00114114       0.01223057      -0.00490504
C        6.14459272       7.78844203       3.57842260      -0.00631867      -0.00301529       0.00338841
C        4.93214881       9.96133756       3.53650864      -0.00120200      -0.00681792       0.00255227
Ta       1.99548656       5.20813900       4.73980223      -0.00837733      -0.01703764      -0.00396988
