49
Lattice="12.336457 0.0 0.0 -6.168228499999997 10.683685154694365 0.0 0.0 0.0 15.0" Properties=species:S:1:pos:R:3:forces:R:3 energy=-436.1540559781957 free_energy=-436.1540559781957 stress="-0.004706993438149383 -0.0025491814448010248 -1.1235748273234581e-05 -0.0025491814448010248 -0.010380839546898212 5.17102451888814e-06 -1.1235748273234581e-05 5.17102451888814e-06 -1.4389456341858882e-06" pbc="T T T"
C        0.00157553      -0.03047580       3.92341780       0.01211466      -0.00085398       0.00644631
C       -1.24164948       2.10757641       3.98430886       0.00276376       0.00612129       0.00030297
C       -2.44506775       4.26446017       3.95042090      -0.00151971       0.00334087       0.00583141
C       -3.65981004       6.40366971       3.90480660       0.00954417      -0.00249846       0.00029397
C       -4.90818625       8.53630381       3.91726179       0.00212299      -0.01254744       0.00118342
C        2.47645176      -0.02872692       3.78266874       0.00885838       0.00585407      -0.00239526
C        1.20049216       2.06401609       3.81769210      -0.00200597      -0.00414652       0.01314301
C        0.00393031       4.17702400       3.99822271       0.00022066      -0.00073455       0.00788718
C       -1.19885578       6.40069615       3.73349448      -0.01031650      -0.01091989      -0.00447410
C       -2.43652194       8.52826653       3.75396352       0.00484872       0.01211020      -0.00185647
C        4.93746729       0.00260948       3.63007236       0.00947113       0.00502899       0.00788730
C        3.66591894       2.09767813       3.45406789      -0.00343258      -0.00042938       0.00167293
P        1.42099970       6.31581158       2.54526459       0.00003034       0.01703267      -0.00815915
C        0.01426849       8.56047548       3.51520810      -0.00599174      -0.00243232       0.00965895
C        7.40027592       0.02314901       3.68483510      -0.00203859      -0.00798687       0.00140522
C        6.16919055       2.14573212       3.62701290       0.00111001      -0.00793764      -0.00447828
C        5.01919254       4.31883928       3.57340832      -0.01147370      -0.01233968      -0.00404694
B        3.64414504       6.41111910       3.79143649      -0.01401832      -0.00973171      -0.00558281
C        2.48686743       8.60827851       3.60502481       0.00179216       0.00067269      -0.00035706
C        9.87154650       0.00586112       3.87202725      -0.00712312       0.00279815      -0.01075268
C        8.63275863       2.13987285       3.85875393       0.00408279       0.00384190       0.01502233
C        7.43296645       4.27564933       3.84193241      -0.00245346       0.00207136      -0.00334298
C        6.21343159       6.42127934       3.91403339       0.00226795      -0.00030715      -0.01845888
C        4.95395933       8.55025384       3.87380106      -0.01045379       0.01301697      -0.00467029
C       -0.02276917       1.38050882       3.92282237      -0.00046988       0.00000143       0.00014045
C       -1.24070906       3.51805601       4.01198907      -0.00199702       0.00576035       0.01181301
C       -2.42022918       5.69327668       3.88340623      -0.00394858      -0.00983502      -0.00810719
C       -3.66718740       7.82434733       3.87188674       0.01021674      -0.00122157       0.00041657
C       -4.92074985       9.95147634       3.89052298       0.01318436      -0.00817647      -0.00280751
C        2.45851773       1.38787589       3.67983676      -0.00177274       0.00400489       0.01032443
N        1.16745682       3.40799488       3.95386380       0.00458490      -0.00111698       0.00412460
C        0.06342783       5.60979042       3.67824083      -0.00251673       0.00254403      -0.00134804
C       -1.20054654       7.81401338       3.64226638      -0.00833931      -0.00639022       0.00193404
C       -2.45153928       9.95298246       3.71660184       0.01129275       0.01480088      -0.00337430
C        4.92636329       1.43441269       3.55658143      -0.00158039      -0.00510086       0.00154294
P        3.52473825       3.75755541       2.86416834      -0.00688904       0.00049210       0.00750141
C        1.27159242       7.92125396       3.36400783      -0.00285680       0.00344365       0.00760826
C        0.00429171       9.98476637       3.60914675       0.00099443      -0.00443394       0.00429598
C        7.39705075       1.44024239       3.73202494       0.00595777      -0.00501863      -0.00340212
C        6.20966562       3.55966400       3.67759045      -0.00783413      -0.00563666      -0.00018023
C        4.98548178       5.70281646       3.80603841      -0.00007952      -0.00467665      -0.01443286
C        3.70264026       7.89496344       3.74377332      -0.00080750      -0.00050547      -0.01075966
C        2.46802550      10.01510494       3.73609344      -0.00485791      -0.00465647      -0.00775338
C        9.86182545       1.42003926       3.92416925       0.00290856       0.00108210       0.00629522
C        8.65334364       3.56132295       3.89672614      -0.00073609       0.00672554       0.00602367
C        7.44117342       5.69964781       3.91036361       0.01104415       0.00041982      -0.00813536
C        6.19597294       7.83554806       3.92926204      -0.00990990       0.00108043      -0.00827607
C        4.93806224       9.96330716       3.90870135      -0.00034606       0.01337403      -0.00114374
Ta       1.87614725       5.14816270       4.49149917       0.00635770       0.00401614       0.00553981
