49
Lattice="12.336457 0.0 0.0 -6.168228499999997 10.683685154694365 0.0 0.0 0.0 15.0" Properties=species:S:1:pos:R:3:forces:R:3 energy=-431.3692941229484 free_energy=-431.3692941229484 stress="-0.004293344917334229 -0.002023697454350709 4.911754130038909e-06 -0.002023697454350709 -0.01153462964489345 9.858882580964847e-06 4.911754130038909e-06 9.858882580964847e-06 4.735630733550969e-06" pbc="T T T"
C       -0.01305934      -0.00390754       3.57695500      -0.00222047       0.00719080       0.00047611
C       -1.25426262       2.13468081       3.83262284      -0.00282754      -0.00307405       0.00213921
C       -2.50176755       4.27331659       3.88420286       0.00717246      -0.00418364       0.00198009
C       -3.71699566       6.40657526       3.79286331      -0.00316161      -0.00203628       0.00761666
C       -4.94419922       8.53079943       3.63255917       0.00171043       0.00809463       0.00071348
C        2.45519832      -0.05817928       3.55868985      -0.01122085      -0.00027390       0.00862342
C        1.23077262       2.00059028       4.00995711      -0.00131654      -0.00156737      -0.01431953
C       -0.13282466       4.25734368       4.41815192       0.00112050      -0.00036454       0.00635722
C       -1.24613434       6.40777720       3.98582070       0.00311565      -0.00641224       0.00025169
C       -2.46185149       8.52020860       3.68097888       0.00160540       0.00613894       0.00329481
C        4.92051556      -0.01147317       3.50467056      -0.00300801      -0.00463765       0.01086213
C        3.64564208       2.07043044       3.43911355       0.00387358       0.00406001       0.01409391
P        1.59220877       6.27695606       4.34515918       0.00025349       0.00718674      -0.01555060
C        0.00030834       8.56113446       3.76465207      -0.00735515      -0.00889817      -0.00362990
C        7.37416465       0.04204422       3.48880298       0.00603374      -0.00369450      -0.00291433
C        6.13687924       2.15273132       3.45615745      -0.00106433       0.00452023       0.00525151
C        4.91948802       4.30416833       3.66331068      -0.00017379       0.01467902      -0.00076577
B        3.55720220       6.51217815       3.93437076       0.00118596      -0.00557240      -0.00263901
C        2.45942473       8.65695915       3.60122214      -0.00370993      -0.00649303      -0.00236065
C        9.86357027       0.04778715       3.47999660       0.00954058       0.00473649      -0.00559351
C        8.61189148       2.16271096       3.58820876      -0.00116265       0.00206176       0.00203310
C        7.37342800       4.28254965       3.70417776      -0.00108166      -0.00414949      -0.00635767
C        6.16265018       6.44203637       3.83992743      -0.00362008      -0.00114339      -0.00482962
C        4.93306692       8.58618083       3.55268603       0.00756247       0.01107785      -0.01206619
C       -0.02774067       1.40355235       3.78520131      -0.00384333      -0.00267721      -0.00212751
C       -1.28918367       3.53451834       4.04599707       0.00294542      -0.00334455       0.00772284
C       -2.48281794       5.69895926       3.89249892       0.00391296      -0.00390599       0.00051411
C       -3.70603784       7.82143853       3.70555560       0.00337427       0.00311199       0.00377040
C       -4.94963659       9.94535204       3.57352902      -0.01217964       0.00757492       0.00215128
C        2.43484278       1.35945688       3.62686944       0.00175379      -0.00261326       0.00447071
S        1.27512015       3.40811406       4.99042583      -0.01499969       0.00088388       0.00213723
C       -0.05498670       5.64018630       4.26550585       0.00081463      -0.00545864       0.00102834
C       -1.22686383       7.82191636       3.81677482      -0.00392474       0.00025422       0.01399571
C       -2.46949499       9.93625832       3.55735244      -0.00862479       0.00352488       0.00238489
C        4.90786587       1.41630413       3.41735486       0.00096471      -0.00132062       0.01651679
P        3.44138258       3.72124587       2.75953459       0.00640675      -0.00198205       0.00164105
C        1.26588383       7.94137014       3.87231303      -0.00894559      -0.01017469      -0.00740914
C       -0.01372763       9.98370144       3.56925212       0.00156036      -0.00767179      -0.00094422
C        7.37624682       1.45635253       3.48448866      -0.00140800       0.00282521      -0.01015987
C        6.16366259       3.55412032       3.57747918      -0.00096567       0.00631070      -0.00350486
C        4.90649547       5.72713398       3.96739469      -0.00538122      -0.00705067      -0.00962232
C        3.67989840       7.95366823       3.59740589       0.00664792       0.00460708      -0.00328917
C        2.45060968      10.05065387       3.47251404       0.01001787      -0.00462889      -0.00854492
C        9.85936606       1.45844446       3.60259965      -0.00158700       0.00050996       0.00868846
C        8.60522098       3.57458592       3.71397892       0.00177390      -0.00036041      -0.00776220
C        7.37503971       5.70925911       3.79115313      -0.00563763      -0.00525867       0.00315396
C        6.15679865       7.84534236       3.67834171       0.00432480       0.00271056      -0.00622298
C        4.92423256      10.00038595       3.49644200       0.00571723       0.01019243      -0.00409167
Ta       3.30990056       4.66062944       4.95949922       0.01603104      -0.00330424       0.00283654
