49
Lattice="12.336457 0.0 0.0 -6.168228499999997 10.683685154694365 0.0 0.0 0.0 15.0" Properties=species:S:1:pos:R:3:forces:R:3 energy=-439.1760193915136 free_energy=-439.1760193915136 stress="0.0017912817032023117 0.00017749296345555052 2.6112561851786796e-06 0.00017749296345555052 -0.0046673518304203325 -2.5873429716979872e-06 2.6112561851786796e-06 -2.5873429716979872e-06 1.25918916005431e-06" pbc="T T T"
C        0.00374719      -0.02532039       3.58959547       0.00509115      -0.00664675      -0.00197701
C       -1.21484753       2.13538945       3.72712289      -0.01688805      -0.00447926       0.00082282
C       -2.42599487       4.27687898       3.93064451      -0.00557712       0.00216732       0.00816803
C       -3.66833556       6.40636986       3.88408884      -0.00499728       0.00592297      -0.00592708
C       -4.94016771       8.52426670       3.69114793       0.00307164       0.00283875       0.00016180
C        2.47722737      -0.00330683       3.74057678      -0.00709074      -0.00773480       0.00567601
C        1.22697452       2.07212347       3.67258263       0.00372544      -0.00006521       0.00854257
C        0.04899768       4.19004151       4.00449678       0.00573398       0.00124694       0.00104643
C       -1.18008599       6.41525000       3.87910428       0.00967571      -0.00399286       0.00311425
C       -2.45046825       8.54075636       3.76690712      -0.00070880       0.00014689      -0.00414627
C        4.92856880       0.03353886       3.77474550      -0.00886196       0.00206658      -0.01117843
C        3.69962352       2.18324625       4.00059094       0.00047936       0.00628945      -0.00598543
B        1.33360777       6.51068604       3.39480549       0.00363595      -0.00391094      -0.00316037
C       -0.00753504       8.60183472       3.52912016       0.00332813      -0.00828650      -0.00425244
C        7.39810409       0.05054192       3.59996632       0.00407322       0.00985298       0.00595025
C        6.17844979       2.14255289       3.94669022       0.00723409       0.00055181       0.00897909
C        4.95531383       4.22660542       4.11512667      -0.00690803      -0.00542962      -0.00910012
S        3.43560566       6.16754498       3.14386280      -0.00622389       0.00384141      -0.01187371
C        2.46357596       8.64804311       3.26442365       0.00113109      -0.00211874       0.00691572
C        9.88455550       0.03120345       3.52497268       0.00229830       0.00266345       0.00198809
C        8.65490586       2.15541834       3.81152922      -0.00510223       0.00330037      -0.01358985
C        7.42811351       4.27669954       3.99053051       0.00222586      -0.01405271      -0.00273099
C        6.16437671       6.39100572       3.80361349       0.00012070       0.00544308       0.00608824
C        4.92225426       8.52565184       3.45666503       0.00188305       0.00583426      -0.00241150
C       -0.00485955       1.39309964       3.62790100      -0.00309207      -0.00411101      -0.00267838
C       -1.21025696       3.53739426       3.89570299      -0.00520269      -0.00034880       0.01217342
C       -2.41175238       5.70643798       3.92676767      -0.00001584       0.00724174       0.00221987
C       -3.68741691       7.82496323       3.79209859       0.00029487       0.00484164      -0.00779765
C       -4.92732383       9.95492507       3.65455074       0.00064143      -0.00907157       0.01472458
C        2.48078604       1.42764796       3.79834821       0.00412156      -0.00560711      -0.00117327
N        1.19785785       3.42243539       3.79386706       0.00565174      -0.00259320       0.00759556
C        0.13055546       5.65192430       3.94155794       0.01531455      -0.00164031       0.00264590
C       -1.20722595       7.83194777       3.73151934       0.00236004      -0.00615503       0.00270081
C       -2.45963481       9.97234347       3.76364444      -0.00992486      -0.00192590      -0.00618568
C        4.93588684       1.45100647       3.91101896       0.00305637       0.00651055       0.00083501
N        3.75524302       3.54562561       4.21473688      -0.01734775       0.00818018       0.00020630
C        1.23091782       7.96523561       3.28342499       0.00432889      -0.00842075      -0.00314478
C       -0.00775191      10.02163847       3.62458443      -0.00064325       0.00133806       0.00112077
C        7.41200428       1.45066594       3.79204442       0.00421787       0.00915685       0.00383558
C        6.20676124       3.54387223       4.06008586      -0.00104113      -0.00678849       0.00053050
C        4.96133148       5.61200287       3.87253510       0.00775267      -0.00810368       0.00630758
C        3.66515994       7.91133593       3.27101896       0.00158501       0.00626081       0.00324092
C        2.47076571      10.05180952       3.43590520       0.00579575       0.00296997       0.00492341
C        9.88600572       1.44481440       3.68487142      -0.01571246       0.00083043      -0.00281813
C        8.66944882       3.57214455       3.92710633       0.00229893      -0.00671044      -0.00886277
C        7.42215217       5.69789883       3.91880817      -0.00426649      -0.00605771       0.00413740
C        6.15602997       7.80566355       3.63201106       0.00128773       0.01245943      -0.00652822
C        4.93345656       9.96370339       3.50816846       0.00210718       0.00300867      -0.00267495
Ta       1.96268562       4.94099047       4.64953143       0.00508239       0.00928680      -0.00645393
