49
Lattice="12.336457 0.0 0.0 -6.168228499999997 10.683685154694365 0.0 0.0 0.0 15.0" Properties=species:S:1:pos:R:3:forces:R:3 energy=-436.7817722230296 free_energy=-436.7817722230296 stress="-0.0020423222444473253 0.0007783643485787738 -6.179333936527019e-06 0.0007783643485787738 -0.007475093363335547 8.240758267977778e-06 -6.179333936527019e-06 8.240758267977778e-06 2.561233714049518e-06" pbc="T T T"
C       -0.01604118       0.00141649       3.65020048       0.00038046       0.00318358      -0.00610340
C       -1.26032966       2.13046311       3.85371539       0.00534440       0.00000913      -0.00109418
C       -2.51093208       4.27672672       3.78751135      -0.00893356       0.00403652       0.00316759
C       -3.73790215       6.40696634       3.69552911      -0.00039373      -0.00173370       0.00093914
C       -4.96248576       8.53236952       3.60532897       0.00387316      -0.00514239      -0.00474439
C        2.45239789      -0.02321187       3.67304405      -0.00576409       0.00543371      -0.00316353
C        1.22961052       2.03352211       4.19502715       0.00148788       0.00473549       0.00670122
C       -0.13374654       4.28353803       4.27643395       0.00466412       0.00044517      -0.00383895
C       -1.25708729       6.41215157       3.77865702      -0.00991971       0.00735082       0.00032133
C       -2.48188575       8.53323013       3.59748280       0.00378932      -0.00427539       0.00071714
C        4.91660781      -0.00850627       3.52096221      -0.00453308      -0.00229649      -0.00160678
C        3.70500309       2.09575484       3.82872799      -0.00018723      -0.00271270       0.00249018
P        1.58173067       6.29828179       4.14558828       0.00202285      -0.00205247      -0.00053476
C       -0.01026079       8.55695231       3.56264111       0.00038176       0.00202117      -0.00020906
C        7.37679001       0.03354511       3.38567516       0.00593544      -0.00878072      -0.00574845
C        6.14619421       2.13211260       3.58300046      -0.00047142       0.00653881      -0.00622016
C        4.93030900       4.18644365       4.01055278       0.00185126      -0.00568624       0.00582424
B        3.52541893       6.45395848       3.65578561      -0.00564605      -0.00695569      -0.00059555
C        2.45862579       8.63946978       3.34660927      -0.00147238       0.00671636       0.00772418
C        9.86548987       0.04358785       3.41465340       0.00709331       0.00424407       0.00182507
C        8.61659352       2.15558110       3.56164164       0.00100751      -0.01035868       0.00973329
C        7.36595099       4.27574262       3.71414245       0.00366553       0.00422377      -0.00693265
C        6.11724437       6.40933508       3.76646327       0.00314653      -0.00216587      -0.00634073
C        4.92205848       8.57295151       3.42919483      -0.00999490       0.00645795      -0.00366144
C       -0.01965946       1.40816516       3.90563071       0.00487898       0.00250807      -0.00510509
C       -1.30214372       3.54366429       3.98086777      -0.00533518       0.00256530      -0.00014554
C       -2.50004336       5.70126928       3.75035937      -0.00746748       0.00412874       0.00329736
C       -3.72571257       7.82550263       3.63345976       0.00642291      -0.00550459       0.00362127
C       -4.95530319       9.95684166       3.63029110      -0.00187167      -0.00042019      -0.00134127
C        2.45583182       1.38516409       3.89057390      -0.00079132       0.00711046       0.00139146
P        1.26375202       3.56504396       5.05428606       0.00410075      -0.00639578       0.00595782
C       -0.05913780       5.65859135       4.00658617      -0.00415084       0.00624996      -0.00101751
C       -1.24520947       7.82813552       3.64233508       0.00234097       0.00375752       0.00801237
C       -2.48365396       9.95543073       3.57585752      -0.00776018      -0.00322668      -0.00628019
C        4.92109903       1.41145763       3.59616264      -0.00004105       0.00049180       0.00027901
N        3.75644563       3.43323927       4.09010660       0.00134707      -0.00569616      -0.00102738
C        1.25579170       7.93413638       3.60252503      -0.00176327      -0.00122545      -0.01116223
C       -0.01699682       9.98197458       3.45386310      -0.00087760      -0.00248871      -0.00253709
C        7.38149589       1.44676682       3.47590314      -0.00140289      -0.00816500      -0.00393090
C        6.15059425       3.53626603       3.73984213       0.00345320       0.00803035      -0.00625162
C        4.84832776       5.65232920       3.95651520       0.00557396      -0.00561531      -0.00539121
C        3.67475471       7.91898183       3.34094895      -0.00950825       0.00272170       0.01715923
C        2.45484224      10.04367908       3.31274445       0.01076275       0.00275663       0.00529828
C        9.85879541       1.44955033       3.58458375       0.00595499      -0.00234262       0.01005052
C        8.60122785       3.57145688       3.67250004      -0.00307371      -0.00576665       0.00617394
C        7.34988142       5.70294892       3.74079196       0.00561633      -0.00029257       0.00356706
C        6.13452720       7.82366535       3.60234951      -0.00505519       0.00215464       0.00172142
C        4.92661653       9.99886383       3.46454092      -0.00012734       0.00686439      -0.00611061
Ta       3.31191626       5.01304169       5.21252599       0.00144663      -0.00543608      -0.00487845
