49
Lattice="12.336457 0.0 0.0 -6.168228499999997 10.683685154694365 0.0 0.0 0.0 15.0" Properties=species:S:1:pos:R:3:forces:R:3 energy=-432.5282875636368 free_energy=-432.5282875636368 stress="-0.003522604134714529 0.0007156654208316399 2.2183418921303975e-05 0.0007156654208316399 -0.010599376036722858 -6.009702316943041e-06 2.2183418921303975e-05 -6.009702316943041e-06 6.097849195551751e-06" pbc="T T T"
C        0.01168347      -0.03033404       3.48684353       0.00103895       0.00134000       0.01623120
C       -1.20571051       2.14823024       3.45629548       0.00180134      -0.00756092      -0.00019209
C       -2.43060774       4.27556413       3.76286497      -0.00503697      -0.01054616       0.00070268
C       -3.67045374       6.40230636       3.89152994       0.00527996       0.00587134      -0.00694626
C       -4.92693673       8.52053823       3.76716332       0.00223600       0.00708330       0.00880030
C        2.47771833      -0.10400818       3.32314846       0.00134704       0.00236431       0.00195085
C        1.25091729       2.01201682       3.03745663      -0.00005424      -0.00178547      -0.01003029
C        0.02952543       4.29568494       3.79094873       0.01136713       0.00683051      -0.00670641
C       -1.21522716       6.42782235       4.05489614      -0.00893782       0.00032103      -0.00347729
C       -2.44311481       8.52302743       3.72653428      -0.00213445      -0.01187037       0.00958259
C        4.95594686      -0.02599410       3.47002333      -0.00428196      -0.00416899       0.00844349
C        3.69534877       1.99911960       3.28541094       0.00208467      -0.00006324      -0.01408582
B        1.35074111       6.53771411       4.37621543      -0.00839259      -0.00129934      -0.00617201
C        0.01116514       8.59228528       3.85090101       0.00559588       0.00412697       0.00549082
C        7.41554014       0.04022410       3.60357929       0.00519575       0.01047934       0.01035948
C        6.18041254       2.14487862       3.52388976       0.00166856       0.00505031       0.00313589
C        5.01278435       4.30472147       3.85494896      -0.00092779      -0.01433937       0.00312583
P        3.41299483       6.28140289       4.70208728      -0.01749539       0.00551879       0.00620493
C        2.48806271       8.68096222       4.03103709      -0.00535403       0.00476368      -0.01033380
C        9.90124932       0.04306631       3.65190048      -0.00044784      -0.00488030      -0.00545975
C        8.65935845       2.16260527       3.56939897       0.00206036      -0.00899647      -0.00199985
C        7.43227870       4.28183003       3.74570328      -0.00070253       0.00258127       0.01598808
C        6.20059458       6.42113542       4.05126862       0.00808897       0.00067573       0.00008902
C        4.94980799       8.57941243       4.01225011      -0.00161691      -0.00100415       0.00576978
C        0.01440790       1.39313854       3.28879463       0.00345498      -0.00425819       0.00357937
C       -1.21729151       3.54735997       3.63696270       0.00590926      -0.00560852       0.00765756
C       -2.42761803       5.69968215       3.91684146      -0.00571638      -0.00490565      -0.00704039
C       -3.68197521       7.81821744       3.80943333      -0.00285215      -0.00017746      -0.01561207
C       -4.93153947       9.91475299       3.50878212       0.00225790       0.00474997       0.00334154
C        2.47251265       1.29206097       3.12146386      -0.00153413       0.00117080       0.00301531
P        1.45172344       3.79400417       2.71285693       0.00811727       0.00709979      -0.00134950
C        0.03665879       5.69525859       4.20387263      -0.01208856       0.01193457       0.00535910
C       -1.21122602       7.83961279       3.89434872       0.00305410      -0.00087525       0.00732197
C       -2.44249852       9.92053964       3.49088710      -0.00322868      -0.01505298      -0.00439389
C        4.96049402       1.39466342       3.41047281       0.00026728       0.00213843      -0.00623911
P        3.44494925       3.56186515       3.95265636       0.00562771       0.00815493      -0.00555715
C        1.25949824       7.98015998       4.07036634      -0.00179149       0.00008763      -0.00182498
C        0.01758766       9.99036372       3.62432397       0.00511670       0.00830701       0.00143378
C        7.41664871       1.45374526       3.53620880       0.00363420       0.00468867       0.00446970
C        6.20126817       3.56089495       3.67075848       0.00137119      -0.00056432      -0.00119850
C        5.00104210       5.66723091       4.18132137       0.00091851       0.00450797       0.00313562
C        3.69794469       7.97778588       4.27427727      -0.00928603       0.00292737      -0.00836558
C        2.49062015      10.05429537       3.74682946       0.00008563       0.00140974      -0.01342014
C        9.89637895       1.45406618       3.53687995       0.00109332      -0.00984429      -0.00542714
C        8.66665871       3.57790781       3.67358442      -0.00848998      -0.00945286      -0.00118506
C        7.42882612       5.69885569       3.89617761       0.00993343       0.00659890       0.00378927
C        6.18204026       7.83947492       3.97969973       0.00348068       0.00288462       0.00405797
C        4.95601954       9.98704106       3.72122844      -0.00137791      -0.00215415       0.00444269
Ta       1.65018343       4.55135964       5.06939503      -0.00033892      -0.00425853      -0.01046176
