50
Lattice="12.336457 0.0 0.0 -6.168228499999997 10.683685154694365 0.0 0.0 0.0 15.0" Properties=species:S:1:pos:R:3:forces:R:3 energy=-451.0126050660061 free_energy=-451.0126050660061 stress="0.005507644145748271 -0.0026422516927277983 -5.018630087725293e-06 -0.0026422516927277983 0.00869616546089661 -1.0792760691540519e-05 -5.018630087725293e-06 -1.0792760691540519e-05 -7.799812472447364e-06" pbc="T T T"
C        0.02051482       0.00640867       3.82095659       0.00278281       0.00220931       0.00941048
C       -1.23614856       2.12705366       3.92959123       0.00070668       0.00575585       0.00517832
C       -2.47494294       4.27256767       3.94295749       0.00266797       0.00063175       0.00185351
C       -3.68315786       6.42218432       3.84431423      -0.00092954       0.00170260      -0.00419497
C       -4.89914503       8.56554941       3.81895628      -0.00831277      -0.00123566       0.00567976
C        2.49611060       0.02488084       3.62112830       0.00762463      -0.00442607      -0.00110224
C        1.25578649       2.13100624       3.73970285      -0.00262762      -0.01219296       0.00214944
C       -0.01783485       4.26130399       4.04956435       0.00739326      -0.01026310      -0.00204820
C       -1.22725717       6.43077604       3.75735166       0.00265644      -0.00125423      -0.00019692
C       -2.43038714       8.55737699       3.62988289      -0.00297057       0.00716349      -0.00293630
C        4.96242337       0.01441795       3.49109446       0.00179666       0.01126753      -0.00067689
C        3.70285673       2.21179287       3.44214670       0.00073047      -0.00228678       0.00520866
B        2.34004230       4.53888890       3.17158928      -0.01067310      -0.00610882      -0.00977549
B        1.39831870       6.16627308       3.17646461       0.00265701      -0.00959761      -0.00776547
C        0.06575680       8.50860770       3.44729984      -0.00108172       0.00361308      -0.00476145
C        7.42527061      -0.01087210       3.59665269      -0.00264199       0.00007323      -0.01219458
C        6.17205876       2.16049940       3.59954462       0.00057727      -0.00449008      -0.00560069
C        4.90870068       4.32889816       3.68311979      -0.00085656       0.00200877      -0.00392508
N        3.75446171       6.44056625       4.22774319       0.00309666       0.00109589      -0.01009019
C        2.50268099       8.49432069       3.67488812       0.00701316      -0.00192417       0.00007743
C        9.87612962      -0.01725826       3.81294070      -0.00079576       0.00018266       0.00088017
C        8.63419248       2.13349986       3.80369532       0.00030459       0.00606811       0.01726617
C        7.39263778       4.28461545       3.83140140      -0.00842767       0.00302353      -0.00692801
C        6.18047426       6.43628342       3.94215429      -0.00443001       0.00140053      -0.01917351
C        4.96447467       8.54109189       3.92759748      -0.00168357      -0.00244532      -0.00631831
C        0.01793796       1.42670526       3.83907139      -0.00175328       0.00066353       0.00145590
C       -1.26246180       3.54195602       4.03148668       0.00197337      -0.00034978       0.00631429
C       -2.45481137       5.70982618       3.86123912       0.00074169      -0.00082643      -0.00881123
C       -3.66593266       7.84969826       3.76590744      -0.00419388       0.00467149       0.00784946
C       -4.90252062       9.99144389       3.75454491       0.00130375      -0.00241772      -0.00190603
C        2.48659275       1.45974118       3.57308258       0.00280866      -0.01015514       0.00647646
C        1.23815024       3.58327498       3.80116294      -0.00806991      -0.01342294      -0.00319391
C        0.02195330       5.68940480       3.81147637      -0.00027228      -0.00532805       0.00148622
C       -1.19330154       7.83177722       3.58538351      -0.00180212       0.00241111       0.00382284
C       -2.43900963       9.98631434       3.55767845       0.00834719       0.00656797       0.00445928
C        4.93870019       1.46043367       3.48767613      -0.00042681       0.00403112       0.00029696
C        3.68693828       3.67732867       3.40083446       0.00575476      -0.00539056      -0.00161378
C        1.32611743       7.76259844       3.39957932       0.00392606       0.00003741       0.00377462
C        0.03411445       9.95444710       3.48877200      -0.00552647       0.00564338       0.00181922
C        7.40700566       1.42585397       3.66463814       0.00428937      -0.00025960      -0.00887079
C        6.15664311       3.59056183       3.70565578      -0.00617650      -0.00564777       0.00179434
C        4.90928087       5.75166577       3.96666515       0.00493102       0.00071402       0.00539594
C        3.73542588       7.78337708       3.95834884       0.00669651       0.00277600       0.00280162
C        2.48783276       9.94382990       3.69535613      -0.00272346      -0.00099678       0.00234817
C        9.87031271       1.41228226       3.85421690       0.00116119       0.00457068       0.00834429
C        8.62785861       3.56433023       3.86563665      -0.00464925       0.00833929       0.01087375
C        7.40414233       5.71503083       3.88437261      -0.00291087       0.00267331      -0.01109417
C        6.19931435       7.85073316       3.92578162      -0.00519911      -0.00132668       0.00623901
C        4.95215548       9.96108980       3.86089545       0.00150863       0.00118044       0.00321040
Ta       1.65182262       5.22026803       4.98845829       0.00568499       0.01187016       0.00671148
