49
Lattice="12.336457 0.0 0.0 -6.168228499999997 10.683685154694365 0.0 0.0 0.0 15.0" Properties=species:S:1:pos:R:3:forces:R:3 energy=-439.2797939898722 free_energy=-439.2797939898722 stress="-0.005140037382938127 -0.0014697841280847045 4.353065813540562e-07 -0.0014697841280847045 -0.003921365018266352 -4.41740923473612e-06 4.353065813540562e-07 -4.41740923473612e-06 -4.1514484258236886e-07" pbc="T T T"
C       -0.00541119      -0.02573324       3.68921256      -0.00679155      -0.01021788      -0.00371482
C       -1.23554394       2.12616717       3.75732827       0.00034019       0.00979209       0.00636168
C       -2.43055016       4.26438328       3.88814253      -0.00859981       0.00003249      -0.00290970
C       -3.65575732       6.40651850       3.88388882       0.00468805       0.00178747       0.00227309
C       -4.91698647       8.54231158       3.82282741       0.00042308      -0.00318906       0.00191637
C        2.46482668      -0.02030346       3.57692578      -0.00392276       0.00446124       0.00035246
C        1.19148857       2.08779627       3.50566065      -0.00058286      -0.00656160       0.00325588
C        0.04007444       4.23159861       4.03487934       0.00357504      -0.00290356      -0.01795639
C       -1.19948855       6.40735639       3.90094609       0.00830883      -0.00381351      -0.00019205
C       -2.45073847       8.53726391       3.72438647       0.00025288      -0.00221571       0.00007477
C        4.93107155       0.00432592       3.53972631      -0.00855216       0.00086076       0.00052166
C        3.66937919       2.09545755       3.34952945       0.00378339       0.00379840      -0.00604316
N        1.20496394       6.48740801       3.83981362       0.00425964       0.00092906       0.01331426
C       -0.00900838       8.55072019       3.65390640       0.00169422       0.00600828      -0.00558976
C        7.39900249       0.00047535       3.59999285       0.00721415       0.00815366       0.00541535
C        6.16995362       2.14521006       3.53551847      -0.00057834       0.00192306       0.00269702
C        5.04737462       4.33576581       3.66436150       0.00238106      -0.00189589      -0.00378259
B        3.72233282       6.39726660       4.20664117       0.00055235       0.01284896      -0.00771145
C        2.45712646       8.54684248       3.76746228      -0.00358942       0.00044483       0.00673432
C        9.86576568      -0.00907040       3.71496107       0.00773901      -0.00136892      -0.00312975
C        8.63951391       2.13432852       3.70305276       0.00690767      -0.01180855       0.00219575
C        7.45106916       4.27280784       3.79325587       0.00760238       0.00193995       0.00588277
C        6.23748514       6.42360636       3.98772137      -0.01085687       0.00070714       0.00542137
C        4.94336905       8.53918357       3.89944498      -0.00319613      -0.00133766      -0.00854811
C       -0.02414756       1.39461143       3.62831895      -0.00713439      -0.00605244      -0.00489652
C       -1.21719323       3.53731340       3.90868187      -0.00390220       0.01018258      -0.00544018
C       -2.42269766       5.69009712       3.90241242       0.00420767       0.00034803      -0.00743905
C       -3.67820077       7.82989372       3.82098310       0.00238092      -0.00253777       0.00788192
C       -4.93154788       9.95635004       3.69461998      -0.00267914      -0.00435032      -0.00048201
C        2.44670949       1.40772260       3.44822582       0.00173672       0.00557135       0.00948751
N        1.16503231       3.43818644       3.73694364       0.00771889      -0.00197225      -0.00419043
C        0.04960507       5.70292925       4.02131888       0.00207138      -0.01061883      -0.00004441
C       -1.21857279       7.82383697       3.75437356       0.00407528      -0.00105136      -0.00938699
C       -2.46235392       9.96406571       3.60392339      -0.00892335      -0.00166924      -0.00833182
C        4.92539078       1.43969979       3.46076455      -0.00331588       0.00378802      -0.00853612
S        3.57912957       3.79915834       2.99732416      -0.00926093      -0.00555767      -0.00345339
C        1.21888038       7.85082453       3.70403523      -0.00077894      -0.00387605       0.00521502
C       -0.00238558       9.97397544       3.58503300       0.00125959       0.01180341       0.00176792
C        7.39807870       1.42850680       3.60157127       0.00103617       0.00309821       0.00504978
C        6.22185270       3.55517898       3.64637062       0.00594484      -0.00055920       0.00509308
C        5.01584399       5.68867381       4.00986396      -0.00921297      -0.01258909       0.01184890
C        3.68433740       7.85608980       3.95649477      -0.00145572       0.00660555       0.00047174
C        2.45955824       9.97338048       3.68091571       0.00798548       0.00276632       0.00140600
C        9.86802847       1.41665513       3.71988952       0.01094269      -0.00157137       0.00647834
C        8.66997593       3.55539664       3.79210473       0.00095855      -0.01270457      -0.00163008
C        7.45638744       5.69697080       3.90076405      -0.00137957       0.00893618       0.00419689
C        6.19118339       7.83766881       3.93649436      -0.00657266       0.00224979      -0.00435283
C        4.93262009       9.95557592       3.77030950      -0.00371923      -0.00717572      -0.00123404
Ta       2.02056591       4.92410029       4.63339649      -0.00503524       0.00856138       0.00368177
