49
Lattice="12.336457 0.0 0.0 -6.168228499999997 10.683685154694365 0.0 0.0 0.0 15.0" Properties=species:S:1:pos:R:3:forces:R:3 energy=-441.8973583094503 free_energy=-441.8973583094503 stress="0.0012414049222408163 -0.004674350026986893 -2.751560986796279e-06 -0.004674350026986893 0.0003484076909215543 1.5809716049079368e-06 -2.751560986796279e-06 1.5809716049079368e-06 2.3297301108905246e-07" pbc="T T T"
C        0.00067954       0.01972533       3.86519274       0.01032799      -0.01100074      -0.00376174
C       -1.26597296       2.13746749       3.89506401      -0.00412931       0.00717648      -0.00231179
C       -2.48300783       4.27730580       3.86436503      -0.01552339       0.00491005      -0.00037410
C       -3.69076301       6.42078075       3.86503135      -0.00228770      -0.00572165      -0.00431486
C       -4.91664366       8.56914174       3.84962805      -0.01439240      -0.00621253      -0.00709898
C        2.46580269       0.00446160       3.75816185       0.00132348       0.00561757      -0.00024848
C        1.19779220       2.10797983       3.90312099      -0.00120408      -0.01070833       0.01220977
C       -0.04318434       4.26025404       3.82636865       0.00458599      -0.00014705      -0.00873096
C       -1.22965034       6.40291863       3.74707165       0.00075986      -0.00901864       0.01323791
C       -2.45584934       8.55142275       3.72633957       0.00139859       0.00224369       0.00305920
C        4.92558286       0.01154486       3.58737022      -0.00410402       0.00199000      -0.00506572
C        3.62452890       2.09012169       3.27191635      -0.00284407      -0.00254246      -0.00792954
C        1.27366397       6.34269632       3.64176331      -0.00694957       0.01667493       0.00556353
C        0.01659386       8.52551129       3.64907741       0.01149003      -0.00489794      -0.00620542
C        7.38355206       0.00716125       3.69423229      -0.00355298      -0.00421491      -0.01431722
C        6.11705717       2.16493328       3.72270488      -0.00341884       0.00814245       0.00603173
C        4.93045027       4.36784157       4.03906234       0.01475251       0.00721115      -0.01045907
N        3.78741872       6.52725172       3.71232013      -0.00291223      -0.00281113       0.01401689
C        2.47629460       8.53897782       3.68432159       0.01129897       0.00784882      -0.00918595
C        9.84890681       0.00680214       3.80292509       0.00353930      -0.00149075       0.00318705
C        8.59592547       2.14823312       3.83734385      -0.00458840       0.00730333       0.00293858
C        7.37188883       4.29102707       3.93015492       0.00408051      -0.00074987       0.00890149
C        6.20070424       6.46964103       3.93475118       0.00741569      -0.01135140      -0.00608569
C        4.96181541       8.58489748       3.81510600      -0.00636010       0.00327869       0.00760476
C       -0.02057038       1.44046044       3.90948898      -0.00392148      -0.00730185      -0.00544236
C       -1.25426365       3.55079965       3.86988164      -0.01167403       0.00903993       0.00018128
C       -2.45656067       5.70092071       3.82827894      -0.00735604      -0.00417755       0.00249589
C       -3.68439085       7.84567383       3.81942621      -0.00711102      -0.00012081      -0.00313488
C       -4.92983057       9.99355028       3.83443729       0.00766531      -0.00225955      -0.00072142
C        2.42954422       1.44585074       3.73462628      -0.00174698      -0.00171173       0.00627329
O        1.16754482       3.53253109       3.94917902       0.00933309       0.00903191      -0.00201037
C        0.03563203       5.66365167       3.72923505       0.00356594      -0.00066368       0.00262404
C       -1.21952900       7.82381563       3.69566526       0.00871840      -0.00825143       0.01010950
C       -2.46867404       9.98033394       3.66904442      -0.00286155       0.00671594       0.00435637
C        4.89992842       1.44435444       3.50636418      -0.00210025       0.00172053       0.00029955
O        3.42983773       3.17597410       2.47996283      -0.00056735       0.00035468       0.00316505
C        1.26808077       7.76264829       3.64541171       0.01374040       0.00678817      -0.00607108
C       -0.00276139       9.96096707       3.63640310      -0.00271712      -0.00483464      -0.01243696
C        7.35604143       1.44121625       3.75433474      -0.00494317       0.00436758      -0.00472039
C        6.12368591       3.58852632       3.92740911       0.00350172       0.00750931       0.00673216
C        4.95814031       5.78778766       3.90953374       0.01013468       0.00075197      -0.00529617
C        3.73843656       7.88046794       3.73094068      -0.00126620       0.00699657       0.00009944
C        2.45378016       9.96931921       3.72624716       0.00264477      -0.00058911      -0.00284134
C        9.84132623       1.43430345       3.85074528      -0.00360599       0.00150040      -0.00657228
C        8.60534153       3.57472233       3.88236504      -0.00676647       0.00451806       0.00171882
C        7.40357057       5.71907014       3.93092620       0.00846805      -0.01073717      -0.00136525
C        6.18850897       7.87320043       3.87441810      -0.01376994      -0.01089490       0.00828925
C        4.93105751       9.99650277       3.82884603       0.00794059      -0.00266012       0.01066650
Ta       2.98993059       4.76380215       3.60815515      -0.00401116      -0.00662226       0.00293997
