49
Lattice="12.336457 0.0 0.0 -6.168228499999997 10.683685154694365 0.0 0.0 0.0 15.0" Properties=species:S:1:pos:R:3:forces:R:3 energy=-433.7562858897711 free_energy=-433.7562858897711 stress="-0.0033789835383186266 0.00128018969019934 3.6922111581541083e-06 0.00128018969019934 -0.009488963088346177 1.3196953350498807e-06 3.6922111581541083e-06 1.3196953350498807e-06 -4.141365495967242e-06" pbc="T T T"
C        0.00765863       0.01276451       3.75476679      -0.00091213      -0.00243543       0.00203598
C       -1.24173009       2.14315397       3.64092662       0.00618453      -0.00705598       0.00487820
C       -2.51586714       4.27503498       3.77720845      -0.00978204       0.00494262      -0.00366124
C       -3.74268457       6.40395667       3.90002362      -0.00530299      -0.00042110      -0.00435491
C       -4.94925754       8.53768713       3.87813347       0.00067554      -0.00240883      -0.00742129
C        2.47127783      -0.02927705       3.74671493      -0.00535771       0.00120588      -0.00821497
C        1.25339145       2.06142261       3.32687638      -0.00044756       0.00106639      -0.00416625
C       -0.15304308       4.30727105       3.21812738       0.00524336      -0.00213604      -0.00683387
C       -1.29512639       6.42528977       3.62548850       0.00545191       0.00305551      -0.00394162
C       -2.47380345       8.52991805       3.84165057       0.00419205      -0.00400570      -0.00454473
C        4.93643984      -0.02628582       3.88325434      -0.00083636      -0.00176270      -0.00805523
C        3.75606362       2.01955721       3.54610987      -0.00481992       0.00515433      -0.00082977
S        1.36331658       6.38453256       2.78451549       0.00144410       0.00854439       0.00910463
C       -0.00165351       8.54479042       3.73585256       0.00290352      -0.00463437       0.00027983
C        7.39470895       0.01710348       3.94179101       0.00334774      -0.00320012      -0.00178539
C        6.16329798       2.13712224       4.02688092       0.00457501      -0.00085956       0.01183939
C        4.88342185       4.24818468       4.10417574       0.01008726      -0.00220037       0.00168669
C        3.73374075       6.54302911       3.98674508      -0.00119661       0.00302203       0.00489700
C        2.46694016       8.60979354       3.78420145      -0.00320391       0.00202263      -0.00014986
C        9.87629071       0.03137484       3.88280015      -0.00302609       0.00358376       0.00644719
C        8.62734964       2.15018690       3.95397249      -0.00187268       0.00648334      -0.00697814
C        7.35985899       4.27075045       4.05475703       0.00117841       0.00142476      -0.00243074
C        6.14061152       6.40543990       3.93096200       0.00057457      -0.00636668       0.00731860
C        4.93938182       8.58286435       3.87751577      -0.00563173       0.00121122       0.00177956
C        0.00555495       1.43250430       3.57277368       0.00575019      -0.00667042      -0.00032341
C       -1.30264174       3.55105260       3.55138242       0.00159776      -0.00544170       0.01119192
C       -2.51706971       5.69729044       3.78689417      -0.00523725       0.00612058      -0.00767318
C       -3.72104331       7.82431632       3.88147868       0.00190411      -0.00246504      -0.00812833
C       -4.93763544       9.96305665       3.79633946      -0.00249157      -0.00036081      -0.00533451
C        2.49455382       1.38862930       3.52321943      -0.00463726       0.00157668      -0.00644241
S        1.32171259       3.63153108       2.59263798       0.00084732      -0.00598569      -0.00149626
C       -0.14012990       5.68167719       3.29337287       0.01282509       0.00257105      -0.00424263
C       -1.24493408       7.83341885       3.72856317       0.00741486      -0.00392505       0.00321283
C       -2.46828741       9.95464568       3.83808205      -0.00356058      -0.00276850      -0.00690551
C        4.95103472       1.39329156       3.84904623      -0.00412071       0.00399282       0.00891352
O        3.87728118       3.40173161       3.26275121      -0.00220979       0.00885377       0.00633716
C        1.25326262       7.92500914       3.55303131       0.00030444      -0.00068435      -0.00177684
C        0.00463907       9.96420667       3.89514679       0.00184516      -0.00444614      -0.00517753
C        7.38990703       1.44016555       4.00384076       0.00447190      -0.00088543       0.00424591
C        6.14445620       3.54549809       4.14835070       0.01037615      -0.00160546       0.00717854
C        4.85654029       5.68240112       3.95193942      -0.00329775      -0.00598812       0.01541719
C        3.69890305       7.91930490       3.84866918      -0.00638497       0.00136294      -0.00323553
C        2.46591351      10.01974333       3.90192849       0.00129224      -0.00029879       0.00508893
C        9.87406327       1.44808898       3.84560843      -0.00283031       0.00212881      -0.00053048
C        8.59929586       3.56721232       3.95160133      -0.00730445       0.00632373      -0.00689745
C        7.35273880       5.69232423       3.97286461      -0.00103830      -0.00365679       0.00430875
C        6.15052631       7.82735651       3.89751749      -0.00192432      -0.00393058      -0.00395849
C        4.94124471      10.00088291       3.84596177      -0.00533508       0.00269515      -0.00101790
Ta       2.82692239       4.80754425       4.25826733      -0.00172516       0.00925735       0.01034667
