49
Lattice="12.336457 0.0 0.0 -6.168228499999997 10.683685154694365 0.0 0.0 0.0 15.0" Properties=species:S:1:pos:R:3:forces:R:3 energy=-442.7049868593961 free_energy=-442.7049868593961 stress="-0.004085978864672516 0.0014780838928084546 4.705310074715971e-06 0.0014780838928084546 -0.003801878046473668 3.985963063057731e-06 4.705310074715971e-06 3.985963063057731e-06 1.8111347406553292e-06" pbc="T T T"
C        0.00026382      -0.00944098       3.58442494      -0.00374260       0.00166391       0.00028580
C       -1.21636411       2.14517347       3.74238075       0.00068196      -0.00408795       0.00190465
C       -2.43532484       4.27457656       3.91851033       0.00043274       0.00676582       0.00488917
C       -3.68010468       6.41012676       3.83902251       0.00806435       0.00371341       0.00226400
C       -4.93368819       8.54138747       3.64007224       0.00025128      -0.00323756       0.00662999
C        2.47061061      -0.00370099       3.68390604       0.00000873       0.01065967       0.00711939
C        1.23868958       2.11058369       3.54474398       0.00993124       0.00567870       0.00538747
C        0.05665735       4.29607059       3.89189917       0.00243970      -0.00501520       0.00309623
C       -1.22063979       6.43183806       3.93525817      -0.00546911      -0.00365593      -0.01111165
C       -2.46880629       8.55362402       3.79870520      -0.00519643       0.00183585       0.00418029
C        4.93221621       0.01978663       3.82871536       0.00546729      -0.00402133      -0.00561227
C        3.69768773       2.14879821       3.85976281      -0.00361301       0.00023127       0.00303097
N        1.17482645       6.52251249       3.81072142       0.00280202       0.00137988      -0.00694558
C       -0.02332260       8.57471002       3.75942125      -0.00186380      -0.00022842      -0.00137500
C        7.41044010       0.00522702       3.79917734       0.00717724      -0.00295768       0.00085423
C        6.19049498       2.12906147       3.94603543      -0.00577523      -0.00914333       0.00079541
C        4.98172312       4.24540223       3.91586302      -0.00732803      -0.00440893       0.00323059
P        3.57591220       6.17747810       2.77362163      -0.00113562      -0.00686445      -0.00710853
C        2.45222513       8.55948297       3.53066773      -0.00162989       0.00261118      -0.01480444
C        9.87768475       0.00136931       3.66541973      -0.01568170      -0.00681756      -0.00108052
C        8.65901164       2.13430793       3.88021749      -0.00044439       0.00476035      -0.01005531
C        7.43762208       4.26773847       3.92167587       0.00160723       0.00460854       0.00320594
C        6.20753241       6.40545097       3.66576518       0.01412725      -0.00137255      -0.00003718
C        4.93085308       8.53270298       3.46957553      -0.00210062       0.00316729       0.00567910
C       -0.00042404       1.41138335       3.59973447       0.01104569       0.00374267       0.01503965
C       -1.22010965       3.56126341       3.87644088      -0.00157928       0.00027101      -0.01338600
C       -2.44249623       5.70542493       3.91474967      -0.00252967       0.00190545       0.00513661
C       -3.69815203       7.83531023       3.76142125       0.00095647      -0.00207580       0.00203529
C       -4.93038372       9.96589888       3.61501325       0.00049283       0.00080055       0.00127030
C        2.47515198       1.41819041       3.68002081       0.00220661       0.00920169       0.00487121
C        1.18226266       3.51972612       3.52764685       0.00440238      -0.00644870       0.00634062
C        0.03030461       5.74764280       3.98946046      -0.00098689      -0.00031748       0.00188939
C       -1.23752939       7.84724413       3.84811281      -0.00699627      -0.00227787      -0.00497575
C       -2.46725141       9.97906463       3.77102584      -0.00030093       0.00522124      -0.00018275
C        4.94476052       1.43171866       3.88771994      -0.00892043      -0.00631289       0.00123736
C        3.74556033       3.55759601       3.97776866      -0.00728050      -0.00445914       0.00736026
C        1.19484070       7.88077900       3.63592774       0.00216506       0.00525672       0.00052503
C       -0.00387362       9.99195997       3.80076561       0.00971945      -0.00082273      -0.00441539
C        7.42247209       1.42025873       3.89118848       0.00173702      -0.00265449      -0.00331775
C        6.22152700       3.54174881       3.96879498      -0.00322521      -0.00530102      -0.00550058
C        5.00888186       5.63703052       3.63484366       0.00749521       0.00235622       0.00278846
C        3.67170944       7.85983635       3.34082549       0.00229493       0.01037037      -0.00820131
C        2.46992052       9.98122859       3.67673846      -0.00609535      -0.00726596      -0.00820521
C        9.88645105       1.42512483       3.77122551      -0.00644629      -0.00637360      -0.00688884
C        8.66750640       3.55904062       3.92171766       0.00210364       0.00893591       0.00487526
C        7.43281587       5.69447861       3.82613486       0.01408219       0.00442361       0.00103398
C        6.17365640       7.82397365       3.55735691       0.00216139      -0.00084681       0.00775818
C        4.93485896       9.96070921       3.56839847      -0.01213307       0.00310047       0.00592790
Ta       2.09873227       4.94764920       4.50612373      -0.00337956      -0.00569441      -0.00743867
