49
Lattice="12.336457 0.0 0.0 -6.168228499999997 10.683685154694365 0.0 0.0 0.0 15.0" Properties=species:S:1:pos:R:3:forces:R:3 energy=-441.3092448490117 free_energy=-441.3092448490117 stress="-0.001975500942469052 7.145847721014252e-06 5.471431736914055e-06 7.145847721014252e-06 -0.00019702282641347965 -9.39241157649662e-07 5.471431736914055e-06 -9.39241157649662e-07 1.1275075214611672e-06" pbc="T T T"
C       -0.00090875      -0.01387626       3.63213292       0.01110569       0.00100410      -0.00428229
C       -1.22954407       2.13527248       3.70856967      -0.00415464      -0.00198248       0.00952314
C       -2.45790414       4.26728290       3.81883960      -0.00933543       0.00602276       0.00289087
C       -3.69228748       6.40694267       3.77091353       0.00034945      -0.00139671       0.00057217
C       -4.93316636       8.54145389       3.69289597      -0.00010785      -0.00222636       0.00993055
C        2.48209671       0.00597284       3.64132790       0.00332418       0.00739998      -0.00007498
C        1.23252124       2.10621393       3.57341684       0.00238749      -0.00527835      -0.00422830
C        0.02480985       4.26291936       3.92478003       0.00392506      -0.00556641       0.00257348
C       -1.24567624       6.41968992       3.83773540      -0.00428804      -0.00221278      -0.00323432
C       -2.46166690       8.54626382       3.69100485      -0.00146636       0.01033782       0.00170397
C        4.93226407       0.01446465       3.66433165       0.00365003       0.00365292      -0.00646816
C        3.71981129       2.12963433       3.78994710      -0.01109475       0.00407440      -0.00171612
C        1.16963002       6.47635364       3.64987689       0.00187831       0.00882468      -0.00572355
C       -0.00059151       8.55946576       3.61187470       0.00096105      -0.00928447      -0.00191550
C        7.41200320      -0.00456274       3.64345008       0.00406258      -0.00094921      -0.00096909
C        6.18001719       2.14052162       3.73571528      -0.00829865      -0.00051210       0.00527504
C        4.97453191       4.28401705       3.91412363       0.00296808       0.00622733      -0.00043541
O        3.76178431       6.42798833       4.07074891      -0.01189843       0.00199562      -0.00083865
C        2.49630307       8.52640006       3.64720598       0.00439168      -0.00005088      -0.00748145
C        9.87507121      -0.01157373       3.66175095       0.00313754      -0.00521987      -0.00458965
C        8.64462275       2.13456252       3.71992727       0.00539003      -0.00019267       0.00239099
C        7.40693007       4.27508444       3.78184687       0.00616271      -0.00788639      -0.00373653
C        6.17727917       6.40603822       3.79599350       0.00765304       0.00277886       0.00198263
C        4.93753593       8.52186456       3.72279725      -0.01291350       0.00081502       0.00862381
C       -0.00056641       1.40736049       3.61429943       0.00354929       0.00164668      -0.00153577
C       -1.24530920       3.54700278       3.83763823      -0.01239930       0.00145499      -0.00297209
C       -2.45809909       5.69910904       3.81939160      -0.00508252       0.00174680      -0.00309687
C       -3.69188185       7.83211987       3.72081173       0.00250906       0.00033023      -0.00317047
C       -4.92487079       9.97118660       3.64468647       0.01082473      -0.00182141      -0.00566232
C        2.49689477       1.43984062       3.64741421      -0.00560596      -0.00100695      -0.00198260
C        1.16985801       3.48997987       3.65093712       0.00316385      -0.00590293      -0.00322988
C        0.02463099       5.70384145       3.92515638       0.00709351       0.00329092      -0.00298676
C       -1.22952118       7.83135908       3.70717098      -0.00519834      -0.00134428       0.01361419
C       -2.46130269       9.97774890       3.66116423       0.00272299       0.01204973      -0.00375260
C        4.93775705       1.44439569       3.72317868      -0.01169422       0.00127502       0.00422067
O        3.76161836       3.53845107       4.07047372      -0.00544225      -0.00961026      -0.00090812
C        1.23209628       7.86014116       3.57075414       0.00711079       0.00592627       0.00401456
C       -0.00053302       9.98071844       3.63000709       0.00383802      -0.00880401       0.00099566
C        7.40356822       1.42502841       3.69228535       0.00083645       0.00356445       0.00381811
C        6.17769390       3.56022563       3.79464897       0.00240166       0.00043494       0.00788972
C        4.97451038       5.68141651       3.91472395       0.00183351       0.01039852      -0.00008308
C        3.71949310       7.83669608       3.78930481      -0.00902889      -0.00837116       0.00072267
C        2.48203404       9.96024242       3.64207908       0.00456572      -0.00514456      -0.00807156
C        9.87475489       1.42011497       3.69109874      -0.00014631      -0.00627324       0.00403282
C        8.64415078       3.55988373       3.77099658       0.00294042      -0.00204542      -0.00217048
C        7.40682775       5.69212388       3.78115168       0.00613425      -0.00773577       0.00822443
C        6.17972627       7.82577962       3.73724455      -0.00860112       0.00313220      -0.00102254
C        4.93210416       9.95183804       3.66446064       0.00421800       0.00045824      -0.00085328
Ta       2.06629201       4.98355054       4.55243444       0.00166740       0.00197618      -0.00580708
