49
Lattice="12.336457 0.0 0.0 -6.168228499999997 10.683685154694365 0.0 0.0 0.0 15.0" Properties=species:S:1:pos:R:3:forces:R:3 energy=-441.368232305017 free_energy=-441.368232305017 stress="0.0002530409085145661 -0.0024470057377083986 -8.057350560931769e-06 -0.0024470057377083986 0.0015222402114607606 -3.1997784285882758e-06 -8.057350560931769e-06 -3.1997784285882758e-06 -3.868086554170546e-06" pbc="T T T"
C        0.00300090      -0.01684255       3.65301123      -0.00386445       0.00187691       0.00259905
C       -1.24001777       2.12612122       3.80617181      -0.00420464       0.00270882      -0.00274267
C       -2.45232874       4.26429844       3.90179569       0.01268385      -0.00561769       0.00802461
C       -3.67911827       6.40542526       3.78269766       0.00805431       0.00124376       0.00886847
C       -4.91837128       8.54360495       3.70336444      -0.00512520       0.00225848       0.00044938
C        2.47365094       0.01135406       3.58970467       0.01168463      -0.00611784      -0.00676001
C        1.19867523       2.07104126       3.47789279      -0.00791395      -0.00313787       0.00116829
C        0.03036736       4.23525880       4.00078320      -0.00117319       0.00186651      -0.01776576
C       -1.22488496       6.40318456       3.74085490       0.00732986       0.00161847      -0.00150768
C       -2.44812033       8.54887843       3.64093359      -0.00179107      -0.00880598      -0.00469021
C        4.93762164       0.02205283       3.61736697       0.00452237      -0.00511098       0.00349085
C        3.68595902       2.19675614       3.71470783       0.00363854       0.00610385      -0.00062745
C        1.22287716       6.44855953       3.60195540      -0.00438168       0.00080884       0.00825640
C        0.01680812       8.55466973       3.56633183      -0.00692284      -0.00315495      -0.00358267
C        7.41313382      -0.00213578       3.66495899      -0.00649277       0.00303020      -0.00270781
C        6.16846775       2.15187814       3.75183026      -0.00393692       0.00148209      -0.00350519
C        4.92003574       4.31088861       3.93037879      -0.00496957       0.00401881       0.00347620
O        3.79632441       6.45919986       4.12642417      -0.00119809      -0.00618576       0.00357479
C        2.50661585       8.52165913       3.67198514       0.00061262       0.00206949       0.00698061
C        9.87441504      -0.01534564       3.72309746       0.00116788       0.00620044      -0.00085179
C        8.63715184       2.13412801       3.80174953      -0.00170610      -0.00424412       0.00414808
C        7.40613063       4.27594599       3.84435869      -0.00406120      -0.00115736       0.00211063
C        6.19111478       6.42432418       3.85845875      -0.00586506      -0.00363632       0.00605238
C        4.94983876       8.52775052       3.77200207       0.00488613      -0.00001551      -0.00425740
C       -0.01663961       1.40492631       3.62779642      -0.01434716       0.00009105      -0.00320972
C       -1.23482315       3.53251426       3.97823516       0.01239819      -0.00189964       0.00533207
C       -2.44044719       5.69077035       3.81738361       0.01497048      -0.00202749      -0.00620077
C       -3.67718593       7.83219256       3.70761391      -0.00553801      -0.00114127      -0.01098248
C       -4.92107553       9.97503306       3.63216924       0.00230684       0.00327429      -0.00237454
C        2.45729891       1.45018534       3.56005452      -0.00140285       0.00103152       0.00265746
O        1.12157151       3.48542898       3.32147816       0.00077814       0.00610301       0.00043818
C        0.05740164       5.67246090       3.81463854      -0.00644264      -0.00083880       0.00283654
C       -1.21347104       7.82454170       3.63273239      -0.00251295      -0.00082681       0.00137546
C       -2.45897023       9.98051695       3.60649256       0.01114215      -0.01204179      -0.00498844
C        4.92953956       1.44829409       3.68247474       0.00123288       0.00040058      -0.00411576
C        3.69786924       3.59283283       3.93901897       0.00366285       0.00179802       0.00467731
C        1.25533567       7.84575680       3.54880745      -0.00366732      -0.00201124       0.00156347
C        0.00639657       9.98052569       3.60596929      -0.00295222      -0.00348501      -0.00745335
C        7.40529402       1.42388293       3.73833271      -0.00523085       0.00100963      -0.01665655
C        6.17641385       3.57525542       3.83327758      -0.00750192       0.00116875       0.00613896
C        4.98303030       5.72466193       3.97354769      -0.00520641      -0.00202950       0.00641407
C        3.73756184       7.83752653       3.83175266       0.00407905       0.00401420       0.01212588
C        2.48424287       9.95458848       3.68149861      -0.00192379       0.00880102       0.00150039
C        9.87336535       1.41796831       3.77891400       0.00041594       0.00389602       0.00042337
C        8.64590638       3.55943503       3.85281502       0.00386994      -0.00444188      -0.00451163
C        7.42092295       5.69852787       3.83338597       0.00020350       0.00317180       0.01135568
C        6.19393586       7.83784543       3.78409896      -0.00077946      -0.00342543      -0.00261026
C        4.93582226       9.95325152       3.71313099      -0.00058540       0.00133480      -0.00468573
Ta       1.98874956       4.87697020       4.51628456       0.01205755       0.00997187       0.00074928
