49
Lattice="12.336457 0.0 0.0 -6.168228499999997 10.683685154694365 0.0 0.0 0.0 15.0" Properties=species:S:1:pos:R:3:forces:R:3 energy=-442.7496316662572 free_energy=-442.7496316662572 stress="-0.003619301617608026 -0.0014983150779239898 -5.255620956304233e-06 -0.0014983150779239898 -0.00405159962292893 7.224904636578928e-06 -5.255620956304233e-06 7.224904636578928e-06 2.7180917782333665e-07" pbc="T T T"
C        0.00186127      -0.02450244       3.77470782      -0.00244838       0.00931693      -0.00789813
C       -1.23071212       2.12466778       3.82442301       0.00082370      -0.00513359       0.00307759
C       -2.45282119       4.25880737       3.91045729       0.00571946      -0.00209110      -0.00134608
C       -3.67730130       6.40451187       3.91850293       0.00141864       0.00024847      -0.00079194
C       -4.91390129       8.54195264       3.87050547       0.00022701       0.00169131       0.00110091
C        2.47617195      -0.03603036       3.62172642      -0.00182338       0.00043167       0.01033216
C        1.22409870       2.07486290       3.57618417       0.00114051       0.00722124      -0.00579880
C        0.02984955       4.25723265       3.91465926      -0.00289271      -0.00412380       0.00160350
C       -1.23488536       6.41148500       3.85834261       0.00020901      -0.00164853      -0.00344907
C       -2.44962044       8.53460835       3.74709152      -0.00148035       0.01012809      -0.00351567
C        4.94081371      -0.00379052       3.56030427       0.01073793       0.00039351      -0.00037678
C        3.68332919       2.07740783       3.30037381      -0.00590838      -0.00355279      -0.00409751
C        1.17618337       6.44947213       3.52076759       0.00126139       0.00146486       0.00269536
C        0.00891068       8.55032734       3.61372861      -0.00726674      -0.00358310      -0.00110774
C        7.41169026      -0.00461238       3.65309278      -0.00172562      -0.00116748      -0.00176210
C        6.16956344       2.14577399       3.58845471      -0.00426025      -0.00448182       0.00407845
C        4.97169455       4.34896479       3.68860561       0.01262937       0.00378642       0.01043772
N        3.78462069       6.43003454       4.06359892       0.00000901      -0.00345167       0.00666884
C        2.49164696       8.52847704       3.72738616      -0.00255147      -0.00001128      -0.00348515
C        9.87325214      -0.01336185       3.79371699      -0.00502853      -0.00674616       0.00373680
C        8.63759483       2.12924306       3.79134411       0.00071562       0.00392922      -0.00680218
C        7.41507195       4.27086204       3.85563174      -0.00121059       0.00127671       0.00190646
C        6.21115031       6.43386006       3.98024824       0.00361578       0.00034290      -0.00089907
C        4.95311265       8.53229823       3.90379894       0.00426481      -0.00138719      -0.00149262
C       -0.00732892       1.39116263       3.72479876       0.00395059       0.00916906      -0.00277592
C       -1.23448295       3.54079848       3.89994401       0.00198784      -0.00716887       0.00175556
C       -2.44833041       5.69147160       3.91050809       0.00233426      -0.00233161      -0.00509791
C       -3.67861422       7.82705873       3.85934866       0.00087720       0.00394778      -0.00008093
C       -4.92427861       9.95328795       3.76019650      -0.00592236       0.00324598       0.00218902
C        2.46416870       1.37391420       3.47053778      -0.00512214      -0.00149256      -0.00513609
C        1.18516318       3.47911359       3.67811945      -0.00439958       0.00194738      -0.00321858
C        0.02947846       5.69403456       3.86275382       0.00296444      -0.00262048       0.00561960
C       -1.21657147       7.82289413       3.73261643      -0.00841056      -0.00029074      -0.00006171
C       -2.45288302       9.95311821       3.63207231       0.00664706       0.00885101      -0.00277738
C        4.93702813       1.42453335       3.46422468      -0.00408300      -0.00180951       0.00767058
P        3.51629450       3.79241068       2.83606610      -0.00235137       0.00395542       0.00312408
C        1.24996742       7.84638865       3.57061988      -0.00563752       0.00155661       0.00132252
C        0.00738162       9.97043661       3.60364077       0.00520137      -0.00503818      -0.00388901
C        7.40072781       1.42351830       3.67853704      -0.00158589       0.00079075      -0.00446381
C        6.18092297       3.56994857       3.70641835       0.00257595      -0.00268059       0.00046329
C        4.97797992       5.74991706       3.94412442       0.00491719       0.00252819      -0.00406605
C        3.72558931       7.79823394       3.91165804       0.00109939      -0.00157306       0.00294550
C        2.47894795       9.95837626       3.72762176      -0.00598425      -0.00239520      -0.00010569
C        9.86992363       1.41283865       3.81031711      -0.00152524      -0.00632922      -0.00084074
C        8.64409482       3.55443038       3.86093336       0.00197820       0.00583589      -0.00257187
C        7.42623279       5.69750888       3.93638256       0.00080477       0.00058541       0.00558977
C        6.19092152       7.84042739       3.94861608       0.00448607      -0.00136722      -0.00061524
C        4.93726368       9.94785245       3.83196244       0.00042538       0.00066578       0.00258613
Ta       2.11642201       5.04232183       4.53504819      -0.00140370      -0.01083483      -0.00038008
