49
Lattice="12.336457 0.0 0.0 -6.168228499999997 10.683685154694365 0.0 0.0 0.0 15.0" Properties=species:S:1:pos:R:3:forces:R:3 energy=-436.8911813141048 free_energy=-436.8911813141048 stress="-0.005646683291127735 -0.002593961415279679 -3.2050207279239926e-07 -0.002593961415279679 -0.00678123072051603 -1.0425062458890808e-06 -3.2050207279239926e-07 -1.0425062458890808e-06 5.097660037536211e-06" pbc="T T T"
C        0.00664708      -0.02639945       3.89878174       0.00548046       0.00037949      -0.00393447
C       -1.24068591       2.10572429       3.90854299      -0.00154541      -0.00293601       0.00934569
C       -2.45101085       4.25949025       3.94395572       0.00664204      -0.01459189       0.00227045
C       -3.66516932       6.40696403       3.96745003      -0.00030398       0.00265563      -0.00129137
C       -4.90298872       8.54445544       3.96613401       0.00787941      -0.00183855       0.00058371
C        2.48059589      -0.01700299       3.81816162      -0.00800647      -0.00194797      -0.00114880
C        1.20707807       2.08162279       3.74946781      -0.00706741      -0.00159790      -0.00919651
C       -0.00164484       4.18839068       3.85559509       0.00753104       0.00272754      -0.00155302
C       -1.22715737       6.40983329       3.77782673      -0.00056013       0.00366396       0.00747070
C       -2.43697897       8.53472094       3.83443519       0.00588580       0.00152035      -0.00907777
C        4.94154511       0.00064329       3.70204553      -0.01096198      -0.00850536      -0.00350549
C        3.67788543       2.08159990       3.45025544       0.00714611      -0.00986361       0.00583083
S        1.14754780       6.40412041       2.33001240       0.00246149      -0.01129020       0.00000133
C        0.01122346       8.54706204       3.59494420      -0.00102000       0.00442031       0.00113427
C        7.40833570       0.00257942       3.70918306       0.00166207       0.00559690       0.00955291
C        6.16731933       2.14756857       3.65531086       0.00785231      -0.00114876       0.00393737
C        5.03631647       4.34578138       3.57387600      -0.00227182       0.00710089       0.00749563
C        3.75427627       6.42513896       3.87374965      -0.00813067      -0.00114426       0.00090883
C        2.48819882       8.55083633       3.63576149      -0.00638268      -0.00308285      -0.01440021
C        9.87195455      -0.01396872       3.84362088       0.00471498       0.00975971       0.00941267
C        8.63489359       2.13057521       3.85282209       0.00018380       0.00319502       0.00077616
C        7.43127872       4.27457550       3.88855212      -0.00470593      -0.00285087      -0.00943188
C        6.22848896       6.42646770       3.97374430      -0.00740052      -0.00429843       0.00703096
C        4.96122150       8.54302700       3.90670072       0.00505588       0.00230360      -0.00102023
C       -0.01507149       1.38873375       3.85725115      -0.00533541      -0.00359380      -0.00399438
C       -1.24711482       3.51509915       3.93354251       0.01442091      -0.00576816       0.00243391
C       -2.43806197       5.68900625       3.92508617       0.00093534      -0.00445640      -0.00358628
C       -3.66832759       7.82864923       3.94152583       0.00932320       0.00266620      -0.00661722
C       -4.91730246       9.95971413       3.91188600      -0.00040815      -0.00491689      -0.01136461
C        2.46374256       1.40678968       3.67786193      -0.00414360      -0.00139750      -0.00414071
N        1.16450149       3.43782646       3.81909652       0.00033955      -0.00392521       0.01272829
C        0.00270071       5.62509101       3.60770618      -0.00543555       0.00529370       0.00654515
C       -1.20644532       7.81746988       3.71100333       0.00499165       0.00534281       0.00210365
C       -2.44929340       9.96311001       3.78823065      -0.01214863      -0.00455225      -0.00593974
C        4.93169640       1.43403657       3.59915747       0.00613819      -0.00512905       0.00672193
S        3.62459712       3.71382512       2.83161546       0.00270146       0.01268256       0.00591603
C        1.26126171       7.89265491       3.37767020      -0.00862301       0.00287975      -0.00513985
C        0.01105641       9.97134766       3.67999867      -0.00370521       0.00362723      -0.00060914
C        7.39560479       1.43177305       3.74715702       0.00648518       0.00320208       0.00945397
C        6.20474588       3.56415511       3.71589713      -0.00155615      -0.00145810      -0.00990400
C        4.98280365       5.71963757       3.85897401      -0.00829011       0.00581148      -0.01368656
C        3.71495102       7.82613852       3.80795492      -0.00250030      -0.00307081      -0.00952531
C        2.47270335       9.97906218       3.74109006       0.00379926       0.00412918       0.00481423
C        9.86474864       1.40627852       3.88132925      -0.00277257       0.00866250       0.00633808
C        8.65075266       3.55340727       3.91365212      -0.00190087      -0.00416377      -0.00610425
C        7.43874759       5.69913777       3.96350281      -0.00708822      -0.00084947       0.00583263
C        6.20018527       7.83986880       3.97766743       0.00414932      -0.00214801       0.01334100
C        4.94070196       9.95179369       3.89076654       0.00637590       0.00830297       0.00643324
Ta       1.96433832       5.21013660       4.08416653       0.00010943       0.00460223      -0.01324183
