49
Lattice="12.336457 0.0 0.0 -6.168228499999997 10.683685154694365 0.0 0.0 0.0 15.0" Properties=species:S:1:pos:R:3:forces:R:3 energy=-441.74090096490346 free_energy=-441.74090096490346 stress="0.001223647131709831 -0.0006449341572540754 -6.766681099156187e-07 -0.0006449341572540754 0.0006292309871452243 -3.414314256866056e-06 -6.766681099156187e-07 -3.414314256866056e-06 -2.0947869909927754e-06" pbc="T T T"
C        0.00025692      -0.02151280       3.59117794      -0.00954319       0.00147645      -0.00193571
C       -1.22726257       2.13580068       3.66367796       0.01168901      -0.00751804      -0.00919385
C       -2.44608004       4.27069475       3.85117307       0.01109277      -0.00434380       0.00580414
C       -3.68231721       6.40186002       3.85585546       0.00877891       0.00174380       0.00514710
C       -4.92910475       8.53405283       3.71309840      -0.00329104       0.00326848       0.00605814
C        2.48034287      -0.01233945       3.65217042       0.00044656      -0.00278326       0.00728738
C        1.23679609       2.07917662       3.55680340       0.00150085      -0.00173880      -0.00424666
C        0.05662375       4.27566513       3.86931561      -0.00729206      -0.00138094      -0.00826628
C       -1.20907746       6.42188149       3.95270199      -0.00601867       0.00462111      -0.00470589
C       -2.44759248       8.53777898       3.74440566       0.00155611       0.01145776       0.00011252
C        4.94003117       0.01500663       3.69070645       0.00752843      -0.00125341      -0.00004343
C        3.69341433       2.16975067       3.82461154      -0.00527293       0.00007270      -0.00320733
O        1.19172168       6.45798901       3.42708481       0.00165553       0.00792595      -0.01199697
C        0.00582800       8.54988793       3.59947680      -0.00344151       0.00037486       0.00583042
C        7.41418623      -0.00513968       3.62043107      -0.00248307      -0.00557912       0.00541618
C        6.17394138       2.14608600       3.78117161      -0.01079370      -0.00205301       0.00242643
C        4.91560045       4.29713902       3.97403397       0.00037103       0.00730943       0.00181682
O        3.76733988       6.45412008       3.99381256      -0.00485160       0.00141190      -0.00193069
C        2.48404890       8.49772364       3.54472672       0.00735346      -0.00603073      -0.00581949
C        9.87151687      -0.01388913       3.59650882      -0.01021197      -0.00739449       0.01327011
C        8.64392575       2.13654854       3.72072932       0.00301245       0.00861229       0.00429261
C        7.40511617       4.27167605       3.85764259      -0.00359089       0.00390351      -0.00400573
C        6.17504270       6.41545072       3.85814454       0.00134039      -0.00721740       0.00278837
C        4.93498935       8.51996737       3.65979657       0.00606175      -0.00470712      -0.00179748
C       -0.00670259       1.39519239       3.57501071       0.00555960      -0.00073863      -0.00985404
C       -1.23215935       3.55413335       3.79435535       0.00707587      -0.00969295      -0.00278398
C       -2.43921445       5.69743865       3.90842371       0.00645456      -0.00539822      -0.00241672
C       -3.68621932       7.82542032       3.78136531       0.00176158       0.00810618       0.00056010
C       -4.92453730       9.95883311       3.63589219      -0.00944588       0.00611417      -0.00600233
C        2.48044269       1.40909869       3.66130556      -0.00250636      -0.00542059      -0.00299869
C        1.19126348       3.47252297       3.61990840      -0.00010497       0.00118141      -0.00156574
C        0.05106055       5.71727309       4.01483295      -0.00920788      -0.00051347       0.00121151
C       -1.22043775       7.82687050       3.76973159      -0.00556977       0.00541699       0.00562693
C       -2.45485121       9.96637091       3.69043312       0.00867052       0.00677950       0.00334644
C        4.93931416       1.43825952       3.76209249      -0.00866964      -0.00534110       0.00018166
C        3.70253197       3.57375163       4.03812910       0.00956463       0.00039839      -0.00151755
C        1.21508559       7.88337151       3.47182928       0.00066697       0.00712612      -0.00837706
C        0.00600817       9.98162626       3.63065546       0.00200755      -0.00420798      -0.00512425
C        7.41050946       1.42563226       3.70182319      -0.00325478       0.00232973       0.00529676
C        6.17470457       3.56842448       3.86513099      -0.00483322       0.00138111       0.00098577
C        4.96822211       5.71326546       3.96354944      -0.00718523       0.00493562       0.00083066
C        3.72899681       7.83555022       3.69005037       0.00601640       0.00023068       0.01707244
C        2.47716571       9.95386527       3.57464918      -0.00738192      -0.00972998       0.01534477
C        9.87468722       1.42097028       3.65364365       0.00461011      -0.00397180      -0.00583515
C        8.64706942       3.56069124       3.81053760       0.00207495       0.01169212      -0.00218840
C        7.41237104       5.69361557       3.86811723       0.00808275       0.00077929      -0.00419424
C        6.18020453       7.82726016       3.74340522       0.00346063      -0.00915129       0.00425228
C        4.93226539       9.95072243       3.59891414      -0.00650192      -0.00444440      -0.00572944
Ta       2.00032446       4.99301372       4.53167606       0.00305885       0.00196095       0.00077753
