49
Lattice="12.336457 0.0 0.0 -6.168228499999997 10.683685154694365 0.0 0.0 0.0 15.0" Properties=species:S:1:pos:R:3:forces:R:3 energy=-436.5346405822435 free_energy=-436.5346405822435 stress="-0.0028447320197648803 -0.0016549058463004853 7.4281444530885195e-06 -0.0016549058463004853 -0.003354846478701101 5.943730195064089e-06 7.4281444530885195e-06 5.943730195064089e-06 2.6807824507994364e-06" pbc="T T T"
C       -0.00412498       0.00647313       3.64857062       0.00754353      -0.00876063       0.00297576
C       -1.25133159       2.14175495       3.61903764      -0.00546736       0.00151660       0.00132059
C       -2.50611961       4.26719360       3.91577002      -0.00108791       0.00549570      -0.00026187
C       -3.72770716       6.40592873       4.02395106      -0.00267444       0.00050648      -0.00676222
C       -4.93925906       8.54993497       3.87601622      -0.00591500       0.00005834      -0.00137744
C        2.46350690      -0.03806308       3.61305489       0.00407080       0.00514529      -0.00457618
C        1.22878150       2.05580562       3.22832327      -0.00762447      -0.00531443       0.00585961
C       -0.09718484       4.32569977       3.64199724       0.00083444      -0.00149137       0.00591065
C       -1.27896513       6.41322974       4.03334781      -0.00179713      -0.00018225       0.00021407
C       -2.47862325       8.53652437       3.92747727      -0.00091041      -0.00029429       0.00602893
C        4.93111286      -0.02810589       3.74068391      -0.00928998      -0.00124698       0.00033792
C        3.71055071       2.03759195       3.22541123       0.01109037       0.00140200      -0.00715162
C        1.22811606       6.36129500       4.00300291       0.00423004      -0.00430150       0.00033644
C        0.00025161       8.51953150       3.94899156       0.00188516       0.00197233      -0.00730251
C        7.39078104      -0.01282266       3.82436284      -0.00299479      -0.00009403       0.00619610
C        6.14276796       2.13697993       3.74982684      -0.00298849       0.00565254       0.00300117
C        4.88180310       4.32859583       3.80431897       0.00984468      -0.00985368       0.00844887
N        3.76619793       6.52482157       3.76012150      -0.00744378       0.00161700      -0.01013419
C        2.46733102       8.53713439       3.85245703       0.00233872      -0.00157999      -0.00416727
C        9.85608305       0.00071040       3.75010920       0.00314576       0.00424354       0.00090430
C        8.61278711       2.13479260       3.83065030      -0.00487105       0.00418001       0.00116909
C        7.35992492       4.26644931       3.98198816       0.01084318      -0.00656979      -0.00341474
C        6.16574030       6.44380120       4.00342378       0.00067164      -0.00713015       0.00478357
C        4.95260824       8.57588763       3.80700224      -0.00369479       0.00272694      -0.00071536
C       -0.01475867       1.42796782       3.49311654      -0.00246082      -0.00878056       0.00902581
C       -1.28251002       3.55361626       3.72672405      -0.00652563       0.00863781      -0.00512248
C       -2.49618101       5.69274847       4.00909094      -0.00445240       0.00147155       0.00398353
C       -3.71236987       7.83008049       3.96188449      -0.00440827       0.00321519      -0.00858102
C       -4.94149318       9.96639325       3.71378707       0.00884222      -0.00063756      -0.00301026
C        2.46144229       1.37361512       3.31086005       0.00739913      -0.00441828      -0.01726548
S        1.23502654       3.72331319       2.70732995       0.01441043      -0.00147415       0.00108425
C       -0.01929937       5.69977614       3.94922709       0.00087702       0.00526681       0.00210465
C       -1.24526007       7.82589433       3.99968578       0.00212442       0.00105171      -0.00080320
C       -2.47359533       9.94883192       3.76355044      -0.00574433      -0.00143017      -0.00166904
C        4.92890773       1.39660852       3.57915345      -0.00004485      -0.00322612       0.00164825
S        3.85304728       3.62136553       2.38832288      -0.00379367       0.01010782       0.00526474
C        1.25344984       7.77683493       3.95243159       0.00122159       0.00001289      -0.00230959
C       -0.00157984       9.93996908       3.85283960      -0.00787508       0.00264447      -0.00063895
C        7.37911135       1.41768946       3.81312747      -0.00632944       0.00452529       0.00402428
C        6.14666145       3.53954175       3.89115040       0.00619411       0.00828634       0.00159707
C        4.91030712       5.77650355       3.94382243      -0.00214017       0.00738319       0.00149150
C        3.72243818       7.87722332       3.79184259      -0.00198247       0.00213652      -0.00071622
C        2.45861642       9.96309274       3.81686002       0.00196553      -0.00343482      -0.00159580
C        9.85732968       1.42774742       3.73509238      -0.00434061       0.00594887       0.01116755
C        8.59980488       3.55555057       3.92273475       0.00571523      -0.00009667      -0.01042681
C        7.37142044       5.69863356       4.02199032       0.00506560      -0.01178349       0.00511080
C        6.16605126       7.85316464       3.90319082      -0.00622098      -0.00510097       0.00281385
C        4.92975323       9.98739986       3.73882282       0.00468276       0.00246994       0.00196453
Ta       2.91604429       4.81384266       4.15818510      -0.00191807      -0.01047328      -0.00076562
