49
Lattice="12.336457 0.0 0.0 -6.168228499999997 10.683685154694365 0.0 0.0 0.0 15.0" Properties=species:S:1:pos:R:3:forces:R:3 energy=-436.59099148132685 free_energy=-436.59099148132685 stress="-0.004193019930368437 0.00095104457163537 7.184300483075821e-07 0.00095104457163537 -0.01040434647303106 3.2286525687833725e-06 7.184300483075821e-07 3.2286525687833725e-06 -1.1280900057227064e-06" pbc="T T T"
C        0.01557310       0.01564119       3.80920679      -0.00071736      -0.00352083      -0.00473132
C       -1.23468668       2.14299128       3.64282124       0.00677626      -0.00584474       0.00194598
C       -2.52145474       4.27458046       3.71440482       0.00374975      -0.00276167       0.00402015
C       -3.74220402       6.40194817       3.88075900      -0.00008735      -0.00138339      -0.00233696
C       -4.94460653       8.53278211       3.92384580      -0.00030722       0.00147121      -0.00132514
C        2.47433506      -0.03724945       3.82839048      -0.00636038      -0.00297767      -0.00288891
C        1.27470505       2.06437253       3.45772709      -0.00605085      -0.00815928      -0.00384761
C       -0.15669235       4.29807844       3.16216360      -0.00970191       0.00527194      -0.00136977
C       -1.30232345       6.42358321       3.52547363       0.00526314       0.00268313      -0.00590930
C       -2.46658328       8.52480809       3.81098828       0.00394271      -0.00459383       0.00935685
C        4.94646807      -0.03547575       3.85607716       0.00684736       0.00153552       0.00733562
C        3.74425876       2.04779106       3.74504441      -0.00475210      -0.00042940      -0.00516682
S        1.37775594       6.35105902       2.73058017       0.00872544       0.00363520       0.00269566
C        0.00363622       8.54177002       3.62638733      -0.00255985      -0.00357158       0.00085962
C        7.40030179       0.01455937       3.85429644       0.00165211      -0.00220117      -0.00416558
C        6.16416111       2.13393677       3.98196015       0.00518498       0.00709187       0.00300750
C        4.86276676       4.22482750       4.10815480       0.00044303       0.00083767      -0.00574866
C        3.75645046       6.55484332       3.88141819       0.00216641       0.00054183       0.00756029
C        2.47658503       8.61294559       3.65161635      -0.00924711      -0.00120055       0.00080110
C        9.88097186       0.03067252       3.83699698      -0.00027986       0.00671750       0.00032836
C        8.62877887       2.14816407       3.89328908      -0.00219964       0.00155234      -0.00926665
C        7.35722730       4.26789916       3.99907852      -0.00231926       0.00100947      -0.00090034
C        6.14170584       6.40305348       4.02586957      -0.00191379      -0.00413290       0.00672883
C        4.95009981       8.58695674       3.86363326       0.00016253       0.00149674      -0.00113314
C        0.01281133       1.43517427       3.63657858       0.00078178      -0.00895324       0.00769264
C       -1.30389311       3.54784305       3.51173241       0.00601087      -0.00521488       0.00926233
C       -2.52198636       5.69606748       3.71661027       0.00537953       0.00203964       0.00018965
C       -3.71610504       7.82049747       3.88512545      -0.00096124      -0.00120375      -0.00695084
C       -4.93412883       9.95894608       3.86196663      -0.00533056      -0.00132393      -0.00523245
C        2.48938193       1.38278342       3.68318729      -0.00814871      -0.00184639      -0.00806397
S        1.37240431       3.61928529       2.69512604       0.00235405       0.00446523       0.00016930
C       -0.15251377       5.67212928       3.18846032      -0.00400712       0.00283686      -0.00598665
C       -1.24102009       7.82956845       3.64403380       0.00408053      -0.00208449      -0.00180751
C       -2.45981129       9.94335663       3.84883121       0.00074637      -0.00167711       0.00347474
C        4.96369612       1.38124253       3.88202420       0.00394128       0.00791246      -0.00440437
N        3.76172082       3.39828588       3.89545992       0.00137335       0.00001815       0.00742622
C        1.26183710       7.92574415       3.43287514      -0.00588589       0.00450566       0.00123259
C        0.01278226       9.95760056       3.80635656       0.00453958      -0.00450574      -0.00242014
C        7.39851542       1.43576709       3.93677939       0.00103832      -0.00146128      -0.00086110
C        6.13759680       3.54533679       4.06813881      -0.00175338       0.00581349      -0.00452911
C        4.84480122       5.67272155       4.06377246       0.00090803      -0.00329172       0.00157533
C        3.71392601       7.92858516       3.73656823      -0.00448663       0.00174214      -0.00382955
C        2.47153361      10.02052122       3.80455404       0.00002968       0.00106464       0.00029149
C        9.87731917       1.44674314       3.81017758       0.00330108       0.00677841       0.00991082
C        8.59622573       3.56580638       3.88968253      -0.00161999       0.00054304      -0.00397699
C        7.35521820       5.69264101       3.98517924      -0.00238632      -0.00226493       0.00416987
C        6.15367334       7.82308091       3.95100934       0.00250286      -0.00166407       0.00752838
C        4.94836437      10.00297583       3.84466645      -0.00054600       0.00431402      -0.00355079
Ta       2.74781404       4.95130664       4.36564055      -0.00027852       0.00039038       0.00284034
