50
Lattice="12.336457 0.0 0.0 -6.168228499999997 10.683685154694365 0.0 0.0 0.0 15.0" Properties=species:S:1:pos:R:3:forces:R:3 energy=-447.3933226097074 free_energy=-447.3933226097074 stress="-0.008133919928202735 -0.0015628705655701314 7.523763950734738e-06 -0.0015628705655701314 -0.006269989484337875 8.790493639209748e-06 7.523763950734738e-06 8.790493639209748e-06 -4.2968936101705045e-07" pbc="T T T"
C       -0.02613980      -0.01618756       3.94387285      -0.00047057       0.00036147       0.00815882
C       -1.27501675       2.11406574       4.04467146      -0.00420905      -0.00326742      -0.00083317
C       -2.51122647       4.26342419       3.96711245      -0.00628323      -0.00847031       0.00274540
C       -3.71381747       6.40701704       3.82971261       0.00530020       0.00394786       0.00057161
C       -4.93820404       8.54888596       3.78656411      -0.00757459      -0.00820415      -0.00608669
C        2.44614863      -0.00654258       3.90350478      -0.00285920       0.00865440       0.00660885
C        1.19040890       2.10518680       3.94843351       0.00157976      -0.00240045       0.00846738
C       -0.07556767       4.22536430       3.83718271       0.01116322       0.00309029      -0.00161096
C       -1.26815237       6.39686601       3.71393631      -0.00637381      -0.00964632       0.00061862
C       -2.48281378       8.54284517       3.80914141       0.00669128      -0.00680976      -0.00548490
C        4.90484251       0.00453324       3.86550227      -0.00010219      -0.00581973      -0.00480498
C        3.67111373       2.12533126       3.84424666       0.00919333       0.00971914       0.00647139
C        2.39090512       4.18000336       3.79389442       0.00795360       0.01155039      -0.00388042
P        1.35831715       6.27453314       2.82133851      -0.00448984      -0.00111962       0.00200183
C       -0.04230394       8.56530515       3.65553437       0.00174284       0.00059727      -0.00673513
C        7.36481245       0.01320676       3.88565488       0.00068410       0.00429742      -0.00022918
C        6.13464753       2.14258784       3.89065005      -0.00017370      -0.00072295      -0.00021923
C        4.91158515       4.27941348       3.57052160       0.00126896      -0.00404251       0.00557278
S        3.78810825       6.54613032       2.11207755       0.00490385       0.00865834      -0.00179847
C        2.42398696       8.60647715       3.57403046      -0.00140141       0.00107489       0.00874183
C        9.84329493      -0.00157203       3.94445598      -0.00095060      -0.00823188      -0.00128510
C        8.59903766       2.13184334       4.01519469      -0.00113197      -0.00587233      -0.00520795
C        7.37329115       4.26739442       3.84839537      -0.00541146       0.00884600       0.00827425
C        6.20965038       6.41892205       3.48269239       0.00110782      -0.00346572      -0.00108208
C        4.94784540       8.55266940       3.67029043       0.00179404       0.00608371       0.00074604
C       -0.03768446       1.40027359       4.00285109      -0.00510803      -0.00235136       0.01003770
C       -1.29417593       3.53291543       3.99542723       0.00714542       0.00317823       0.00905458
C       -2.49577765       5.68792651       3.86784826      -0.00561445      -0.00932757      -0.00211685
C       -3.71325205       7.83280620       3.80775576       0.00181451       0.00040847       0.00087245
C       -4.95304656       9.96451641       3.88557873      -0.00289707      -0.00356788       0.00328318
C        2.44205264       1.41756066       3.91147773       0.00821736       0.01402544       0.00726685
C        1.15371516       3.51149313       3.86198865       0.01491492      -0.00677822      -0.00051281
C       -0.09457396       5.62016047       3.56821743      -0.00455056       0.00622983      -0.01536773
C       -1.25679604       7.83046091       3.70526752       0.00487563      -0.01136539      -0.00400282
C       -2.49008983       9.96878017       3.86118659      -0.00433019      -0.00237418      -0.01039766
C        4.89909376       1.42908754       3.87049319       0.00504075      -0.00416412      -0.00538953
C        3.66155099       3.57738095       3.75290457      -0.00394684       0.00602115       0.01349682
C        1.21381649       7.92343352       3.43473150      -0.00612897       0.00818261      -0.00674615
C       -0.03441848       9.98338235       3.81263342       0.00412865       0.00107376      -0.00316214
C        7.36358244       1.42976319       3.95731697      -0.00051830       0.00191361      -0.00454370
C        6.15363312       3.55523797       3.79358543      -0.00583249       0.00347001       0.00975435
C        5.06875778       5.63679022       3.05998373       0.00421301       0.00156679       0.00172803
C        3.68593585       7.89626622       3.41616821       0.00649765      -0.00112849       0.00578858
C        2.43627522      10.00229198       3.83334331      -0.00270739      -0.00269001      -0.00035757
C        9.83312812       1.41305535       4.03814508      -0.00227151      -0.01117271      -0.00973464
C        8.59857641       3.55344292       3.97702636      -0.01015997      -0.00346286       0.00668446
C        7.39927501       5.69220812       3.75306038       0.00604455       0.00838978       0.00144133
C        6.16752904       7.83858362       3.61823688      -0.00787925      -0.00674302      -0.00304274
C        4.91438932       9.96564758       3.88314279       0.00144103       0.00388420      -0.01607807
Ta       3.47202920       5.82353700       4.28367662      -0.01433983       0.00797390      -0.00767645
