49
Lattice="12.336457 0.0 0.0 -6.168228499999997 10.683685154694365 0.0 0.0 0.0 15.0" Properties=species:S:1:pos:R:3:forces:R:3 energy=-442.8900875094737 free_energy=-442.8900875094737 stress="-0.003956443153862509 -0.0018554970970469065 1.3130713416174556e-06 -0.0018554970970469065 -0.0017336303856868894 -4.330541248998148e-06 1.3130713416174556e-06 -4.330541248998148e-06 1.7019118555486775e-06" pbc="T T T"
C       -0.01382337      -0.01132895       3.58239332      -0.00312014       0.00290451      -0.00232470
C       -1.26444466       2.11781786       3.82521241      -0.00086873      -0.00182098      -0.00218514
C       -2.50903085       4.26585359       3.75275598      -0.00135341      -0.00092803       0.00098825
C       -3.71351252       6.40453892       3.58752432      -0.00391326      -0.00760510      -0.00176247
C       -4.93777856       8.54112534       3.46161378       0.00371344       0.00520115      -0.00170903
C        2.46118836      -0.02307111       3.58496392       0.00042570       0.00020911       0.00584326
C        1.21975269       2.01804889       4.04928617       0.00320022       0.00912489      -0.00153824
C       -0.13090945       4.31026671       4.16450211       0.00287207      -0.00494472       0.01129963
C       -1.26706855       6.41556695       3.77737132      -0.00221587       0.00937118      -0.00454182
C       -2.47105085       8.53785478       3.55640364      -0.00424889       0.00480816       0.00298912
C        4.93018463      -0.01433093       3.61850602       0.00086675       0.00607954      -0.00086278
C        3.68265872       2.11791314       3.78931764      -0.00693418      -0.00436135      -0.00239389
C        1.20652491       6.39320964       4.19091620       0.00318178       0.00106565       0.00538620
C        0.00187367       8.51868266       3.71916863       0.00227700       0.00206911       0.00150282
C        7.38843426      -0.01492618       3.63278053       0.00119721      -0.00830680       0.00358385
C        6.14513128       2.14155540       3.70860630       0.00270070       0.00203424       0.00244018
C        4.89189968       4.31500238       3.96828367       0.00584380      -0.00221004      -0.00634113
N        3.76479568       6.49768664       3.66899422      -0.00060488      -0.00128153      -0.00321251
C        2.46236691       8.51624793       3.63014626       0.00149936      -0.00154114      -0.00219716
C        9.84903870      -0.01383397       3.57016795       0.00137221       0.00171309      -0.00292229
C        8.60924874       2.12666440       3.67669355      -0.00580311       0.00187888      -0.00027083
C        7.36956527       4.27045571       3.70325124       0.00454891      -0.00030227      -0.00259037
C        6.17074059       6.42861745       3.60939225       0.00246366      -0.00154433       0.00258388
C        4.93925459       8.55418517       3.41176680      -0.00124860      -0.01126539       0.00600535
C       -0.02923862       1.39238785       3.82291486       0.00381115       0.00498229      -0.00583091
C       -1.29241690       3.54425710       3.91056036      -0.00325619      -0.00405778       0.00060267
C       -2.48758514       5.69359131       3.69745884      -0.00069173       0.00004099       0.00285673
C       -3.70347147       7.82788057       3.51741046      -0.00137421      -0.00395196      -0.00447608
C       -4.94420305       9.96226068       3.51779175       0.00008879       0.00769514       0.00154473
C        2.45925109       1.37900339       3.79026268      -0.00605203      -0.00183439      -0.00053905
P        1.31405301       3.59332281       4.76274061      -0.00505187       0.00553720       0.00063305
C       -0.03765433       5.72126134       4.04917145      -0.00003986      -0.00139215      -0.00075944
C       -1.24047099       7.82596989       3.67519078      -0.00142980       0.01051479      -0.00274735
C       -2.46980633       9.95635360       3.55917573       0.00139357       0.00416798       0.00864057
C        4.91961272       1.41299607       3.68333826      -0.00229848       0.00579234      -0.00729487
C        3.71047374       3.53785927       3.95926046       0.00787736      -0.00382020       0.00382779
C        1.24856318       7.76966281       3.85923813       0.00343840       0.00442265       0.00229181
C       -0.00461741       9.94220577       3.64471214      -0.00099797      -0.00223999      -0.00175405
C        7.37931472       1.41552262       3.65642133      -0.00140935      -0.00617568       0.00639423
C        6.14956823       3.56541626       3.78871336       0.00785151       0.00161470      -0.00411874
C        4.94021814       5.76567354       3.85283990       0.00035953      -0.00022707      -0.00315291
C        3.71348771       7.85146075       3.48153302      -0.00430014      -0.00610441      -0.00768562
C        2.45184514       9.94825160       3.59077339       0.00401727      -0.00235101       0.00102821
C        9.84711578       1.41083326       3.67672735      -0.00435296       0.00407780       0.00117150
C        8.60300891       3.55394346       3.69706982      -0.00081540       0.00168314      -0.00394853
C        7.38965524       5.69850429       3.62843618      -0.00239866      -0.00659056       0.00076074
C        6.16565913       7.83664255       3.45745212       0.00553084      -0.00183788       0.01040912
C        4.92180882       9.97034514       3.49377087      -0.00183268      -0.00865242      -0.00128307
Ta       3.08818211       5.18914076       4.94173749      -0.00391881      -0.00164135      -0.00434068
