49
Lattice="12.336457 0.0 0.0 -6.168228499999997 10.683685154694365 0.0 0.0 0.0 15.0" Properties=species:S:1:pos:R:3:forces:R:3 energy=-441.40912233114324 free_energy=-441.40912233114324 stress="0.001201198919369931 0.0012919371368038223 -1.2451029712432459e-06 0.0012919371368038223 0.002079517252454969 1.5705187316411323e-06 -1.2451029712432459e-06 1.5705187316411323e-06 4.7330111229866074e-08" pbc="T T T"
C        0.00034405       0.02651304       3.61737200       0.00003350      -0.00659869       0.00469525
C       -1.23500237       2.15136035       3.73606149       0.00744145      -0.00035453       0.00187050
C       -2.46826862       4.27308792       3.83530247      -0.00054245       0.00059172       0.00082485
C       -3.71674499       6.40433618       3.79220448      -0.01474787      -0.00666015       0.00803516
C       -4.94823341       8.54831275       3.65222664       0.00193509       0.01503521      -0.00972887
C        2.45623573       0.01561289       3.60773207       0.00937131       0.00519925       0.00464134
C        1.22600941       2.20426391       3.73815396      -0.00446447      -0.00644724      -0.00567911
C        0.01173214       4.28202885       3.93055301       0.00007690      -0.00013706      -0.00511501
C       -1.24472017       6.41148750       3.86112707       0.00314097      -0.00517352       0.00012265
C       -2.47738580       8.54103558       3.70832041       0.00450895      -0.00900611       0.00634006
C        4.93197286      -0.01899208       3.65514414      -0.00377140       0.00645533       0.00120249
C        3.72517174       2.06437076       3.50696030      -0.00348505      -0.00572805      -0.01381966
O        1.14826625       6.44636678       4.12048208       0.00801642      -0.01100485       0.00106785
C       -0.00859671       8.52132850       3.76921428       0.00647792       0.01230241      -0.00220071
C        7.39482663      -0.01266361       3.70477827      -0.00012289      -0.00829091       0.00294257
C        6.16728270       2.13162632       3.79658815      -0.00364793      -0.00028799      -0.01062984
C        4.89754763       4.24770627       4.01940124       0.01122531      -0.00696046       0.00520460
C        3.72397494       6.46095350       3.57997088       0.00566544       0.00698693       0.00051779
C        2.43087059       8.52341661       3.65905160      -0.00112828      -0.00306233       0.01110735
C        9.85827486      -0.00093717       3.64579710      -0.00268812       0.00479121      -0.00090423
C        8.62992467       2.13552318       3.77806067      -0.01383962       0.00616688       0.00866379
C        7.38273566       4.26477940       3.89902650      -0.00165934       0.00240966      -0.00554866
C        6.16481665       6.40810614       3.75716695      -0.00162845       0.00398400      -0.00522323
C        4.92548801       8.56064153       3.56353173      -0.00388050       0.00001677       0.00304962
C        0.00377705       1.45791984       3.68160671       0.00257800      -0.00875674       0.00552786
C       -1.23639537       3.56604139       3.81998954       0.00294249      -0.00174615       0.01259750
C       -2.47923817       5.69339145       3.83721192      -0.00808025      -0.00229560      -0.00829943
C       -3.71882236       7.83072477       3.71564640      -0.00669766      -0.00059408       0.00695844
C       -4.94220231       9.98188678       3.61584872       0.00679706       0.01611000       0.00482731
C        2.46560051       1.46146346       3.59317553      -0.00164243      -0.00093402       0.00578666
N        1.20331894       3.56579521       3.97219166       0.00303075       0.00342092      -0.00314198
C       -0.04319909       5.70079826       3.97297124       0.00338433      -0.00349773       0.00406174
C       -1.25236940       7.83123438       3.78642378       0.01207700      -0.00253620      -0.00316170
C       -2.48142631       9.97565020       3.64012562       0.00413606      -0.00389354       0.01355523
C        4.94412511       1.40618881       3.63503765      -0.00245329       0.00118993      -0.00506829
O        3.76765644       3.47834430       3.35963969       0.00537305      -0.00843258      -0.01665385
C        1.20535471       7.83508981       3.82789306       0.00076924      -0.00080399      -0.00327093
C        0.00019555       9.95055963       3.70459218      -0.00374208       0.01196411       0.00439216
C        7.39211290       1.42230006       3.75841795      -0.00976137      -0.00767411       0.00609521
C        6.15872724       3.53834829       3.96888023       0.00504352      -0.00126925      -0.00475928
C        4.88318020       5.68424812       3.82164615       0.00486621      -0.00357384       0.00812445
C        3.68804553       7.85523698       3.53476049      -0.00170761       0.00495627       0.00714719
C        2.45033769       9.95795640       3.66273468      -0.00009009      -0.00539055       0.00142071
C        9.86544289       1.42581170       3.71479060      -0.00483273       0.00954969      -0.00822401
C        8.62251554       3.55925722       3.83792276      -0.00431980       0.00712318       0.01130404
C        7.37843517       5.69227128       3.82925793      -0.00809810      -0.00624927      -0.01445274
C        6.15457358       7.82816635       3.64429768       0.00295393       0.00601605      -0.01200639
C        4.93190424       9.98506375       3.59793794      -0.00238013      -0.00296691      -0.00753072
Ta       2.93922055       4.90453560       4.48749195      -0.00243299       0.00605691      -0.00666570
