49
Lattice="12.336457 0.0 0.0 -6.168228499999997 10.683685154694365 0.0 0.0 0.0 15.0" Properties=species:S:1:pos:R:3:forces:R:3 energy=-432.3943448168815 free_energy=-432.3943448168815 stress="-0.0052776410745110774 -0.0008693121511343127 4.761186148379915e-06 -0.0008693121511343127 -0.007484707069176428 -8.499726880375576e-07 4.761186148379915e-06 -8.499726880375576e-07 -1.234943487151162e-06" pbc="T T T"
C       -0.00576606       0.00636070       3.89115375       0.00180404       0.00277413      -0.00317585
C       -1.25633744       2.13149987       3.71658361      -0.00343586       0.00461063       0.00522421
C       -2.51352361       4.27312818       3.84606876       0.00389307      -0.00529325       0.00682194
C       -3.73204997       6.41086608       4.02453790       0.00298606      -0.00044386      -0.01100364
C       -4.94048874       8.55009819       4.05099722      -0.00709621      -0.00677362       0.00737649
C        2.46132075      -0.03396854       3.82032339      -0.00088235       0.00559445      -0.00545739
C        1.22234622       2.01999373       3.35301397      -0.00382080      -0.00159444       0.00314757
C       -0.17050201       4.30236253       3.25376201      -0.00530333      -0.00400624       0.00083283
C       -1.29490423       6.42477732       3.70961208      -0.00406804      -0.00257614      -0.01626381
C       -2.46719183       8.53728327       3.95804033      -0.00624251       0.00392597      -0.00715415
C        4.92586652      -0.00380179       3.86874537      -0.00177465      -0.00854613      -0.01195871
C        3.69300763       2.06474322       3.36569407       0.00926884      -0.00144479       0.01007002
S        1.32708503       6.39109526       2.80087659       0.00962072      -0.00288522      -0.01143551
C       -0.00284844       8.54662221       3.80608319       0.00049156       0.00626305       0.01160707
C        7.39066733       0.00900824       3.97320048       0.00499179       0.00927844       0.00988082
C        6.15210122       2.14355272       3.82637514      -0.00006042      -0.01138307       0.00379748
C        4.92374848       4.33518459       3.59696814      -0.00552683       0.01507171       0.00079671
N        3.75251593       6.51896304       3.88416240       0.00117621      -0.00029024      -0.00506321
C        2.47017965       8.56947511       3.88630511      -0.00064848       0.00130724       0.00285471
C        9.86281353       0.01499518       3.98999522       0.00354358       0.00936427       0.01144015
C        8.61504626       2.14301249       3.95986306       0.00563697       0.00470658      -0.00549226
C        7.36775847       4.27724182       3.98084699       0.00239316      -0.00347223       0.00369128
C        6.15585255       6.43684656       4.05134853       0.00022137      -0.00140325       0.00631523
C        4.94238897       8.57181758       4.03002460      -0.00312243      -0.00057720       0.00104402
C       -0.02368826       1.41257180       3.66114811      -0.00669582       0.00388405       0.00543317
C       -1.30716071       3.54398562       3.61895507      -0.00312147      -0.00136933       0.00046773
C       -2.51126453       5.69782540       3.88392361       0.00027782      -0.00652394      -0.00888712
C       -3.70988987       7.83298568       4.03367786      -0.00437777      -0.00004394      -0.01157684
C       -4.94068321       9.97033857       3.93878798       0.00096161      -0.00330522       0.00183156
C        2.45500933       1.36610915       3.50202836       0.00207622       0.00599092      -0.01764842
S        1.27746029       3.57079533       2.60049444       0.00559853      -0.01635669       0.00111754
C       -0.16100933       5.67995945       3.30919730       0.00019471      -0.01197179      -0.00264729
C       -1.24208277       7.83443233       3.82252985      -0.00559365       0.00416738      -0.00930507
C       -2.47147664       9.95960989       3.90238265      -0.00460067       0.00145186       0.00113913
C        4.93044619       1.41104943       3.69966252       0.00149984      -0.01475260       0.00558046
P        3.92631326       3.48672715       2.22513768      -0.00188688       0.01754671       0.00679872
C        1.25186610       7.90835578       3.62458231      -0.00171995       0.00020246      -0.00412203
C       -0.00668259       9.97431644       3.92230503       0.00355835       0.00813752       0.01123058
C        7.38430712       1.43291140       3.95723634       0.00743629       0.00415264      -0.00644053
C        6.16930336       3.55416010       3.83224446      -0.00265290      -0.00752525       0.00049766
C        4.90872977       5.76553342       3.90239093       0.00117173       0.00788723      -0.00177319
C        3.71928368       7.87983020       3.92470449      -0.00075360      -0.00102794       0.00535304
C        2.46042946       9.99180918       3.99847074       0.00341054       0.00640948      -0.00516871
C        9.85965534       1.43516652       3.91380135       0.00303706       0.00813277       0.01275360
C        8.60007711       3.56352689       3.95867347       0.00462901      -0.00084396      -0.00124910
C        7.36914205       5.70362589       4.03795684       0.00435014       0.00029202       0.00217907
C        6.16291032       7.84790963       4.07129694      -0.00748496      -0.00573928       0.00268607
C        4.92989911       9.99112208       3.99431090       0.00188564       0.00364654      -0.00048312
Ta       2.96741254       4.72273424       3.97423844      -0.00524527      -0.01464841       0.00433707
