50
Lattice="12.336457 0.0 0.0 -6.168228499999997 10.683685154694365 0.0 0.0 0.0 15.0" Properties=species:S:1:pos:R:3:forces:R:3 energy=-454.4000905169705 free_energy=-454.4000905169705 stress="-0.0022077891693524396 0.002497739611799228 -4.072944235749813e-06 0.002497739611799228 -0.002462243983632093 5.081322514375034e-06 -4.072944235749813e-06 5.081322514375034e-06 6.371995732719289e-06" pbc="T T T"
C        0.00262720      -0.01488340       3.64290425      -0.00736370       0.00592313       0.00589369
C       -1.22051327       2.12101821       3.72028940       0.00248410       0.00420543       0.00486905
C       -2.45758932       4.24691354       3.74164116       0.00158957       0.00261576       0.00759342
C       -3.72343255       6.37815944       3.73861833      -0.00138461      -0.00477005      -0.00998850
C       -4.95670451       8.51579055       3.66178579       0.00177382      -0.00090674       0.00857915
C        2.45953086      -0.02675912       3.71192940      -0.01013017       0.00123675      -0.00432213
C        1.25332638       2.12965736       3.75915327      -0.00545080      -0.00297044      -0.00101393
C        0.03322653       4.26865920       3.74363963       0.00740714       0.00183525       0.00346472
C       -1.26666479       6.39347460       3.68097708       0.00140054       0.00840672      -0.00448323
C       -2.48956777       8.51991813       3.70672103       0.00112479       0.00494469      -0.00700800
C        4.92753953      -0.02847468       3.78899008       0.00496305      -0.00032240       0.00148287
C        3.69668537       2.08986530       3.87211592       0.00239809      -0.00778268       0.00400579
N        2.50601439       4.19404234       3.99266342      -0.00012436       0.00430341       0.00190464
N        1.10889056       6.41564735       3.73817688      -0.00143212      -0.00073864       0.00111345
C       -0.03286058       8.52705994       3.77057223       0.00635756       0.00157336      -0.00292138
C        7.40239482      -0.03019684       3.82586003      -0.00385660      -0.00343455       0.00768821
C        6.17493016       2.09939004       3.88410409       0.00028009      -0.00257175      -0.00014044
C        4.94037775       4.22126282       4.07618867       0.01039511       0.00012789       0.00296595
O        3.44094752       6.84074380       2.44473780       0.00204006       0.00182102       0.00687046
C        2.45432751       8.49890687       3.79788693       0.00348469      -0.00509852       0.00152623
C        9.86646954      -0.02533418       3.70734668      -0.00363070      -0.00939806      -0.00786835
C        8.64395100       2.10680844       3.80398601      -0.00183979      -0.00344847      -0.00610487
C        7.40894070       4.23579006       3.86782850      -0.00668435       0.00359505       0.00835340
C        6.14548928       6.36972580       3.88424155      -0.00033966       0.00381171      -0.00268540
C        4.94026307       8.53868354       3.49584869       0.00732565       0.00555395      -0.00446033
C        0.01562730       1.41692549       3.69991108      -0.00537687       0.00262953      -0.00015142
C       -1.20890592       3.54651119       3.72955605       0.00672533       0.00561185       0.00490458
C       -2.48506561       5.66882543       3.71511096       0.00196608       0.00289607      -0.01179537
C       -3.72620257       7.80526781       3.70043132       0.00186849      -0.00395080      -0.00584934
C       -4.94418225       9.94349028       3.65066482      -0.01174756       0.00208291       0.01274637
C        2.46722270       1.39856765       3.77503046      -0.00482886      -0.00095518       0.00280809
C        1.28771468       3.56416264       3.82930045       0.00176763      -0.00374655       0.00031367
C       -0.04187664       5.68753530       3.69217888       0.00072370       0.00401300       0.00318433
C       -1.26011466       7.81215855       3.71123103       0.00515518       0.00748053      -0.00334837
C       -2.47867585       9.94515262       3.73289098      -0.00111301       0.00684776      -0.00250819
C        4.93352431       1.39095280       3.85380712       0.00639211      -0.00407858      -0.00610034
C        3.68667625       3.50362421       4.00607149       0.00291828      -0.00358969      -0.00055644
C        1.17490986       7.80517599       3.81384050       0.00227426      -0.00564328      -0.00093189
C       -0.00832603       9.94766474       3.79678535       0.00237706      -0.00253005       0.00264410
C        7.40847774       1.39232365       3.83840121      -0.00442301      -0.00176024       0.00102070
C        6.18583575       3.51092891       3.94510843       0.00295928      -0.00303302       0.01084076
C        4.98610195       5.61604119       4.16996562       0.00680896      -0.00062516      -0.00365886
C        3.65113727       7.92897983       3.19852804      -0.01400462      -0.00043605      -0.00008075
C        2.46671005       9.95917446       3.81095178      -0.00440944      -0.00565442       0.00101774
C        9.87841446       1.40229295       3.74358658       0.00262479      -0.00624995      -0.00838575
C        8.64775942       3.53067458       3.80310617      -0.00602300       0.00159465      -0.00425223
C        7.39634418       5.66035640       3.83029344      -0.00533292       0.00182315      -0.00277348
C        6.13912545       7.79649782       3.66460770       0.00596109       0.00342834       0.00637006
C        4.93524664       9.95649443       3.59838015       0.00091806      -0.00248140      -0.00085460
Ta       2.95220134       6.39905794       4.34271282      -0.00496840      -0.00218523      -0.00991785
