50
Lattice="12.336457 0.0 0.0 -6.168228499999997 10.683685154694365 0.0 0.0 0.0 15.0" Properties=species:S:1:pos:R:3:forces:R:3 energy=-444.32337213847995 free_energy=-444.32337213847995 stress="-0.001926567728477131 0.0014239957829639506 7.386122405660705e-06 0.0014239957829639506 -0.007822551777905364 6.020478196938296e-06 7.386122405660705e-06 6.020478196938296e-06 -8.542759264075187e-07" pbc="T T T"
C       -0.01147587       0.03358824       3.71558697      -0.00358807      -0.00675272       0.00863464
C       -1.23682364       2.17047789       3.80712087      -0.00544258      -0.00515725      -0.00233766
C       -2.48583644       4.30413888       3.91709192       0.00059937       0.00258400      -0.00136443
C       -3.73721765       6.43184393       3.89172125       0.00274530       0.00434225      -0.00546726
C       -4.96943560       8.55706652       3.75211994      -0.00280914      -0.00137145      -0.00849127
C        2.44971604      -0.00042003       3.69108073      -0.00100130      -0.00128624      -0.00583588
C        1.24154291       2.14914725       3.61627639       0.01157517       0.00164931       0.00100484
C       -0.03426273       4.30210795       3.92264920      -0.00325116      -0.00113668      -0.00383429
C       -1.27539918       6.43923865       4.15181027      -0.00618088      -0.00407888      -0.00614423
C       -2.49298228       8.56431488       3.96983016      -0.00528838       0.00295027       0.00974796
C        4.91520388       0.01551825       3.84575980       0.00149741      -0.00354088      -0.00386734
C        3.70833210       2.09297872       3.35078739       0.00135431       0.00342705       0.00884062
P        2.33982477       4.31632165       2.23548684       0.00065130      -0.00692054      -0.00540074
P        1.46989473       6.31226347       4.73881593       0.00497753       0.00223875      -0.00233814
C       -0.02495112       8.59674120       4.17397480      -0.00146519       0.00092511       0.00540140
C        7.38042689       0.05242262       3.95414699       0.01623797       0.00492617       0.00074269
C        6.16531312       2.14010421       3.68349296       0.00096603      -0.00317487      -0.00146806
C        4.99073919       4.20578804       3.21468755       0.00629592       0.00305308      -0.01106181
P        3.42570528       6.36200829       2.73356507      -0.00219026       0.01031030      -0.00472877
C        2.44634169       8.65460073       3.92272000      -0.00153062      -0.00746955      -0.00272035
C        9.86481158       0.05849637       3.81976883      -0.00585862      -0.00304735      -0.00144516
C        8.62822253       2.17297382       3.84513601       0.00189242       0.01217206       0.00337861
C        7.39400896       4.29257882       3.72608958       0.00372759       0.00364607       0.00151800
C        6.14106488       6.42719475       3.61858148       0.00183814       0.00252523      -0.00007903
C        4.89992190       8.59324423       3.60747894      -0.00867740      -0.00211371      -0.00296126
C       -0.00200968       1.45660823       3.72678596       0.00346594      -0.00316890       0.00524444
C       -1.25264684       3.58845853       3.88162433      -0.00679148      -0.00414465      -0.01042027
C       -2.50213671       5.72629763       3.99271126      -0.00285116      -0.00134864       0.00423027
C       -3.73429540       7.85294227       3.87878480      -0.00187815       0.00323885       0.00423572
C       -4.95499527       9.98375570       3.71923465      -0.00087055      -0.00411642       0.00277236
C        2.45052699       1.42051306       3.51492457       0.00748521      -0.00055377      -0.00017448
C        1.24499812       3.60989761       3.65881077       0.01418048       0.00579845      -0.00329817
C       -0.07962772       5.66860992       4.23021235      -0.00504686      -0.00699530      -0.00373889
C       -1.26319485       7.86441207       4.14239614      -0.00759672      -0.00171123       0.00856557
C       -2.48981776       9.98167177       3.83684142      -0.00392455       0.00068090      -0.00491016
C        4.93254982       1.41887299       3.63308824       0.00085620      -0.00380068      -0.00184113
C        3.81439999       3.44432530       2.85370586      -0.00495653       0.00652285       0.00710533
C        1.23983932       7.97344612       4.25583217      -0.00254993       0.00100097       0.00741522
C       -0.02463596      10.01483976       4.00819566       0.01020421       0.00488196       0.00131551
C        7.39412760       1.45800910       3.84633940       0.00914449       0.00707963      -0.00522439
C        6.20108445       3.54155173       3.53861888       0.00109592      -0.00081677       0.01189229
C        4.90649372       5.62988525       3.42316488       0.00782347      -0.00003797       0.00109767
C        3.63179532       7.97470034       3.51797246      -0.00221754      -0.00744884       0.00821867
C        2.45522932      10.05807180       3.92261231       0.00578325      -0.00761166       0.00299642
C        9.86705775       1.47164693       3.83419848      -0.00818214      -0.00022313       0.00410712
C        8.62322063       3.59385867       3.83737328       0.00344098       0.00964803      -0.00201400
C        7.36635110       5.72219105       3.75158728       0.00581801       0.00307314      -0.00472299
C        6.12971929       7.84475237       3.64083201      -0.00659875       0.00197464      -0.00218256
C        4.92141751      10.01745227       3.72528200      -0.00856947      -0.00290025       0.00881020
Ta       3.25014255       4.61319611       4.43375021      -0.01433921      -0.00772069      -0.00920282
