49
Lattice="12.336457 0.0 0.0 -6.168228499999997 10.683685154694365 0.0 0.0 0.0 15.0" Properties=species:S:1:pos:R:3:forces:R:3 energy=-439.6481741808741 free_energy=-439.6481741808741 stress="-0.007392687285225631 -0.003946893094896811 2.128028223453289e-06 -0.003946893094896811 -0.003130991004001391 -3.139646868668747e-07 2.128028223453289e-06 -3.139646868668747e-07 -1.2903218188377426e-06" pbc="T T T"
C       -0.00896981      -0.00068143       3.86440519       0.00202044      -0.00021441      -0.00099703
C       -1.27057757       2.10717811       3.86934485      -0.00023815       0.00973504       0.01199885
C       -2.48622063       4.25840290       3.82994909      -0.00399082       0.00011844       0.00229663
C       -3.67882098       6.41393317       3.79114964       0.00607471      -0.00497101      -0.00718844
C       -4.91265619       8.56593793       3.82626288      -0.00005236      -0.00824520       0.00096222
C        2.46305940       0.01444197       3.82842942      -0.00099298       0.00291757       0.00322219
C        1.18392991       2.15025858       3.88615963       0.00218044      -0.00564752      -0.00094124
C       -0.05967617       4.20322759       3.98055423       0.00230564      -0.00073229      -0.00834058
C       -1.22941311       6.39374228       3.89989010      -0.00233862      -0.00233658       0.00220482
C       -2.45405160       8.55039123       3.83727249      -0.00363314       0.00560261      -0.00020126
C        4.92769131       0.00871139       3.69356121      -0.00053929      -0.00028019       0.00600008
C        3.65286837       2.11582770       3.45553802      -0.00361428       0.00798754      -0.00692907
B        1.30057115       6.33702734       3.98574388      -0.00572262       0.00401423      -0.00711635
C        0.00225596       8.54218938       3.82800887       0.00247469      -0.00202071       0.00057959
C        7.39126142      -0.00455013       3.71830870       0.00303831       0.00102430      -0.00451707
C        6.15679605       2.13870139       3.51569101      -0.00252738      -0.00257350       0.00276100
C        5.01612235       4.34470839       3.33213071      -0.00916614      -0.00748049      -0.00043949
C        3.77887955       6.41204509       3.69136092      -0.00472960       0.00338787       0.00556802
C        2.47500049       8.54408713       3.81323486       0.00076707       0.00000390       0.00063479
C        9.85598734      -0.01431318       3.79804293      -0.00042748      -0.00113612       0.00265847
C        8.61405037       2.12624120       3.72274388       0.00359167       0.00185729      -0.00879373
C        7.41684749       4.27775902       3.62538730       0.00769517       0.00412723      -0.00706172
C        6.23236962       6.45247705       3.62673523      -0.00213890      -0.00007368       0.00089759
C        4.94958325       8.55121172       3.78201157      -0.00412602      -0.00011232      -0.00296957
C       -0.03356709       1.41557595       3.88808137      -0.00065853       0.00241609       0.00113573
C       -1.28400127       3.51473692       3.89704420      -0.00254347       0.00900884       0.00122137
C       -2.46329882       5.68836939       3.84538723       0.00060013      -0.00724766      -0.00115257
C       -3.68358533       7.84262219       3.82650932       0.00254214      -0.00521162       0.00313661
C       -4.92959348       9.98521271       3.86440833       0.00280782      -0.00528274      -0.00454289
C        2.43944050       1.44474889       3.74767627       0.00109394       0.00032200       0.00400514
N        1.11599833       3.52116657       4.01718425       0.00433137      -0.00661554       0.00153704
C       -0.02573346       5.62686999       3.97123661       0.00179594      -0.00015153       0.00225205
C       -1.22518343       7.82625553       3.85957063      -0.00228018       0.00171367       0.00067065
C       -2.46796515       9.98071053       3.79117209      -0.00309439       0.00572965       0.00507744
C        4.91656289       1.43016440       3.53256416      -0.00604739      -0.00171294       0.00773764
P        3.53099779       3.71099446       2.61932810       0.00807548      -0.00207391      -0.00203645
C        1.24884793       7.84299704       3.86395942       0.00222230       0.00012973       0.00215202
C       -0.00822366       9.97110772       3.74104130       0.00338136       0.00012866       0.00829528
C        7.38073880       1.42119107       3.64641780       0.00256690       0.00178867      -0.00391904
C        6.19597831       3.56471563       3.45982120       0.00647683      -0.00017172      -0.00114188
C        5.01281729       5.75938848       3.50433259      -0.00670313       0.00081281       0.00253851
C        3.71250845       7.82334302       3.76765768      -0.00276864       0.00402406       0.00450860
C        2.45914451       9.96526948       3.77521653       0.00023517      -0.00319078      -0.00172399
C        9.83966358       1.40462027       3.80071496       0.00273483       0.00225891       0.00000709
C        8.62299669       3.55238675       3.72891690       0.00180325       0.00040678      -0.00506027
C        7.43739450       5.70873928       3.67836500       0.00444204       0.00315230      -0.00925986
C        6.19959469       7.86152226       3.75582683      -0.00524777      -0.00222118      -0.00062764
C        4.92974505       9.96455321       3.82542133      -0.00006232      -0.00089593       0.00215479
Tc       2.63922771       4.86233158       4.34494887      -0.00161403      -0.00206858      -0.00125407
