50
Lattice="12.336457 0.0 0.0 -6.168228499999997 10.683685154694365 0.0 0.0 0.0 15.0" Properties=species:S:1:pos:R:3:forces:R:3 energy=-452.34656073213284 free_energy=-452.34656073213284 stress="-0.0055780113384158786 2.67967892661636e-06 -9.787454663666273e-08 2.67967892661636e-06 -0.0012133397103280099 -7.286633060740036e-06 -9.787454663666273e-08 -7.286633060740036e-06 7.703963833675025e-07" pbc="T T T"
C       -0.00339967      -0.00498187       3.61722421       0.00107583       0.00149316      -0.00461795
C       -1.24369895       2.12876316       3.66948843      -0.00005497      -0.00064198       0.00104260
C       -2.47390458       4.26676935       3.60706740       0.00155629       0.00562625       0.00544817
C       -3.70190734       6.41033319       3.52210655       0.00222181       0.00309158      -0.00489188
C       -4.93146545       8.55228162       3.53358605      -0.00342721      -0.00378430       0.01247113
C        2.46650096       0.00877934       3.61772190      -0.00344658      -0.00039551       0.00920192
C        1.21991182       2.12160865       3.80574476      -0.00217954       0.00060108      -0.00157213
C       -0.02450054       4.28701647       3.86513930      -0.00319386      -0.00656682       0.00434366
C       -1.25880010       6.42009819       3.63104549       0.00143714      -0.00177762       0.00620175
C       -2.47247707       8.55237167       3.53222136       0.00440602      -0.00229739       0.01384440
C        4.93610558      -0.00452306       3.61669141      -0.00182271      -0.00166185      -0.00532803
C        3.71275946       2.12184730       3.80609841       0.00291138      -0.00045092       0.00110614
B        2.46585927       4.15180224       4.42353479       0.00327925       0.01144382      -0.00415465
N        1.07033073       6.47359100       4.14556110      -0.00982246       0.00153498      -0.00493458
C       -0.01717874       8.54058149       3.66254679      -0.00339403      -0.00074795      -0.00734452
C        7.40688507      -0.02395622       3.66387858      -0.00659002      -0.00511446       0.00477129
C        6.17676475       2.12895582       3.67206076      -0.00099444      -0.00419730      -0.00210587
C        4.95732131       4.28672175       3.86776454       0.00408928      -0.00361426       0.00407185
N        3.86217263       6.47330296       4.14499997       0.00345064      -0.00057366       0.00094741
C        2.46608182       8.48879075       3.86391409       0.00184268       0.00563305       0.00392051
C        9.86199794      -0.02421540       3.66433039       0.01112270      -0.00338107      -0.00040049
C        8.63491731       2.12228791       3.62075622      -0.00336653       0.00062274       0.00466295
C        7.40709994       4.26641786       3.60935877      -0.00344944       0.01103909       0.00273340
C        6.19184990       6.41978923       3.63376242      -0.00290886       0.00077517       0.00294359
C        4.94955639       8.54039313       3.66380608       0.00713859      -0.00221605      -0.00596100
C       -0.00909884       1.41431706       3.68532948      -0.00254416       0.00085195      -0.00400391
C       -1.24988825       3.55831239       3.69504061      -0.00145662      -0.00199168       0.00114112
C       -2.47536754       5.69503979       3.56957952       0.00343606       0.00394938      -0.00593240
C       -3.70198024       7.83584057       3.51039199       0.00063448       0.00067623       0.00224481
C       -4.93470180       9.97741597       3.57801892      -0.00352828      -0.00120986      -0.00547030
C        2.46639768       1.42752606       3.75849207      -0.00038827       0.00212076       0.00389207
C        1.16766883       3.53944785       3.99122621       0.00688880       0.00096935      -0.00030079
C       -0.04435851       5.72080214       3.86339644      -0.00708018      -0.00650570       0.00535849
C       -1.24776287       7.83736285       3.59380854       0.00379423      -0.00485898      -0.01078324
C       -2.46885942       9.97753606       3.57734561      -0.00123451      -0.00053085      -0.00596429
C        4.94191744       1.41476099       3.68590521       0.00268395      -0.00379750      -0.00161121
C        3.76477906       3.53949615       3.99282268      -0.00497030       0.00158670      -0.00208477
C        1.19199879       7.82020392       3.87750092      -0.00576282       0.00102165      -0.00361873
C       -0.00024087       9.96090109       3.63358703      -0.00640060      -0.00257994       0.00982887
C        7.40555902       1.40642695       3.63932742      -0.00501791      -0.00476294      -0.00757563
C        6.18297229       3.55821733       3.69826272       0.00200605      -0.00103927       0.00006581
C        4.97745333       5.72036276       3.86533864       0.00249324      -0.00009722       0.00602570
C        3.74023569       7.82011360       3.87792601       0.00813444      -0.00045470      -0.00463108
C        2.46608926       9.93249266       3.71682549       0.00335165       0.00316502       0.00190435
C        9.86402597       1.40613636       3.63754287       0.00155625      -0.00172897      -0.00119274
C        8.63491779       3.54927969       3.59455603      -0.00238056       0.00693729      -0.00706637
C        7.40830929       5.69464139       3.57116727      -0.00246154       0.00936797      -0.00342514
C        6.18030857       7.83716143       3.59595246      -0.00157180      -0.00566033      -0.01183452
C        4.93267733       9.96066423       3.63468332       0.01023111      -0.00415434       0.00782068
Tc       2.46644475       5.86542011       5.40622205      -0.00029366       0.00428624       0.00081356
