49
Lattice="12.336457 0.0 0.0 -6.168228499999997 10.683685154694365 0.0 0.0 0.0 15.0" Properties=species:S:1:pos:R:3:forces:R:3 energy=-434.3146783246573 free_energy=-434.3146783246573 stress="-0.00014694032384887838 -0.004203094565263129 -1.3951085043660017e-05 -0.004203094565263129 -0.007152912711123666 -1.2024051546149536e-05 -1.3951085043660017e-05 -1.2024051546149536e-05 -4.9958975452887135e-06" pbc="T T T"
C        0.01868419      -0.02451092       3.45484771      -0.00438959      -0.00728090      -0.00663831
C       -1.22555359       2.12743188       3.55749184      -0.00278106      -0.00083025      -0.00535531
C       -2.45739597       4.26165032       3.74112686       0.00095870       0.00132932       0.00463127
C       -3.67205398       6.40082075       3.70849628      -0.00638927      -0.00981395      -0.00546768
C       -4.89771288       8.52753350       3.55507706       0.00495702      -0.00587422      -0.01033605
C        2.50182526      -0.06889850       3.56026612      -0.00193914      -0.00581016      -0.00734071
C        1.26485524       2.03445380       3.46198522      -0.00885116       0.00007756       0.01141786
C        0.01563188       4.26404585       3.91369476       0.00431330      -0.00728611       0.01316012
C       -1.22613986       6.40785482       3.96608662       0.00902466       0.00599437      -0.00382330
C       -2.41915293       8.52283232       3.75346964      -0.00405567      -0.00226709      -0.00514576
C        4.96024535      -0.00816887       3.77339533       0.00939629       0.00307969       0.00648212
C        3.66883041       2.06499331       3.85431752      -0.00872842       0.00588431      -0.00156876
B        1.27586494       6.44762293       4.37861032      -0.00175038      -0.00040080      -0.00413048
C        0.05166543       8.54680214       3.91382594       0.00684693      -0.00333047       0.00189435
C        7.42311368       0.01399430       3.74282926      -0.00132153       0.00186610      -0.00614983
C        6.15514156       2.16742729       3.78203480       0.00436990      -0.00425185       0.00207004
C        4.92803065       4.39901371       3.77396483       0.01448030      -0.00109839       0.00119590
O        3.78297673       6.50250390       3.64205444      -0.01240875       0.00274555      -0.00459725
C        2.53700219       8.56313803       3.78053056      -0.00304529       0.01131552      -0.00768119
C        9.88862978       0.00714692       3.56725610      -0.00102402      -0.00329543       0.00559850
C        8.63833944       2.14544542       3.65814671      -0.00327140      -0.00599951      -0.00251268
C        7.39659951       4.28447426       3.69450415      -0.00210826       0.00185530       0.00364176
C        6.20008059       6.43883260       3.58424171      -0.00592521       0.01150405       0.00842233
C        4.97129071       8.55371526       3.55181740       0.00672182       0.00101817      -0.00392793
C        0.00877288       1.39340477       3.45078648      -0.00530598      -0.00523073      -0.00437756
C       -1.22969786       3.53744149       3.71330404       0.00333144      -0.00026499       0.00611367
C       -2.45010695       5.68870915       3.81349409       0.00374266       0.00413928       0.00191246
C       -3.65655652       7.81924264       3.67020328      -0.00312051      -0.01182471      -0.00302683
C       -4.90850977       9.93943137       3.49855876      -0.00336207      -0.00785758      -0.00178110
C        2.48168525       1.33309780       3.58626281      -0.00481203      -0.00053057      -0.00506741
B        1.38235962       3.51615438       3.65789700       0.00543919       0.00331496       0.01315970
C       -0.01775543       5.67791874       4.12907555       0.00306683      -0.00020794      -0.00333128
C       -1.18671250       7.82500819       3.90703967       0.00404922       0.00489944      -0.01051629
C       -2.42493305       9.93709330       3.69558542       0.00543568      -0.00006011      -0.00464026
C        4.93879529       1.42565230       3.81477960      -0.00235356       0.00853176       0.01609231
P        3.33710229       3.76136215       4.18154270      -0.01102917       0.00291186       0.01545442
C        1.31371556       7.87575279       3.99664817       0.00440745      -0.00506345       0.00082652
C        0.02874867       9.97465171       3.80787741       0.00744314      -0.00276568      -0.00445897
C        7.39844289       1.44475074       3.72128312      -0.00148937      -0.00458142      -0.00407549
C        6.14020185       3.60368789       3.74816559       0.00676444      -0.00515321      -0.00087996
C        4.97546838       5.79205811       3.64934152      -0.00018696      -0.00038856       0.00405990
C        3.77199696       7.86327006       3.67646347       0.00084541       0.01283297       0.00281725
C        2.50166760       9.98194734       3.68377952      -0.00469549       0.00947385      -0.00734375
C        9.87597488       1.43191153       3.57543781      -0.00082425      -0.00471219       0.00647519
C        8.63707406       3.56511116       3.68899666      -0.00191718      -0.00282915      -0.00177098
C        7.42456075       5.69934599       3.65112960      -0.01318281       0.00330029       0.00481879
C        6.20670055       7.84508113       3.54157311       0.00511329       0.00695213      -0.00511325
C        4.94997864       9.97300138       3.51076732      -0.00210071      -0.00458921      -0.00089380
Tc       1.59762098       4.69330799       5.21465568       0.01166159       0.01057215       0.00170770
