49
Lattice="12.336457 0.0 0.0 -6.168228499999997 10.683685154694365 0.0 0.0 0.0 15.0" Properties=species:S:1:pos:R:3:forces:R:3 energy=-437.3287247481863 free_energy=-437.3287247481863 stress="-0.003955216988429144 1.9521390377914163e-06 -1.7645994350788905e-06 1.9521390377914163e-06 -0.0069808734611782755 3.8448400908769755e-07 -1.7645994350788905e-06 3.8448400908769755e-07 5.395531352279158e-06" pbc="T T T"
C       -0.00160073      -0.00790768       3.65100783       0.00562165      -0.00037086       0.00494635
C       -1.23571784       2.13164975       3.65836198      -0.00933676      -0.00012540       0.00560922
C       -2.47149049       4.27112912       3.57094096      -0.00630885       0.00147347      -0.00005147
C       -3.70143349       6.40567521       3.54564526       0.00162340       0.00289918      -0.01126543
C       -4.93589465       8.53774910       3.59258492      -0.00513447      -0.00554397       0.00348607
C        2.46670664      -0.02878065       3.66930214       0.00393834      -0.00586390      -0.00083089
C        1.24125591       2.09551499       3.88344303      -0.00157278       0.00283068       0.00267394
C       -0.03580776       4.28377027       3.85245817       0.00025846       0.00024120       0.00192853
C       -1.24333493       6.41518460       3.66509607      -0.00218921      -0.00273614      -0.00010651
C       -2.46656643       8.53790728       3.58967491      -0.00105970      -0.00219479       0.00279914
C        4.93518771      -0.00772968       3.64987022       0.00022219      -0.00116431       0.00549085
C        3.69259023       2.09549675       3.88475146      -0.00132963       0.00052804       0.00646176
B        1.29980663       6.38238085       4.16678762       0.00447616       0.00350557      -0.00288721
C       -0.00049089       8.54937632       3.72368800      -0.00224986      -0.00557992      -0.00114182
C        7.39973370       0.00894799       3.62832068      -0.00674109       0.00700721       0.00552318
C        6.16979605       2.13163691       3.66310196       0.00675073      -0.00117005       0.00020758
C        4.96998950       4.28318726       3.85994299      -0.00111673       0.00859807      -0.00497612
B        3.63387398       6.38305606       4.16994062      -0.01255640      -0.00801002       0.00276752
C        2.46670842       8.58271016       3.81971645       0.00461245       0.00225945      -0.00243592
C        9.87106917       0.00898438       3.62895591      -0.00293560       0.00343734       0.00099736
C        8.63493054       2.13830400       3.56227997       0.00708947       0.00253980      -0.00255593
C        7.40563209       4.27141397       3.57601990       0.00186759      -0.00548571      -0.00441297
C        6.17685656       6.41481404       3.67076716       0.00833568      -0.00096835       0.00062582
C        4.93447337       8.54894468       3.72685565       0.00043630       0.00334650       0.00369934
C       -0.00034261       1.41738136       3.72300519      -0.00608912      -0.00167100       0.00740853
C       -1.24301344       3.55162007       3.66549925      -0.00776505       0.00089478      -0.00713309
C       -2.47171046       5.69523798       3.57102602      -0.00140738       0.00316595      -0.00125335
C       -3.70123267       7.82815029       3.56189242      -0.00233253      -0.00068330      -0.00640608
C       -4.93734531       9.95746460       3.63010545       0.00602172      -0.00822453      -0.00447767
C        2.46696044       1.38348377       3.82007016      -0.00260228      -0.00099961      -0.00981177
B        1.29958449       3.58393770       4.16502723       0.01474533       0.00241800       0.00459761
C       -0.03608693       5.68325739       3.85341805       0.00291697      -0.00135191      -0.00358320
C       -1.23595605       7.83524663       3.65780684      -0.00339288      -0.00552151       0.00606703
C       -2.46570636       9.95756592       3.62707315       0.00327661      -0.00308399       0.00673903
C        4.93428282       1.41730174       3.72544165       0.00362227       0.00171505       0.00379949
B        3.63362822       3.58350697       4.16809310      -0.01404102       0.00296191       0.00650314
C        1.24097300       7.87058233       3.88354364       0.00366126       0.00467404       0.00637657
C       -0.00112108       9.97451387       3.65018753      -0.00535919      -0.00316537       0.00263190
C        7.40023299       1.42868421       3.59323912       0.00798100       0.00523074      -0.00263781
C        6.17744327       3.55161252       3.67226726       0.00204615      -0.00239392      -0.00426815
C        4.96963579       5.68271666       3.85941144       0.00240826       0.00504122      -0.00185281
C        3.69258363       7.87129116       3.88749146       0.00240407      -0.00838571      -0.00333221
C        2.46715934       9.99502522       3.66844419      -0.00443047       0.00817941       0.00225862
C        9.86992026       1.42877292       3.59146164      -0.00097158       0.00170405      -0.00194434
C        8.63514009       3.56082367       3.54520490       0.00111546      -0.00216493      -0.00670531
C        7.40535677       5.69541761       3.57586982       0.00430795      -0.00236783      -0.00661901
C        6.17001783       7.83475307       3.66207782      -0.00341521      -0.00051224       0.00581595
C        4.93517401       9.97396816       3.65159239       0.00039060       0.00757514       0.00449857
Tc       2.46554196       4.98281764       5.13595598       0.00420772      -0.00248752      -0.01322402
