50
Lattice="12.336457 0.0 0.0 -6.168228499999997 10.683685154694365 0.0 0.0 0.0 15.0" Properties=species:S:1:pos:R:3:forces:R:3 energy=-445.7597852117633 free_energy=-445.7597852117633 stress="-0.003548055551699908 0.002461105123688182 -3.7904896011787594e-06 0.002461105123688182 -0.008978291171893802 5.1548656744975905e-06 -3.7904896011787594e-06 5.1548656744975905e-06 9.110829374477024e-06" pbc="T T T"
C       -0.02758843      -0.00400166       3.92140518      -0.00129960       0.00474854      -0.00684850
C       -1.23945136       2.15385024       3.95517127       0.00371389      -0.00356414       0.00775349
C       -2.47420027       4.27967536       3.92767803       0.00914989      -0.00342291      -0.00026650
C       -3.72926405       6.40602964       3.89316266      -0.00845725       0.00232557      -0.00467261
C       -4.98122350       8.52330193       3.86447309      -0.00687528       0.00617814       0.00726493
C        2.43106214      -0.03126676       3.99756636      -0.00848112      -0.00114390       0.00822384
C        1.21806362       2.11470429       3.87034037      -0.01137293       0.00164888      -0.00400419
C       -0.00948802       4.28349664       3.64448717       0.00840665      -0.00103763       0.00620974
C       -1.26911716       6.41705570       3.68996806       0.00591578       0.00059904       0.00157155
C       -2.49779726       8.53280525       3.92306269       0.00954556      -0.00085772      -0.00742218
C        4.90370477      -0.01475460       4.09037209       0.00242912      -0.00272191      -0.00512526
C        3.68441462       2.07747106       3.96373504       0.00022473      -0.00508476       0.00747474
C        2.48238587       4.14781839       3.61648530       0.00270994      -0.00649580      -0.00558975
S        1.05222828       6.54882211       2.35156692      -0.00086719       0.00926816      -0.00033025
C       -0.05400584       8.58567754       3.74182981       0.00414042       0.00331489      -0.00702205
C        7.37012708       0.02925588       4.04611518      -0.00625065      -0.00315763      -0.01238533
C        6.15043948       2.12195786       4.10574997       0.00602678      -0.00293668      -0.00398354
C        4.95733904       4.17732734       3.66145159      -0.00396869       0.00813585       0.00847629
S        4.35164664       5.83985868       1.54579864      -0.00378187      -0.00599887       0.00594096
C        2.41074506       8.66914713       3.56215637      -0.00361679       0.00549706      -0.01255383
C        9.85486834       0.03653916       3.95137504       0.01106222       0.00341526      -0.00167170
C        8.62394172       2.15198784       4.08755484      -0.00198176      -0.00124912      -0.00013367
C        7.39739785       4.26579988       3.94843835      -0.00830440      -0.00128925       0.00873083
C        6.15738375       6.39118800       3.62476567      -0.00054825       0.00045140       0.00306606
C        4.88892510       8.56302868       3.69355915       0.00408084      -0.00491181       0.00604706
C       -0.01533282       1.42418071       3.92472005      -0.00553652      -0.00109355       0.00769420
C       -1.23826058       3.57572617       3.86963020       0.01186277      -0.00662189       0.00580138
C       -2.48923855       5.69860517       3.86574256       0.00197861       0.00240549       0.00143585
C       -3.74181371       7.82210136       3.89659603      -0.00289151       0.00542667      -0.00033172
C       -4.97314184       9.94704340       3.92879326      -0.00976760       0.00499289       0.00743491
C        2.43995715       1.38994726       3.96182495      -0.00979301      -0.00077299      -0.00578461
C        1.23299249       3.54339705       3.69522168       0.00255646      -0.00159451       0.00583929
C       -0.08447742       5.67839195       3.39960603      -0.00791947      -0.00935680      -0.00816741
C       -1.27157268       7.83966891       3.76178339       0.01355860       0.00191672      -0.00708178
C       -2.49904183       9.95355334       4.02141899      -0.00005920      -0.00081147       0.00090180
C        4.91578557       1.40091166       4.09020087       0.00794376      -0.00372098      -0.00110689
C        3.71364112       3.47988405       3.74023950      -0.00293373       0.00019891       0.00795868
C        1.16374626       8.00334549       3.35292102       0.00075400      -0.00013620      -0.00533954
C       -0.03159312       9.98743811       4.00822634      -0.00143467      -0.00460904      -0.00064142
C        7.38408469       1.43980176       4.13294959      -0.00032091      -0.00612316      -0.01260745
C        6.16918632       3.53334972       3.95067786      -0.00530280      -0.00112885      -0.00361220
C        5.02395818       5.56026681       3.16976267       0.00013820       0.00256614       0.01424135
C        3.63601529       7.98240921       3.52064218      -0.00342121      -0.00042234      -0.00485629
C        2.43508081      10.04851153       3.88534102       0.00221438       0.00620008       0.00288789
C        9.86234780       1.45224849       4.03095364       0.00313474       0.00277707       0.00174578
C        8.62801178       3.56882485       4.02272203      -0.00215849       0.00088413       0.00146379
C        7.37630773       5.69143413       3.84105682      -0.01075765      -0.00177606       0.00640873
C        6.12103993       7.80331875       3.71176381       0.00157633      -0.00074677       0.00006227
C        4.90751947       9.99428278       3.86552964       0.00918029      -0.00390801      -0.00758438
Tc       3.00053965       6.08928771       3.38406632       0.00579860       0.01374388      -0.00551236
