50
Lattice="12.336457 0.0 0.0 -6.168228499999997 10.683685154694365 0.0 0.0 0.0 15.0" Properties=species:S:1:pos:R:3:forces:R:3 energy=-455.4054096840838 free_energy=-455.4054096840838 stress="-0.0044700213084688046 -0.0009858264638784818 -7.730066946375886e-06 -0.0009858264638784818 -0.0033337324250039472 -9.181197821756491e-06 -7.730066946375886e-06 -9.181197821756491e-06 1.3755235233144384e-06" pbc="T T T"
C       -0.00115355      -0.00297701       3.59206432      -0.00098437       0.00903050       0.00261957
C       -1.24347768       2.13025533       3.66612936      -0.00518324      -0.00119385       0.00641602
C       -2.47668031       4.26608403       3.66634751       0.00253324      -0.00968897       0.00642403
C       -3.70268965       6.40805490       3.59044106       0.00582801       0.00036297       0.00197150
C       -4.93035191       8.54769495       3.56312864       0.00153040       0.00373003      -0.00176964
C        2.46673578      -0.00444524       3.58368543       0.00108597      -0.00856445      -0.00347643
C        1.22325786       2.11240842       3.71223026       0.00531885      -0.00325692       0.00333588
C       -0.01606945       4.26241127       3.88229132      -0.00396045       0.00470922       0.00162937
C       -1.25841758       6.41138733       3.71308143      -0.00484715      -0.00300775       0.00230948
C       -2.47029282       8.54633657       3.58236798       0.00179760       0.00370987       0.00280481
C        4.93275392      -0.00294212       3.61518052      -0.00351208       0.00097430      -0.00005527
C        3.69918170       2.12351394       3.71590484      -0.00306329       0.00344276       0.00480005
C        2.45010620       4.14736107       4.17934713      -0.00486509      -0.00548876       0.00002527
C        1.11665598       6.45546295       4.18273566       0.00136306       0.00237310       0.00231756
C       -0.01059182       8.54923163       3.71796663      -0.00243867      -0.00195054       0.00266007
C        7.40094544      -0.00850892       3.67332413       0.00813799       0.00076247       0.00502786
C        6.16209234       2.13804255       3.67231613       0.00121538      -0.00437236       0.00787023
C        4.92175089       4.29134306       3.85884301       0.00123440       0.00296097       0.00255597
N        3.84815833       6.49301288       4.08074024      -0.00785669       0.00110184      -0.00668621
C        2.47808196       8.52444156       3.86225401      -0.00396507      -0.00459516       0.00126773
C        9.86338633      -0.00904969       3.65669539       0.00081018       0.00387047       0.00024185
C        8.62774648       2.13020981       3.63927492       0.00028093       0.01005820       0.01410984
C        7.39265365       4.27059918       3.65579333       0.00434553      -0.00265122      -0.00021284
C        6.18528051       6.42128526       3.66497842      -0.00058973      -0.00670960      -0.00722210
C        4.95403464       8.55407439       3.66723627      -0.00347922      -0.00434749      -0.00656772
C       -0.00672766       1.41668780       3.64524486       0.00063799       0.00756622      -0.00433144
C       -1.24621537       3.55260561       3.72804729       0.00048344      -0.00459452      -0.01066197
C       -2.47580465       5.69399641       3.64437971       0.00042851      -0.01151642      -0.00043468
C       -3.69928802       7.83171375       3.56560275       0.00505100       0.00531207      -0.00987054
C       -4.93457667       9.97186907       3.56619730      -0.00301217       0.00397621      -0.00462398
C        2.46359688       1.41459908       3.66307384       0.00430581      -0.00994851      -0.00004299
C        1.21422716       3.53234660       3.91245799      -0.00841535      -0.00001783       0.00791762
C       -0.03383754       5.69286498       3.91524093       0.00121666       0.00282034      -0.00069217
C       -1.24261795       7.83439631       3.66274779      -0.00462646      -0.00116317       0.00617654
C       -2.46745559       9.96977615       3.58272003       0.00033347      -0.00128270      -0.01518082
C        4.93076691       1.42101222       3.65612147      -0.00600533       0.00110497       0.00490011
C        3.69458337       3.54940462       3.91259216      -0.00076041       0.00901408      -0.00536014
C        1.22188842       7.83234912       3.91668881       0.00192861      -0.00274411      -0.01064476
C       -0.00351141       9.96685590       3.65692536       0.00067513       0.00158897       0.00684093
C        7.39452036       1.41856552       3.64798711       0.00681205       0.00264977       0.00469708
C        6.15715982       3.56606626       3.71674281       0.00343117      -0.00388742      -0.00360495
C        4.96874680       5.72434938       3.85371603      -0.00781392       0.00006727      -0.00159355
C        3.74263896       7.84838773       3.85645741      -0.00945860      -0.00133930      -0.00282967
C        2.46707922       9.95704190       3.71801942       0.00522243      -0.00267129       0.00200984
C        9.86168188       1.41665983       3.63882349      -0.00623092       0.00524155       0.00701739
C        8.62642594       3.55578431       3.63989528       0.00252946       0.00336605      -0.00215789
C        7.40370121       5.69594259       3.62408514       0.00492124      -0.00238697       0.00677529
C        6.17942590       7.83979190       3.62208579       0.00017247      -0.00494688      -0.01552645
C        4.93518246       9.97181020       3.62689004       0.00115103       0.00107963      -0.00023303
Tc       2.55359149       5.74454063       5.34355853       0.01628619       0.01145237      -0.00094264
