49
Lattice="12.336457 0.0 0.0 -6.168228499999997 10.683685154694365 0.0 0.0 0.0 15.0" Properties=species:S:1:pos:R:3:forces:R:3 energy=-439.5096014337591 free_energy=-439.5096014337591 stress="-0.004175318807872824 -2.418461498424004e-06 -4.407961477055322e-06 -2.418461498424004e-06 0.0022654201906858974 -1.539405712914664e-06 -4.407961477055322e-06 -1.539405712914664e-06 2.125041530375813e-06" pbc="T T T"
C        0.00107881       0.01981410       3.71510653       0.00298329       0.00225548      -0.00094049
C       -1.25159914       2.12910202       3.74892905      -0.00806257       0.00343252       0.00020057
C       -2.49139700       4.26791849       3.74360268      -0.01576496       0.00207580      -0.00318890
C       -3.71586989       6.41286234       3.71201749      -0.00263003       0.00477617       0.00527496
C       -4.93972894       8.56137639       3.69382571       0.00309178      -0.00229516       0.00549923
C        2.47036374       0.03267218       3.71372462      -0.00508898       0.00748035       0.00579453
C        1.23258252       2.19022148       3.82413602       0.01310174       0.00174236      -0.00497888
C       -0.04732412       4.27303466       3.89814327       0.00614197      -0.00216561       0.00017452
C       -1.27202599       6.41691665       3.78706834      -0.00704034      -0.00902998      -0.00320070
C       -2.47884284       8.55707224       3.70903457      -0.00295622       0.00655362       0.00983877
C        4.93485837      -0.00745386       3.70272777      -0.00466672      -0.00042352      -0.00861658
C        3.72537315       2.11090651       3.70463924      -0.00292677       0.00501962      -0.00127450
C        1.18004087       6.37340136       3.97303510       0.00171775       0.00945903       0.00180019
C       -0.00013932       8.52287324       3.75838904       0.00267604      -0.00779695      -0.00267024
C        7.40606215      -0.03029943       3.70395236       0.00584680       0.00340332       0.00816805
C        6.17874905       2.12186305       3.70050751       0.00124178      -0.00447917      -0.00248385
C        4.96718328       4.27682617       3.78008273       0.00503166       0.00074833      -0.01756121
O        3.76686034       6.42630226       3.58212793      -0.00106137       0.00460048      -0.00161019
C        2.48070774       8.49563987       3.75012500       0.00242512      -0.00101322       0.00173925
C        9.86283999      -0.02104556       3.70218047      -0.00351719      -0.00567630       0.00437274
C        8.62887941       2.12401447       3.70019098       0.00181639      -0.00232227       0.00643167
C        7.39181527       4.27309080       3.72121871       0.01134056      -0.00194453       0.00357450
C        6.17234350       6.41900777       3.73749165       0.00730581       0.00322047      -0.00784815
C        4.94283713       8.54632578       3.69329711      -0.00726154      -0.00318296       0.00233636
C       -0.00037315       1.44347299       3.75860628       0.00443225       0.00657251       0.00192155
C       -1.27197068       3.54962826       3.78673972      -0.01135306       0.00798019      -0.00178317
C       -2.49141281       5.69862063       3.74318607      -0.01319167      -0.00208080       0.00191247
C       -3.70754012       7.84257111       3.70157833       0.00380478       0.00218051      -0.00260933
C       -4.93022200       9.99682097       3.70418684       0.00359891      -0.00262434       0.00724767
C        2.48055290       1.47080235       3.74990160       0.00466273       0.00038741       0.00746401
C        1.17963823       3.59271591       3.97274991       0.00853983      -0.00490568       0.00614438
C       -0.04734037       5.69351423       3.89888991       0.00825412       0.00112424      -0.00678876
C       -1.25156163       7.83742733       3.74869991      -0.00398977      -0.00554117       0.00411726
C       -2.47331033       9.98748434       3.70326432      -0.00925929       0.00776671       0.00070529
C        4.94267531       1.42031120       3.69443912      -0.00440378      -0.00079917      -0.00376033
O        3.76745768       3.54018159       3.58177867      -0.01459368      -0.00679107      -0.00358478
C        1.23291719       7.77582839       3.82267683       0.00787295       0.00198941       0.00840149
C        0.00109324       9.94664273       3.71515018       0.00373411      -0.00411866       0.00092097
C        7.39659520       1.40519723       3.69372597       0.00520740       0.00243041       0.00104499
C        6.17237572       3.54750570       3.73738359       0.01055365      -0.00124831      -0.00437354
C        4.96706620       5.68955767       3.77953005       0.00434070       0.00551094      -0.01432610
C        3.72552463       7.85560805       3.70519993      -0.00503618      -0.00585943      -0.00591730
C        2.47008062       9.93374112       3.71344207       0.00066496      -0.00539150       0.00414238
C        9.85758296       1.40939357       3.70846841      -0.00690783      -0.00412614       0.00730307
C        8.62048461       3.55379386       3.71211335      -0.00049071      -0.00731595       0.00266232
C        7.39193061       5.69360799       3.72096985       0.00554635      -0.00044554       0.00682510
C        6.17888036       7.84474748       3.70041215      -0.00136875       0.00231789      -0.00470912
C        4.93475002       9.97406921       3.70179771      -0.00386245      -0.00284114      -0.00872671
Tc       2.58587086       4.98286223       4.44427493      -0.00049960       0.00139083      -0.00506546
