49
Lattice="12.336457 0.0 0.0 -6.168228499999997 10.683685154694365 0.0 0.0 0.0 15.0" Properties=species:S:1:pos:R:3:forces:R:3 energy=-439.18168600074364 free_energy=-439.18168600074364 stress="-0.003884442996899951 -0.0014050777045186784 -3.267416834440604e-07 -0.0014050777045186784 0.002733357723125305 -7.708085604145885e-07 -3.267416834440604e-07 -7.708085604145885e-07 -2.7405072467136427e-07" pbc="T T T"
C        0.00023655       0.00507900       3.76709331      -0.00118018      -0.00133020      -0.00277938
C       -1.25459095       2.11875835       3.75449643       0.00156037       0.00209549      -0.00106823
C       -2.47762049       4.26796214       3.68071248      -0.00380908      -0.00264988      -0.00524669
C       -3.70123581       6.41358777       3.66271770       0.00785114       0.00404849      -0.01192821
C       -4.93125781       8.55933427       3.71760545      -0.00008101      -0.00263795       0.00270988
C        2.46127897       0.03556419       3.71727207      -0.00182865      -0.00230642       0.00401943
C        1.20488190       2.12631095       3.85277498      -0.00343880       0.00064864       0.00110930
C       -0.06768122       4.27226414       3.84239630       0.00789447      -0.00917194      -0.00824562
C       -1.25718995       6.40927083       3.65285022       0.01046606       0.00056270      -0.00388175
C       -2.47225089       8.56265677       3.64240651      -0.00146903       0.00571446       0.00422855
C        4.93334611       0.00805192       3.64649205       0.00655649      -0.00288129      -0.00519991
C        3.69946256       2.18448582       3.73608317       0.00483871      -0.00036829       0.00192933
C        1.19576468       6.37797891       3.79162300      -0.00093585      -0.00070503      -0.00135312
C        0.00066257       8.53375533       3.65359468      -0.00411919       0.00381089       0.00204745
C        7.40823041      -0.02552217       3.66353743      -0.00203187      -0.00319520       0.00149893
C        6.17751066       2.13127648       3.64403178      -0.00235432      -0.00417318      -0.00614541
C        4.95696852       4.29192712       3.77690454      -0.00106494       0.00431367       0.00549464
O        3.77984582       6.39763894       4.06608218      -0.00792974      -0.00435369       0.00021653
C        2.48676608       8.49322213       3.77794151       0.00598487       0.00151588      -0.00243167
C        9.86377931      -0.02954261       3.73551703       0.00042102       0.00084997       0.00917994
C        8.63201503       2.12281015       3.66863209      -0.00258044      -0.00734607      -0.00209619
C        7.40642602       4.27327242       3.66452356      -0.01666877       0.00189560      -0.00748427
C        6.18836469       6.42550639       3.76066382      -0.00173223       0.00474129      -0.00826723
C        4.94483491       8.53348686       3.80100111       0.00379255       0.00208106      -0.00468791
C       -0.01117854       1.43244913       3.79257949      -0.00211689      -0.00027514       0.00256481
C       -1.25413377       3.54049216       3.74490675       0.00265450      -0.00104532      -0.00028217
C       -2.47210201       5.69313961       3.65615624       0.00986046       0.00217363      -0.00569083
C       -3.69794166       7.84374710       3.66956877       0.00069137       0.00343666      -0.00462323
C       -4.92996015       9.99577204       3.73618845      -0.00314931      -0.00504268       0.00717432
C        2.44683064       1.47299020       3.77679869      -0.00214191       0.00178856       0.00661048
O        1.15428476       3.56945542       4.04836880       0.00003792       0.00624690       0.00457246
C       -0.02294618       5.67471335       3.76049843       0.00434234      -0.01037674       0.00103195
C       -1.24339091       7.83560597       3.63323819      -0.00306798       0.00316764       0.00931135
C       -2.47454738       9.99215895       3.66119760       0.00402571       0.00367733       0.01333130
C        4.93323514       1.43319715       3.66052014       0.00459939      -0.00501586       0.00667712
C        3.73867651       3.58812145       3.80712065       0.00432052       0.00278715      -0.00759854
C        1.23437762       7.78211990       3.72843115      -0.00230323       0.00504905       0.00492507
C        0.00011484       9.95898565       3.64550233       0.00088552       0.00070283      -0.00142007
C        7.40630246       1.40400988       3.64563051      -0.00427163      -0.00579819       0.01685212
C        6.19131441       3.55755197       3.66683191      -0.01207618      -0.00418192      -0.00556796
C        5.00160601       5.69434912       3.86056908      -0.00034311       0.00273979      -0.01089790
C        3.72862107       7.83978613       3.85916312       0.00541154      -0.00217978       0.01032569
C        2.47247470       9.93074392       3.71781662       0.00036581       0.00347400       0.01025987
C        9.86505774       1.40690227       3.71340550       0.00360938      -0.00254698      -0.00045951
C        8.63552694       3.55283567       3.66233940      -0.01302851      -0.00285107      -0.01209203
C        7.41188081       5.69836900       3.68924910       0.00146408       0.00679957      -0.00226716
C        6.18850604       7.84717878       3.76483921       0.00082187       0.00318576       0.00128422
C        4.93343086       9.96084980       3.76909058       0.00087628       0.00178768      -0.00590836
Tc       2.46280571       4.98388839       4.60775547       0.00039049       0.00113812       0.00026862
