50
Lattice="12.336457 0.0 0.0 -6.168228499999997 10.683685154694365 0.0 0.0 0.0 15.0" Properties=species:S:1:pos:R:3:forces:R:3 energy=-451.4203353913491 free_energy=-451.4203353913491 stress="-0.002020454331538554 -5.6214198604947843e-05 1.216124158563679e-06 -5.6214198604947843e-05 0.000920200506131486 4.555915960216755e-06 1.216124158563679e-06 4.555915960216755e-06 3.4155645351249396e-06" pbc="T T T"
C       -0.00136019       0.01792603       3.80011051      -0.00612565       0.00240906      -0.00795910
C       -1.24167145       2.14806086       3.73672111       0.00457147      -0.00089946       0.00006921
C       -2.47233447       4.28674211       3.66215098      -0.00134913       0.00613850       0.00970249
C       -3.70593666       6.42510609       3.67053736      -0.00768078      -0.00255629       0.00160385
C       -4.94038365       8.56272414       3.75107193       0.00831209       0.00269431       0.01103152
C        2.46565516       0.01064307       3.76473277      -0.00007564       0.01187415       0.01072757
C        1.23392291       2.14878934       3.73587909       0.00126562      -0.00414695       0.00443184
C       -0.01277580       4.31522032       3.68040315      -0.00045624       0.00259487      -0.00714541
C       -1.25514139       6.44064344       3.70997414      -0.00387409      -0.00110026      -0.01488647
C       -2.47404060       8.56443765       3.74819691       0.00350883      -0.00471182      -0.00423579
C        4.93629720       0.00844811       3.76191156      -0.00326872       0.00148169       0.00693727
C        3.69989775       2.14319446       3.68320085       0.00192412       0.00217012       0.00356544
C        2.44804473       4.18265471       3.00672108       0.00151164       0.01046949       0.00484985
N        1.14064168       6.41784974       3.99664254       0.01509583       0.00155625      -0.00250122
C       -0.00319678       8.54377911       3.83195506      -0.00387987       0.00079758      -0.00527334
C        7.40815141      -0.00847155       3.79874430       0.00698677      -0.00802148       0.00715053
C        6.17333093       2.14570965       3.68575964       0.00287422      -0.00245493      -0.00417429
C        4.93750510       4.31749381       3.61147729      -0.00658485      -0.00671187       0.00102506
O        3.79096756       6.44085951       4.01338923       0.01237636       0.00099529       0.00221686
C        2.47684070       8.49587023       3.93410212      -0.01362909       0.00292081       0.00069524
C        9.86121733      -0.00600781       3.82256712       0.00092965      -0.00224493      -0.01199613
C        8.63297942       2.14275571       3.71364373       0.00735843      -0.00335709       0.00963926
C        7.39691458       4.28742540       3.63902490       0.00231628       0.00047422      -0.00498967
C        6.17521486       6.43850703       3.68978029      -0.00208508      -0.00077917       0.00048402
C        4.93965840       8.55773977       3.84251632      -0.00829828       0.00253805      -0.00211762
C        0.00092018       1.44420788       3.77125369       0.00029339      -0.00219340      -0.00658199
C       -1.23587111       3.58063785       3.68219645      -0.00117037       0.00321545       0.00669046
C       -2.47368580       5.71332563       3.66546326      -0.01013724       0.00323758      -0.00153025
C       -3.70462160       7.84965777       3.71784332       0.00688015      -0.00592886      -0.00280934
C       -4.93561228       9.99076689       3.78066904      -0.00110103       0.00995834      -0.00271586
C        2.46509400       1.44110011       3.73530489       0.00325900       0.00793731       0.01214459
C        1.25172577       3.60750735       3.63525186      -0.00111471      -0.00946640       0.00800496
C       -0.02240593       5.73781906       3.76070058       0.00521405       0.00607117       0.00440216
C       -1.24484610       7.85276358       3.76307277      -0.00014946      -0.00378022      -0.01528661
C       -2.46932594       9.98807857       3.76513416      -0.00316626      -0.00050567      -0.01562489
C        4.93404059       1.43368139       3.71591349       0.00021033       0.00153655       0.00640890
C        3.67668258       3.59177893       3.55752280       0.00022908      -0.01099362      -0.01132267
C        1.21008828       7.79442317       3.93538539      -0.00653407       0.00388927      -0.00405765
C        0.00214279       9.97041631       3.79922574      -0.00016730       0.00038642       0.00648590
C        7.40236034       1.42467040       3.73185459       0.00647205      -0.00817255      -0.00330820
C        6.16823905       3.57752028       3.62813291      -0.00025600       0.00082194       0.00281642
C        4.98208866       5.71572202       3.72001763      -0.00283398      -0.00501429       0.00841218
C        3.72915555       7.86685207       3.93326760      -0.01169366       0.00860248       0.00114950
C        2.46813683       9.94445825       3.85321637       0.00404684      -0.00196222       0.00861108
C        9.86529963       1.42942340       3.75989509       0.00760045      -0.00423429      -0.00761205
C        8.63321706       3.57113390       3.66392321       0.00399180       0.00159499       0.00463993
C        7.40301445       5.71041367       3.64969719      -0.00331296      -0.00099323      -0.00148772
C        6.17587996       7.85745555       3.76135293       0.00066460       0.00239266      -0.00263264
C        4.93239920       9.98583580       3.82831436      -0.00519306       0.00142197      -0.00162075
Tc       2.49376430       5.06695519       4.60483595      -0.00375555      -0.00995150      -0.00202642
