49
Lattice="12.336457 0.0 0.0 -6.168228499999997 10.683685154694365 0.0 0.0 0.0 15.0" Properties=species:S:1:pos:R:3:forces:R:3 energy=-438.04959262607593 free_energy=-438.04959262607593 stress="-0.006085489796370105 -0.00015270867663732578 5.1106549576233705e-06 -0.00015270867663732578 -0.004096944049524761 9.465241897159242e-06 5.1106549576233705e-06 9.465241897159242e-06 -1.9395424754062216e-06" pbc="T T T"
C        0.00415792       0.02065606       3.62254738      -0.00211445      -0.00449694       0.00008594
C       -1.24247410       2.12532971       3.44997143       0.01291833       0.00230208       0.00227357
C       -2.47742904       4.27521002       3.33233766      -0.00063132       0.01111360      -0.00200476
C       -3.70267573       6.42534141       3.41062840       0.00044506       0.00023683       0.00250532
C       -4.93298322       8.56547212       3.61395335       0.00055300      -0.00355636      -0.00145453
C        2.46678791       0.02845732       3.68614673       0.00049291       0.00733091      -0.00079149
C        1.22067052       2.15737154       3.83941377      -0.00035551      -0.00267165       0.00580272
C       -0.06785938       4.22558992       3.77149045       0.00367725      -0.00367106      -0.00535586
C       -1.28042667       6.42168077       3.65448416      -0.00172780      -0.00274668      -0.00099737
C       -2.46931704       8.56534668       3.60718457      -0.00621853      -0.00236373      -0.00120440
C        4.92871319       0.02121337       3.62543316       0.00841065       0.00145517      -0.00251076
C        3.71162073       2.15882749       3.84906009      -0.00474180      -0.00461034       0.00721013
P        1.18063926       6.30894331       4.78816032       0.00143358      -0.00163071      -0.00043635
C       -0.01980142       8.58116735       3.87450847       0.00047471       0.00145944       0.00477676
C        7.39917175       0.01010027       3.58596584       0.00102070      -0.00423438       0.00065623
C        6.17406212       2.12738356       3.46344381      -0.00790995       0.00150629       0.00158715
C        5.00082166       4.22923863       3.80630208      -0.00343988      -0.00407435      -0.00565882
P        3.77728190       6.32368843       4.87204625      -0.00830945      -0.00095531       0.00071623
C        2.46923751       8.63213530       4.08787835       0.00285225       0.01167247       0.00914487
C        9.87091388       0.00984312       3.58471407      -0.00640454      -0.00145005       0.00093991
C        8.63384551       2.13168242       3.32861745      -0.00120275      -0.00462615       0.00004034
C        7.40777974       4.27610257       3.34524752       0.00066417       0.00574918       0.00033622
C        6.21352066       6.42163318       3.68307463       0.00620934      -0.00057854      -0.00052442
C        4.95425959       8.58226728       3.89082492       0.00100085       0.00536783       0.00409439
C       -0.00484042       1.43584213       3.61105397       0.01067563      -0.00236865      -0.00019907
C       -1.26378851       3.54171391       3.43673759      -0.00300639       0.00493406      -0.00272677
C       -2.48317197       5.70565610       3.41246827       0.00065151       0.00628143       0.00098921
C       -3.70134319       7.85169387       3.52710315      -0.00472159      -0.00455257      -0.00007321
C       -4.92924535       9.99411762       3.64593845      -0.00068441       0.00120535      -0.00640115
C        2.46659720       1.45088898       3.82195006      -0.00381775       0.00538063       0.00584656
C        1.12605069       3.54104029       4.11042091      -0.00452717      -0.00658936      -0.00239729
C       -0.13887619       5.63171576       3.91779729       0.00896592      -0.00250537      -0.00936958
C       -1.24525747       7.85046625       3.72458587      -0.00513833      -0.00255695       0.00256060
C       -2.47362646       9.99391185       3.64535536       0.00304633       0.00428631      -0.00761864
C        4.93701810       1.43697174       3.62104142      -0.00711040      -0.00101783       0.00229350
C        3.80442119       3.54158589       4.12929777       0.00708647      -0.01228468      -0.00352297
C        1.21365769       7.95793860       4.22852445       0.00312441      -0.00082364       0.00100247
C       -0.00762700       9.99194866       3.67263377       0.00843710      -0.00029051       0.00353065
C        7.40409562       1.41888445       3.41321289      -0.01064269      -0.00105997      -0.00189570
C        6.19476225       3.54423671       3.45959245       0.00178069       0.00269029      -0.00407208
C        5.07517818       5.63371595       3.96626360      -0.00487825       0.00132240      -0.00568159
C        3.72372863       7.96164824       4.25306396      -0.00078803      -0.00367057       0.00342145
C        2.46737959      10.00089024       3.72262427      -0.00294420      -0.00107431       0.00748104
C        9.86402112       1.41800130       3.40757579       0.01069110      -0.00166422      -0.00270007
C        8.63322797       3.56054137       3.27897972      -0.00122665       0.00372803      -0.00381191
C        7.41397640       5.70610156       3.42632703       0.00324202       0.00316629       0.00057480
C        6.18054115       7.85128210       3.74366885       0.00443026       0.00025449       0.00279393
C        4.94101032       9.99174306       3.67475598      -0.00690993       0.00142202       0.00313309
Tc       2.45898653       4.54133071       5.33031184      -0.00283253      -0.00074023      -0.00238828
