49
Lattice="12.336457 0.0 0.0 -6.168228499999997 10.683685154694365 0.0 0.0 0.0 15.0" Properties=species:S:1:pos:R:3:forces:R:3 energy=-435.5366260359656 free_energy=-435.5366260359656 stress="-0.0004790404499674283 0.002753829541664578 -1.2599669036297698e-06 0.002753829541664578 -0.00041321122234067346 8.145893458469566e-06 -1.2599669036297698e-06 8.145893458469566e-06 -5.203353300621994e-07" pbc="T T T"
C        0.00354968       0.01558033       3.75010433      -0.00106784      -0.00704792       0.00697927
C       -1.22854444       2.14697578       3.85667978       0.00652204      -0.01111145       0.00707920
C       -2.45908760       4.28007831       3.88552141      -0.00641470       0.00069641      -0.00427391
C       -3.72303094       6.40767367       3.81962202      -0.00512243      -0.00274029       0.00048139
C       -4.95745470       8.54282036       3.72550398       0.00006807      -0.00394995      -0.00683183
C        2.45462282       0.02529228       3.79717138      -0.00410463       0.00653268       0.00196846
C        1.21734371       2.14135040       3.85716846      -0.00000017       0.00023221      -0.00466955
C       -0.02332851       4.28243775       3.87838566       0.00363232      -0.01015210      -0.00084006
C       -1.25136025       6.40847049       3.80960285      -0.00242112      -0.00513260      -0.00117970
C       -2.49147242       8.54935428       3.79967048      -0.00522986      -0.00101957      -0.00057795
C        4.92661169      -0.01546601       3.83413250       0.00762181       0.00743006       0.00063561
C        3.73627116       2.08802903       3.80449123      -0.01129957       0.00703811       0.00275945
C        1.21559423       6.42115717       3.66179367       0.00042050       0.00486685      -0.00432274
C       -0.01883956       8.54246178       3.75617821       0.00501780       0.00528475       0.00557338
C        7.40150357      -0.00977444       3.82303222       0.00287370       0.00043902       0.00316909
C        6.18774611       2.10469699       3.88361807       0.00007606      -0.00338028      -0.00298854
C        5.00383192       4.20539339       3.70128125       0.00860591      -0.00252833       0.00141381
P        3.56499098       6.32415112       2.49498229      -0.00453371       0.00488677      -0.00067400
C        2.44752416       8.56770437       3.57856751       0.00590999       0.00672550       0.00259965
C        9.87200178       0.00699813       3.75668730      -0.00968997      -0.00667938      -0.00523546
C        8.64518602       2.13669038       3.88694571      -0.00334473      -0.00022544       0.00677749
C        7.41437847       4.26728923       3.87468394       0.00391789       0.00931035      -0.01480420
C        6.14175045       6.39188797       3.67439704      -0.00202019       0.00083024      -0.00302204
C        4.92414454       8.55727379       3.53491986       0.00583206       0.00476104       0.00042936
C        0.01510529       1.45454908       3.82088959       0.00642058      -0.00901721       0.01061435
C       -1.22137516       3.56381034       3.88599215      -0.00204257      -0.00542871      -0.00258898
C       -2.47658019       5.69969982       3.85003243      -0.00751381      -0.00195616      -0.00276557
C       -3.72486897       7.83298390       3.78525549      -0.00583822      -0.00462937      -0.00647536
C       -4.94092743       9.98394509       3.75148736      -0.00169463      -0.00174071      -0.00188976
C        2.46118876       1.47838773       3.82245629      -0.00598953       0.00607585      -0.00311064
O        1.19282966       3.57334746       3.95651581       0.00855111      -0.01070900       0.00512123
C       -0.00248763       5.68938981       3.79671980       0.00304600      -0.00586415      -0.00522441
C       -1.25767336       7.83515794       3.79024118      -0.00032517      -0.00244443       0.00433727
C       -2.48737823       9.98031612       3.80703828       0.00164766       0.00665025       0.00492412
C        4.94334907       1.40556236       3.85210148      -0.00668236       0.00635973       0.00048080
O        3.80019177       3.49327316       3.59187347      -0.00546359       0.00103471       0.00472392
C        1.21942451       7.82569728       3.65311447       0.00490010       0.00962821       0.00544061
C       -0.00669883       9.95910622       3.80797235       0.00983959       0.00602098      -0.00184264
C        7.40913696       1.41181770       3.88130941      -0.00068163      -0.00304729       0.00079476
C        6.19927247       3.51863689       3.86615041       0.01232987      -0.00092649      -0.00082932
C        4.89349976       5.60499682       3.55978436      -0.00383207      -0.00093382      -0.00339832
C        3.67029048       7.89691633       3.34202614       0.00760181       0.01035714      -0.00361570
C        2.46503432       9.98025524       3.73832711      -0.00525999      -0.00227055       0.00483235
C        9.88431471       1.43360762       3.84403879      -0.00267554      -0.00994087       0.00009447
C        8.64737760       3.56306673       3.89961945      -0.00531136       0.00409734      -0.00476293
C        7.37577480       5.69106198       3.80655295      -0.00154778       0.00564443       0.00082607
C        6.14711228       7.82085115       3.62523046       0.00527118      -0.00327265       0.00350846
C        4.93579223       9.98030725       3.68356189      -0.00368622      -0.00166692      -0.00145648
Tc       2.73175561       5.11327857       4.09128728       0.00368734       0.00291300       0.00181552
