49
Lattice="12.336457 0.0 0.0 -6.168228499999997 10.683685154694365 0.0 0.0 0.0 15.0" Properties=species:S:1:pos:R:3:forces:R:3 energy=-435.5924119102536 free_energy=-435.5924119102536 stress="-0.00859550001106745 -0.003802076180651895 -1.1506006216076113e-06 -0.003802076180651895 -0.004241474108563924 -9.648698203965557e-06 -1.1506006216076113e-06 -9.648698203965557e-06 -2.9507521130299075e-06" pbc="T T T"
C       -0.00338214       0.00210517       3.91110689       0.00414563       0.00560907       0.01200218
C       -1.27368814       2.10221382       3.94917132       0.00512944       0.00111314      -0.00447925
C       -2.49437387       4.26025063       3.99183045       0.00502408       0.00111993      -0.00680688
C       -3.67886251       6.41888563       3.97328287      -0.00517378      -0.00936812      -0.00102434
C       -4.90574788       8.57108959       3.93709546      -0.00226875      -0.00433191       0.00498309
C        2.46774589       0.01966925       3.82378307       0.00441223       0.00187392      -0.00118441
C        1.18157554       2.15265392       3.75105884      -0.00204197      -0.00216330      -0.00362635
C       -0.08521172       4.19652072       3.74324764      -0.00213830      -0.00315651       0.01273087
C       -1.24373044       6.39570873       3.77935292      -0.00142413       0.00614527       0.00460132
C       -2.44592218       8.54816165       3.83373451      -0.00202638       0.00133062       0.00383420
C        4.92773136       0.00794413       3.72997193       0.00074470      -0.00338858       0.00555857
C        3.67201876       2.11061412       3.45827846      -0.00644229      -0.00612970      -0.00817124
S        1.27250246       6.27201848       2.73911015       0.00908148       0.00227607      -0.00105338
C        0.00295889       8.53696277       3.63606524       0.01164243       0.00428466       0.00258047
C        7.38957359      -0.00617603       3.79833437      -0.00442322      -0.00057397      -0.00251162
C        6.15635968       2.14421622       3.69489313      -0.00214584      -0.00224099      -0.00463310
C        5.04422552       4.34534536       3.44981962      -0.00584918       0.00351420       0.01077631
C        3.80556146       6.44808543       3.65905588       0.00481786       0.00326015      -0.00326323
C        2.46991769       8.54224513       3.68879568      -0.00076649       0.00058617       0.00183254
C        9.85420934      -0.01639728       3.91500733      -0.00556191      -0.00152729      -0.00253873
C        8.60789831       2.12594670       3.94243191       0.00405052       0.00619354       0.00438540
C        7.41065462       4.28042560       3.90884705      -0.00264164       0.00396836      -0.00423233
C        6.23678010       6.44950110       3.85526137       0.00111948       0.00181208      -0.00990154
C        4.95765581       8.55827950       3.86225509      -0.00285006      -0.00061123      -0.00281586
C       -0.03185323       1.41745284       3.88217351       0.00366878       0.00615817      -0.00226747
C       -1.29700859       3.51073394       3.93378217       0.00059433      -0.00314149      -0.00157023
C       -2.46864287       5.68751726       3.95190644      -0.00100857      -0.00197785      -0.00026626
C       -3.67801016       7.84580470       3.92956436      -0.00359945      -0.00741912      -0.00071367
C       -4.92463760       9.99089639       3.90430952       0.00399301       0.00237050       0.00359297
C        2.44624390       1.45502535       3.69043940      -0.00271252       0.00039111       0.00648674
N        1.09431039       3.51913390       3.66151476      -0.00324370      -0.00269262      -0.00582846
C       -0.08454641       5.60706792       3.58935380      -0.00344169      -0.00107139       0.01771412
C       -1.22340335       7.82395135       3.72372602       0.00510490       0.01141806       0.00960038
C       -2.46691720       9.98342781       3.79469010       0.00197550      -0.00050151       0.00058688
C        4.92162949       1.43709588       3.62667501      -0.00451157      -0.00719213       0.00041114
S        3.70391418       3.65258909       2.59163544      -0.00726067      -0.01783043      -0.00329525
C        1.25191685       7.87227578       3.46447265       0.00672250      -0.00302412      -0.01658422
C       -0.00381053       9.96822300       3.73087049       0.00160334       0.00024635      -0.00126365
C        7.37516182       1.42497023       3.83185123       0.00204494       0.00115936      -0.00407684
C        6.19267024       3.56805911       3.70167591      -0.00475667       0.00401940      -0.00346386
C        5.01938750       5.74670619       3.65485887       0.00526473       0.00636247      -0.00713546
C        3.72315050       7.83154424       3.73109343      -0.00053807       0.00535131      -0.00285337
C        2.45509485       9.96332202       3.82764015      -0.00874615      -0.00205013      -0.00001906
C        9.83650814       1.40026105       3.96250259       0.00366056       0.00025448       0.00452047
C        8.61618778       3.55025751       3.98451809       0.00251286       0.00804036      -0.00341345
C        7.43436848       5.70936586       3.93898928      -0.00404359      -0.00244748      -0.00539385
C        6.20361682       7.86518005       3.90817629      -0.00319155      -0.00378903      -0.00026244
C        4.93291690       9.97019521       3.91115729       0.00058860       0.00043514       0.00203468
Tc       2.52269529       4.91122214       3.99535160       0.00490622      -0.00266498       0.00641746
