49
Lattice="12.336457 0.0 0.0 -6.168228499999997 10.683685154694365 0.0 0.0 0.0 15.0" Properties=species:S:1:pos:R:3:forces:R:3 energy=-435.0785619995959 free_energy=-435.0785619995959 stress="-0.000694956031159951 0.003347283677462802 8.428947708436024e-06 0.003347283677462802 0.002319014081360994 -1.5331637796207491e-06 8.428947708436024e-06 -1.5331637796207491e-06 9.394248823704223e-07" pbc="T T T"
C       -0.00033692      -0.01307341       3.65263104       0.00447575       0.00193706      -0.00294250
C       -1.21312460       2.14401612       3.57930317      -0.00394046      -0.00488617      -0.01305531
C       -2.44087498       4.27635813       3.76243712      -0.00864357       0.00135201       0.00349883
C       -3.70503863       6.40929305       3.85673859      -0.00511451      -0.00675407       0.00477207
C       -4.93920099       8.54575040       3.80336647      -0.00011762       0.00981073       0.00008471
C        2.47411866       0.01214443       3.75444892       0.00051007       0.00213533       0.00637139
C        1.26959716       2.10223372       3.32718342      -0.00124372       0.00042608       0.00103050
C        0.02097932       4.36825985       3.49736489      -0.00401777      -0.00302594       0.00022908
C       -1.26250185       6.44721331       3.89852404       0.00150836       0.00167133       0.00422827
C       -2.47770740       8.56244764       3.88330617       0.00331453      -0.00811650       0.00854281
C        4.93366265       0.01467628       3.85508760      -0.00616198       0.00293605      -0.00331618
C        3.73055330       2.12463667       3.77365046      -0.00454533       0.00021208       0.00239252
O        1.14198459       6.45904587       3.58448873      -0.00121005       0.00218300       0.00531768
C       -0.01858059       8.56171541       3.87212873       0.00946985       0.00258855      -0.01140528
C        7.41698567      -0.01844236       3.82178902       0.00213357      -0.00672791      -0.00821139
C        6.19854997       2.12426905       3.84796271       0.00671879       0.00642583       0.00306187
C        4.99571912       4.26695099       3.89658561       0.00213174       0.00069565       0.01018800
C        3.69262748       6.32462635       3.87470326       0.00707161       0.00932825       0.00377649
C        2.45024957       8.49968621       3.79298579       0.00228968      -0.00683904       0.00649300
C        9.87488461      -0.02087957       3.72439044       0.00124785      -0.00038785      -0.00329906
C        8.66263495       2.12881987       3.76751968      -0.00406446       0.01049362      -0.00063929
C        7.42206526       4.26460725       3.83617499      -0.00156527       0.00117236       0.00085208
C        6.17720448       6.39650380       3.83281649       0.00419472      -0.00078983       0.00671161
C        4.91550485       8.50687189       3.77320405      -0.00099154      -0.00018766      -0.00361018
C        0.01874792       1.41519433       3.50161365       0.00251768      -0.00134286       0.00083952
C       -1.21844821       3.57241148       3.61580554      -0.00877157      -0.00455169       0.00268027
C       -2.47662690       5.70157859       3.84937783      -0.00222170       0.00077905       0.00371053
C       -3.71016005       7.83747567       3.85636595      -0.00462870      -0.00259985       0.00912637
C       -4.93204373       9.97096678       3.73646778       0.00351036       0.01011475      -0.00163744
C        2.50090963       1.44423145       3.62549119      -0.00475079      -0.00160882       0.00500352
P        1.34624494       3.69377275       2.45559579       0.01480703      -0.00288048       0.00344732
C       -0.06054661       5.75778850       3.74246496      -0.00196084      -0.00070627      -0.00785649
C       -1.25831485       7.86511341       3.90795475       0.01168348       0.00093083      -0.00652639
C       -2.47129270       9.99335645       3.84624686      -0.00289395      -0.00638764       0.00790437
C        4.94651439       1.44353924       3.83929595       0.00244530       0.00680307       0.00357585
O        3.74688719       3.57744593       3.94546025      -0.00895322      -0.01405393       0.00273180
C        1.19622672       7.87376258       3.79126000       0.00506312      -0.00131954      -0.00906827
C        0.00112429       9.98208097       3.86281680      -0.00300392       0.00141677      -0.00291228
C        7.42114254       1.41563297       3.81687602       0.00370743       0.00027785       0.00361388
C        6.19101652       3.54170762       3.86043792       0.00342332       0.00625634      -0.00272990
C        4.93512564       5.66573660       3.86927704       0.00236569       0.00199141      -0.01330955
C        3.67954411       7.74031532       3.80858233      -0.00029403      -0.00074758      -0.00567409
C        2.47261034       9.93758740       3.78434822       0.00393430      -0.00988529      -0.00648685
C        9.89292577       1.41536008       3.69257884      -0.00628960       0.00344051      -0.00328363
C        8.65954202       3.55646549       3.79034593      -0.00722899       0.00737387       0.00738661
C        7.40089889       5.68797931       3.84109631      -0.00136527      -0.00712226       0.00208765
C        6.16380414       7.81873808       3.80048439       0.00079659       0.00232989      -0.00495409
C        4.93148055       9.94066895       3.71401086       0.00323518      -0.00146043      -0.00772169
Tc       2.18012506       4.84190822       4.13167302      -0.00857718      -0.00270067      -0.00101875
