49
Lattice="12.336457 0.0 0.0 -6.168228499999997 10.683685154694365 0.0 0.0 0.0 15.0" Properties=species:S:1:pos:R:3:forces:R:3 energy=-441.4470875953841 free_energy=-441.4470875953841 stress="-0.0019204165636724493 -6.882045438953301e-05 2.6153353187532513e-06 -6.882045438953301e-05 0.0066784433228165565 2.0834764739312226e-07 2.6153353187532513e-06 2.0834764739312226e-07 -1.6223751428138328e-06" pbc="T T T"
C        0.00135283       0.01760079       3.71041161       0.00439472       0.00474591      -0.00146313
C       -1.24813872       2.12630932       3.70273835      -0.00131480       0.00247577       0.00106731
C       -2.47812298       4.26870420       3.67858782       0.00492786      -0.00228532      -0.00312648
C       -3.70194291       6.41842025       3.66805824       0.00060651      -0.00959787      -0.00961250
C       -4.92901406       8.57090247       3.67860373      -0.00108115      -0.00882487       0.00374100
C        2.46834843       0.05402827       3.72558069       0.00236477      -0.00243655       0.00648462
C        1.21237693       2.20893193       3.79035263       0.00072326       0.00276801      -0.00014759
C       -0.03446545       4.26618448       3.79395748      -0.00281028       0.00158483      -0.00116435
C       -1.25040742       6.41895538       3.71627949      -0.00129709      -0.00054495       0.00129247
C       -2.47298324       8.56506804       3.69527494       0.00082219      -0.00202965       0.00764707
C        4.93453209       0.00125993       3.73173761       0.00174144      -0.00159409       0.00541412
C        3.72456274       2.13063280       3.77017721      -0.00446510       0.00195978       0.00237180
N        1.16767714       6.36762226       3.91126372      -0.00306605      -0.00092602       0.00204634
C       -0.00284204       8.51729049       3.75984800       0.00739265      -0.00572628       0.00149709
C        7.40797318      -0.03976516       3.73667620      -0.00500233       0.00627646       0.00745247
C        6.18073403       2.12174750       3.73346609       0.00210753       0.00065896       0.00251317
C        4.98832503       4.28868990       3.82157798       0.00214393       0.00091678      -0.01253955
N        3.76370309       6.38632855       3.81491148       0.00602500      -0.00021824      -0.00939040
C        2.46561857       8.46172931       3.79620414      -0.00029704       0.00013213       0.00779997
C        9.86094687      -0.03582124       3.71867552      -0.00475790       0.00030467       0.00258694
C        8.63198566       2.11792223       3.69521243       0.00141465       0.01288660       0.00374541
C        7.40283363       4.27186831       3.69973270       0.00321560       0.00700433      -0.00447041
C        6.18767851       6.42378973       3.69373609      -0.00189200      -0.00025023      -0.00614798
C        4.94061860       8.53062618       3.71656761      -0.00189456      -0.00331812      -0.00145580
C       -0.00096107       1.44989903       3.72852660       0.00134501       0.00785567       0.00058742
C       -1.25466802       3.54580837       3.70293218       0.00072468      -0.00066094       0.00118882
C       -2.47633184       5.69830095       3.67940009       0.00245792      -0.00812634      -0.00836455
C       -3.70187088       7.84960190       3.67314961       0.00085815      -0.00822216       0.00587902
C       -4.92693627      10.00616179       3.70245750       0.00284819      -0.00395092       0.00618334
C        2.47495062       1.50870150       3.76971512      -0.00086276      -0.00218554       0.00260216
N        1.16420611       3.60385949       3.86805709      -0.00612153       0.00070379      -0.00472859
C       -0.03309836       5.69934432       3.81047096      -0.00105622       0.00117952      -0.00347776
C       -1.24606631       7.84023105       3.71993665       0.00399517      -0.00042346       0.00114752
C       -2.47537783      10.00230756       3.71714198       0.00178672      -0.00165656      -0.00423476
C        4.93772828       1.43423799       3.74220299      -0.00089518      -0.00094701      -0.00207915
O        3.75869695       3.57533563       3.76153249      -0.01173307       0.00363601       0.00956964
C        1.21928003       7.76408932       3.82726564       0.00562210      -0.00562817      -0.00983602
C        0.00159920       9.94702491       3.74196020       0.00120405      -0.00484257       0.00142195
C        7.39857361       1.40023147       3.71712273       0.00377484       0.00853058       0.00088225
C        6.17425115       3.54923383       3.74882598       0.00533447       0.00304105      -0.00644020
C        4.96420245       5.70260634       3.78039805       0.00152452       0.00088281      -0.00628389
C        3.71768180       7.77438994       3.77565534      -0.00065727       0.00011721       0.01040032
C        2.46652887       9.91056507       3.74860532      -0.00873345       0.00093987       0.00185309
C        9.86081841       1.39872724       3.69725104      -0.00403103       0.00439729       0.00695936
C        8.62834277       3.55036908       3.68197177       0.00287138       0.00977806      -0.00166643
C        7.40397834       5.69815235       3.67987077      -0.00303328       0.00137445      -0.00644925
C        6.18078334       7.84461372       3.68711644      -0.00335558      -0.00671543      -0.00643372
C        4.93494427       9.95889203       3.71207966       0.00114025      -0.00141254      -0.00077387
Tc       2.48478720       5.00683829       4.52144162      -0.00500990      -0.00162672       0.00595174
