49
Lattice="12.336457 0.0 0.0 -6.168228499999997 10.683685154694365 0.0 0.0 0.0 15.0" Properties=species:S:1:pos:R:3:forces:R:3 energy=-433.7386813429013 free_energy=-433.7386813429013 stress="-0.0039224283451738924 -0.0007936340706256631 1.0395229211485154e-06 -0.0007936340706256631 -0.0011050496260303893 4.62240621503353e-06 1.0395229211485154e-06 4.62240621503353e-06 -3.0949013945151497e-06" pbc="T T T"
C       -0.00717796      -0.00418640       3.54032482      -0.00486907       0.00584110      -0.00238703
C       -1.26015441       2.12154766       3.78830066       0.00671791      -0.00134916       0.00137360
C       -2.51240677       4.27112999       3.72056992      -0.00054985      -0.00555451       0.01352977
C       -3.71693176       6.41352215       3.51423113       0.00021941       0.00118039       0.00738048
C       -4.93448263       8.55468426       3.40607193       0.00066488       0.00125909      -0.00019049
C        2.47190867       0.01232193       3.50181868       0.00541230      -0.00348394      -0.00024115
C        1.23432000       2.06147268       3.98248577      -0.00600637      -0.00353678       0.00888001
C       -0.19305949       4.27303486       4.39756738      -0.00989880      -0.00429046      -0.00331620
C       -1.30895086       6.42948484       3.96286030       0.00685534       0.00227536      -0.00394245
C       -2.46972335       8.54980967       3.57829105      -0.00003315       0.00052753       0.00047148
C        4.92907717       0.00359633       3.55499675      -0.00191079      -0.00544812      -0.00372112
C        3.71609712       2.12133678       3.61536965      -0.00306214      -0.00105372      -0.01241360
P        1.32025604       6.39185609       4.92462850       0.00483051       0.00353010      -0.00478293
C       -0.01193339       8.55882285       3.85068157       0.00185913       0.00508277      -0.00402631
C        7.39833545      -0.00837415       3.58619368      -0.00910132      -0.00052177      -0.00762004
C        6.16676925       2.13654422       3.56732927       0.00091483       0.00341130       0.00416159
C        4.95982880       4.29524574       3.80689148      -0.00039850       0.00071555       0.00601710
N        3.79187925       6.41672162       3.83166739      -0.00056971      -0.00166743      -0.00419381
C        2.47942317       8.54444417       3.78317550       0.00238480      -0.00406023      -0.00175104
C        9.86341825      -0.00901167       3.55082141      -0.00500133      -0.00024234      -0.00227884
C        8.62253297       2.13323098       3.56568541       0.01262534      -0.00334615       0.00524388
C        7.37900099       4.27874399       3.54453675       0.00182978       0.00934556       0.00227258
C        6.16835207       6.42095453       3.43712781      -0.00934125      -0.00180543       0.00099213
C        4.93504649       8.53635168       3.49717635       0.00569153       0.00059316      -0.00647059
C       -0.01244746       1.40786582       3.77059023      -0.00159967       0.00662252      -0.01513025
C       -1.31643143       3.53601988       3.95403757       0.00063630      -0.00536293       0.00472295
C       -2.50871966       5.70186160       3.71349053       0.00238362      -0.00175840       0.00474617
C       -3.70401040       7.83914715       3.47666506       0.00135009       0.00179039       0.00121745
C       -4.93441602       9.98107621       3.46398162      -0.00168142       0.00510527      -0.00268182
C        2.48012515       1.43787532       3.66040551      -0.00493067       0.00041012      -0.00339012
P        1.26604098       3.51100384       4.96990138      -0.00120113      -0.01010527      -0.00143735
C       -0.18346159       5.68436946       4.39863869      -0.00950538      -0.00511095       0.00846414
C       -1.25499404       7.84556802       3.81157296       0.00224544       0.00699194      -0.00707066
C       -2.46957816       9.97991188       3.52057051       0.00410184      -0.00695099      -0.00195944
C        4.93046553       1.43602620       3.54200082      -0.00060987      -0.00512119       0.00078790
O        3.74071489       3.55988037       3.69152977       0.00426019       0.00717390       0.00166165
C        1.24485053       7.91291718       4.07636216       0.00137629      -0.00238935      -0.00575280
C       -0.00706888       9.97225876       3.64181911      -0.00555412      -0.00010985      -0.00257385
C        7.38825919       1.42261808       3.54350445       0.00394433       0.00199038       0.00512377
C        6.15613770       3.56041299       3.64255533       0.00153350       0.00716147       0.00094190
C        4.94277393       5.72017373       3.64920294      -0.00481558      -0.00414680       0.00971719
C        3.72373281       7.79987834       3.70712837       0.00868376       0.00115122      -0.00647542
C        2.46935410       9.96099996       3.60272351      -0.00908805      -0.00049836       0.00377879
C        9.85790779       1.41720479       3.60650644       0.01192734      -0.00404635       0.00094101
C        8.60812990       3.55998411       3.57627354       0.00104695      -0.00192044       0.00807683
C        7.38370729       5.69834509       3.46799336      -0.00388278       0.00779387       0.00143516
C        6.16831735       7.84011424       3.40888362       0.00110323      -0.00402439      -0.00279350
C        4.92836622       9.96216390       3.51029054      -0.00377848       0.00144564      -0.00374106
Tc       2.95821250       4.92758743       5.03928838       0.00279081       0.00650665       0.00840434
