49
Lattice="12.336457 0.0 0.0 -6.168228499999997 10.683685154694365 0.0 0.0 0.0 15.0" Properties=species:S:1:pos:R:3:forces:R:3 energy=-440.14067516437245 free_energy=-440.14067516437245 stress="-0.004576216672925473 -0.0029933423152237212 -4.075945175225879e-06 -0.0029933423152237212 0.003741512560825988 -8.116497996254375e-06 -4.075945175225879e-06 -8.116497996254375e-06 1.0008623930170089e-07" pbc="T T T"
C       -0.00849311       0.00817001       3.82585145       0.00913733      -0.00681924      -0.00277070
C       -1.26588523       2.11701868       3.83989158      -0.00700966       0.00001321      -0.00069030
C       -2.47683685       4.26316403       3.84651123      -0.00961968       0.00221539      -0.01171059
C       -3.67965268       6.41956883       3.82249254       0.00444799      -0.00245972      -0.00735903
C       -4.91686977       8.57328650       3.81896898      -0.00050003      -0.00511768       0.00548698
C        2.46255590       0.02726156       3.81543798       0.00350223       0.00225350       0.00220836
C        1.19146476       2.18169275       3.81671513       0.00454254      -0.00089853       0.00045368
C       -0.04008725       4.24808023       3.92486655      -0.00044212       0.00364976       0.01061984
C       -1.23642713       6.41059933       3.88572333      -0.00026324       0.00258692       0.00115448
C       -2.45989999       8.55697877       3.83861063      -0.00887042      -0.00119085       0.00283741
C        4.93146478      -0.00164315       3.72073571      -0.00341721       0.00246391      -0.00160721
C        3.66278671       2.11854665       3.46804634       0.00125914       0.00865493      -0.00245517
N        1.18331074       6.35150838       3.93427074      -0.00425525       0.00132817      -0.00967350
C        0.00616616       8.50948762       3.82614742       0.00549582      -0.00130882       0.00201726
C        7.39683613      -0.03775910       3.73836674       0.00828662       0.01312103      -0.00219452
C        6.15904418       2.13326410       3.57944634       0.00206417      -0.00142162       0.00422506
C        5.01843724       4.35506375       3.41033399      -0.01471946      -0.01223220      -0.00458035
N        3.80027360       6.40412366       3.58956784      -0.00276261       0.00584721       0.00472426
C        2.46637342       8.46079009       3.80074911       0.00196617      -0.00334577      -0.00044487
C        9.84901891      -0.03792185       3.78827483      -0.00179880      -0.00183635       0.00689984
C        8.61652761       2.11787766       3.75479642       0.00461879      -0.00246593      -0.00367435
C        7.41764938       4.27872063       3.70412530       0.00545374      -0.00820561      -0.00118015
C        6.23033113       6.45697266       3.67722754      -0.00119319       0.00182672      -0.00740009
C        4.94690920       8.53753779       3.76426935      -0.00430890       0.01035850      -0.01119489
C       -0.02356195       1.43553733       3.83625012      -0.00066509      -0.00488205       0.00186693
C       -1.26365012       3.53399636       3.87322805      -0.00807371       0.00663790      -0.00584992
C       -2.46087873       5.69254917       3.85934812       0.00145568       0.00022747      -0.00498023
C       -3.68705112       7.84828329       3.83380108      -0.00403454      -0.00579571       0.00919099
C       -4.93285518       9.99703033       3.83834401       0.01144628      -0.00779428      -0.00702476
C        2.44339168       1.46750628       3.73226794       0.00541910       0.00241582       0.00617378
N        1.14313370       3.56576693       3.90293453       0.00554387       0.00023890       0.00749256
C       -0.02083776       5.68811464       3.93124611      -0.00160322       0.00363939       0.00713985
C       -1.23210635       7.83041260       3.85292833      -0.00155241       0.00393355       0.00757536
C       -2.47060326       9.98779445       3.79757336      -0.00507918       0.00025931       0.00315428
C        4.91861980       1.43024347       3.57651607      -0.00078151       0.00302527      -0.00537639
S        3.58507369       3.70569453       2.68022068      -0.00263699      -0.01173919       0.00143911
C        1.22808158       7.74928766       3.85545450       0.00566834      -0.00689896      -0.00022473
C       -0.00035654       9.94215038       3.75962571       0.00641293       0.00603241      -0.00343123
C        7.38213310       1.40412543       3.68954863       0.00775532       0.00895580       0.00249817
C        6.18765377       3.56714641       3.55941890      -0.00101609      -0.00646574       0.01184024
C        5.01856010       5.76623927       3.53851749      -0.00735953      -0.00307233       0.00195955
C        3.72655557       7.78263357       3.74378815      -0.00010432       0.00565466      -0.00774645
C        2.45640676       9.90889951       3.77611248       0.00157962      -0.00103762       0.01151211
C        9.84345655       1.39490350       3.79897621      -0.00362371      -0.00382460       0.00211289
C        8.63007199       3.54883649       3.77579867       0.00042521      -0.00859166      -0.00601170
C        7.43574392       5.70873700       3.74068092       0.00538608      -0.00304784      -0.01102449
C        6.19690723       7.86572481       3.75793498      -0.00701565       0.00564944       0.00098501
C        4.92733305       9.95867273       3.80021786       0.00028343       0.00563916       0.00376818
Tc       2.59117400       4.94587343       4.25255961       0.00055611       0.00382395      -0.00073057
