49
Lattice="12.336457 0.0 0.0 -6.168228499999997 10.683685154694365 0.0 0.0 0.0 15.0" Properties=species:S:1:pos:R:3:forces:R:3 energy=-428.92090093049325 free_energy=-428.92090093049325 stress="-0.0026262299558422342 0.003974879048670886 -8.807706250120615e-06 0.003974879048670886 -0.006533551681841051 3.902580478723249e-06 -8.807706250120615e-06 3.902580478723249e-06 -2.3110101876960233e-06" pbc="T T T"
C       -0.01598066      -0.01354366       3.70951107       0.01145894      -0.00552368      -0.00052246
C       -1.22283566       2.14653600       3.68803993      -0.00092937       0.00062388      -0.00445964
C       -2.47891699       4.27137263       3.73340636      -0.00723457       0.00617418      -0.00747297
C       -3.73817673       6.39326067       3.73801653       0.00314980      -0.00463065      -0.00801402
C       -4.97870653       8.51673103       3.68769284       0.00457349      -0.00230241      -0.00433270
C        2.44579542      -0.06577849       3.93968283       0.00568364       0.00686529      -0.00312386
C        1.27554173       2.06764480       3.86329876       0.00283783       0.00683122      -0.00198834
C       -0.04056482       4.36640401       3.67232976      -0.00671936       0.00072880      -0.00638237
C       -1.28713623       6.43927146       3.72487643      -0.00119482      -0.00480318      -0.00310842
C       -2.49918097       8.52491744       3.75853853      -0.00217938       0.00021272       0.00819633
C        4.92719690      -0.04115725       3.90980968       0.00055593      -0.01081838       0.00831311
C        3.71099634       1.98324687       4.40818231       0.00221390      -0.01112173       0.00765965
O        1.15947053       6.47772866       3.81863864       0.00178216       0.01462630      -0.00169593
C       -0.03197345       8.54058753       3.63828855      -0.00622129      -0.00745022      -0.00158400
C        7.39301817      -0.01611044       3.71631075      -0.00541490       0.00377408       0.00925189
C        6.17599762       2.09601285       4.01913680      -0.00394046       0.00152057      -0.00320600
C        4.94385588       4.26117576       4.02817588       0.00808991      -0.00061689      -0.00452629
S        3.76583985       6.29527841       2.35911642       0.00034290       0.00920956       0.00580376
C        2.42558639       8.53612782       3.41500132      -0.00208176      -0.00378995       0.00876036
C        9.85578642       0.00115946       3.59846286      -0.00488970      -0.00099818       0.00037265
C        8.63344894       2.12745079       3.75759053       0.00312488       0.00795931       0.00416730
C        7.39267177       4.24963533       3.81745959       0.00323184      -0.00530472      -0.00318597
C        6.14441933       6.39725797       3.64791823       0.00440122      -0.00113048      -0.00631856
C        4.90085577       8.53817855       3.43409483      -0.00802183       0.00174089       0.00285705
C        0.00880607       1.41954895       3.74453009       0.00635839      -0.00149688      -0.00856951
C       -1.23985478       3.57373476       3.69420692      -0.01143747       0.00518564      -0.00900882
C       -2.50313402       5.69151717       3.73858282      -0.00006906       0.00061719      -0.00676715
C       -3.74194829       7.81121296       3.73120990       0.00216297      -0.00382214       0.00053768
C       -4.96521173       9.93781908       3.76976344       0.01283956      -0.00235389       0.00177281
C        2.47188709       1.33302517       4.11735273       0.00112326       0.00521900      -0.00155185
P        1.57830152       3.74577789       3.45438096       0.00793912       0.00522760       0.00278819
C       -0.08492567       5.75362395       3.73882024       0.00051420       0.00006280      -0.00654729
C       -1.27609182       7.84353144       3.70126920      -0.00611947      -0.00575227      -0.00033748
C       -2.48470066       9.93408634       3.87424120      -0.00052543       0.00136907      -0.00033800
C        4.94485665       1.36404427       4.13381284      -0.00109071      -0.01135688       0.00381511
P        3.75876914       3.60581112       5.18574861       0.00553955       0.00786702       0.00923968
C        1.18257226       7.87323996       3.55558991      -0.00235610       0.00256750      -0.01084266
C       -0.01086069       9.95809604       3.73538623      -0.00195828      -0.00890335      -0.00118501
C        7.39840765       1.40731304       3.83201789      -0.00026315       0.01031246       0.00263772
C        6.17473083       3.52007474       3.95800857       0.00339136       0.00105305       0.00834309
C        4.91793007       5.63254472       3.59092719       0.00064050       0.00581603       0.01376350
C        3.67229330       7.87351964       3.18002058      -0.00744459      -0.00619905       0.00375120
C        2.44836530       9.97029445       3.56637942      -0.00688461      -0.00269156       0.00917605
C        9.87295634       1.42909489       3.67886200      -0.00068911       0.00079561      -0.00030767
C        8.62690143       3.55029973       3.77398263       0.00134579       0.00345976       0.00001418
C        7.37036629       5.67684517       3.75046552       0.00659183      -0.00796772      -0.00403467
C        6.12877041       7.80851029       3.55628715      -0.00225967       0.00313571      -0.00387468
C        4.91590701       9.96657369       3.57824265      -0.00017952      -0.00040121       0.00367822
Tc       2.85529058       5.40502149       4.23105145      -0.00978836      -0.00351982      -0.00161324
