50
Lattice="12.336457 0.0 0.0 -6.168228499999997 10.683685154694365 0.0 0.0 0.0 15.0" Properties=species:S:1:pos:R:3:forces:R:3 energy=-444.4162354177924 free_energy=-444.4162354177924 stress="0.00022491568169721868 0.0033779162662916458 7.165675632764545e-07 0.0033779162662916458 -0.0036684258094002984 -1.1832408810698756e-05 7.165675632764545e-07 -1.1832408810698756e-05 3.441872789551119e-06" pbc="T T T"
C        0.00989830       0.00207369       3.76102620       0.00182100      -0.00099968      -0.00010635
C       -1.19245549       2.16762889       3.69146837       0.00568915      -0.00188565       0.00082974
C       -2.41850776       4.29155415       3.69263689      -0.00633844       0.00346876      -0.00200445
C       -3.69303804       6.41564865       3.76093171      -0.00059611      -0.00309832       0.00106974
C       -4.94250255       8.54103567       3.81180694       0.00505523       0.00024001      -0.00024294
C        2.47526770      -0.00478662       3.66568905      -0.00209310       0.00274811      -0.00409618
C        1.26681153       2.11197798       3.82386825       0.00705973      -0.00350842      -0.00007894
C        0.08738839       4.32250991       3.83427318       0.01016919       0.00040921       0.00266729
C       -1.23721424       6.44872740       3.82744849      -0.00009802       0.01048018      -0.00233587
C       -2.46573620       8.55352502       3.66646647      -0.00576493      -0.00151163      -0.00680952
C        4.94822809       0.00602844       3.51657297      -0.00232200      -0.00219106      -0.00431042
C        3.72283467       2.11762159       3.54497781      -0.00676487       0.00419983       0.00033890
O        2.52000902       4.17875381       3.55081992      -0.00284140      -0.00768073       0.00302992
O        1.17875371       6.50050839       3.55319474       0.00222570       0.00489393       0.00727227
C       -0.00432157       8.57262538       3.54523356       0.00815018      -0.00515013       0.00242736
C        7.42344282       0.01800131       3.49595122       0.00192210      -0.00391803       0.00858341
C        6.19595615       2.14359652       3.49605521       0.00182783       0.00410601       0.00678435
C        4.94988144       4.25040590       3.71636626       0.00047811      -0.00180069      -0.00473091
P        3.56247393       6.32722187       4.84686112      -0.00465313       0.00657257       0.00251582
C        2.45656437       8.56914286       3.71883034      -0.00408720      -0.00004806      -0.00294682
C        9.88959196       0.02232638       3.65666741      -0.00535966       0.00157203      -0.00687410
C        8.67244225       2.15657695       3.55907738       0.00077295      -0.00055453      -0.00201070
C        7.43244148       4.27746352       3.65478220       0.00538939       0.00196982      -0.00346941
C        6.17410730       6.39540765       3.93984348       0.00087878      -0.00928273       0.00739219
C        4.92593209       8.55750779       3.94252174      -0.00689353      -0.00099154       0.00465412
C        0.02249018       1.43002670       3.76082623       0.00758243      -0.00325023       0.00372838
C       -1.17219518       3.59518512       3.70779003      -0.00153307       0.00104497       0.01185966
C       -2.44999767       5.71247180       3.76310132      -0.00207019       0.00497463       0.00018372
C       -3.70333689       7.83808600       3.75592651      -0.00038002      -0.00527321      -0.00307672
C       -4.93173520       9.96547680       3.75577731       0.00347684       0.00228928      -0.00407977
C        2.48511181       1.40693433       3.66991926      -0.00054661       0.00081996      -0.00932507
C        1.29357036       3.53869178       3.94243137       0.01321458      -0.01067806      -0.00348764
C        0.01179560       5.75863405       3.94564752       0.00002972       0.01282560      -0.00464587
C       -1.23846585       7.85586547       3.67098794       0.00149616       0.00844830      -0.00621475
C       -2.45817439       9.97479562       3.60055137      -0.00651119      -0.00154425       0.00320232
C        4.96241006       1.42391450       3.49945507      -0.00533501       0.00454033       0.00063042
C        3.75876002       3.50487640       3.57419755      -0.00386186      -0.00238853       0.00269611
C        1.21508944       7.91036925       3.57624148       0.00072488      -0.00501477       0.00327818
C        0.01499617       9.99304195       3.49872557       0.00365668      -0.00610396       0.00482383
C        7.43480004       1.44183654       3.49642724       0.00282777      -0.00115889      -0.00111833
C        6.19735326       3.55916142       3.59001980       0.00604491       0.00400464      -0.00161371
C        4.97804423       5.62929944       4.08480731      -0.01359132      -0.00091526      -0.00733391
C        3.66473094       7.90402792       4.08792820      -0.01083135      -0.00537566      -0.01072842
C        2.48197134       9.99531581       3.59139708      -0.00284762      -0.00417348       0.00025633
C        9.90573640       1.44961788       3.61831215       0.00107399       0.00069139      -0.00152257
C        8.67692072       3.57815957       3.61796841      -0.00207070      -0.00035030      -0.00101496
C        7.41635592       5.69744207       3.77415957       0.00402473      -0.00461642       0.00434388
C        6.15964735       7.82847946       3.93580234       0.00211457      -0.00325999       0.01030038
C        4.94284087       9.98221228       3.77645157      -0.00569556       0.00380110       0.00281792
Tc       1.71131031       5.25770069       5.14243616       0.00538029       0.01262354      -0.00150792
