50
Lattice="12.336457 0.0 0.0 -6.168228499999997 10.683685154694365 0.0 0.0 0.0 15.0" Properties=species:S:1:pos:R:3:forces:R:3 energy=-443.4578369168271 free_energy=-443.4578369168271 stress="-0.004701425439243876 5.0636220058129375e-06 2.093571963428661e-05 5.0636220058129375e-06 -0.006204566591994652 1.1036722856962616e-06 2.093571963428661e-05 1.1036722856962616e-06 -2.191458516233368e-06" pbc="T T T"
C        0.01374227       0.03192067       3.87920740       0.00536715       0.00352868       0.00007099
C       -1.23608893       2.14579516       3.99148917      -0.00249928      -0.00160967      -0.00102047
C       -2.49028040       4.29389056       3.93875415      -0.00190619      -0.00044038      -0.00680714
C       -3.70100943       6.43361989       3.79827114      -0.00520106       0.00148524      -0.00300857
C       -4.94053772       8.56568586       3.74872759      -0.00104268       0.00353345       0.00568961
C        2.47714662       0.02704357       3.82138978      -0.01189895       0.00846687      -0.01340494
C        1.25804644       2.16603592       3.93448189       0.00000392       0.00408492      -0.01297872
C       -0.05468841       4.23966245       4.05612269       0.00307540       0.00022692      -0.00442918
C       -1.25351506       6.44338896       4.02232733       0.00754046      -0.00019642       0.00153968
C       -2.46570784       8.56626673       3.90300859      -0.00075404       0.00726196      -0.00787443
C        4.94098657       0.01455879       3.84011311       0.00419598      -0.00329581      -0.01292082
C        3.72002269       2.12291049       3.51054449       0.00934566      -0.00372144       0.00209985
O        2.90844917       3.88797967       2.12146213       0.00213627      -0.00067496      -0.00132923
P        1.49701327       6.28046620       4.85118398      -0.01207117      -0.00734975       0.00265715
C        0.01031484       8.57150418       4.05087735       0.00506807       0.00068230       0.00465742
C        7.39984172       0.04037227       3.92078892      -0.00344740      -0.00076963      -0.00237573
C        6.17832900       2.14843230       3.67608782       0.00514688      -0.00104823      -0.00201425
C        4.99149007       4.25068305       3.27434896       0.01038962      -0.00535872       0.00296892
S        3.54229443       6.44487715       2.84254809       0.00232460      -0.00317885      -0.00189499
C        2.47625142       8.62733270       3.92315374      -0.00450209      -0.00117791       0.01239016
C        9.88114762       0.03916382       3.90689808       0.00122019      -0.00836031       0.00188957
C        8.63652157       2.16322623       3.87899874      -0.01038934      -0.00599443       0.00147757
C        7.40799180       4.29319494       3.68739410      -0.00050513       0.00209595      -0.00324694
C        6.17926710       6.42781560       3.50286847       0.00099599       0.01011819       0.00833637
C        4.94648451       8.59072170       3.68150111      -0.00276277       0.00044011       0.00333065
C        0.01481821       1.44929487       3.96382524       0.00281254       0.00343920      -0.00660505
C       -1.28316538       3.55552197       4.03336655       0.00111739       0.00086270      -0.00128500
C       -2.47530092       5.72531917       3.91446091      -0.00184123       0.00138766       0.01108300
C       -3.70048659       7.85606095       3.81107942      -0.00311192       0.00306744       0.00712198
C       -4.92848367       9.99516910       3.82635628      -0.00386746       0.00125429      -0.00784121
C        2.48482863       1.44571375       3.75234243      -0.00056334       0.00547625      -0.01722544
C        1.18215563       3.57004986       4.01904821      -0.00189019      -0.00090682      -0.00630712
C       -0.02220164       5.67833570       4.10840000       0.00252331      -0.00521391       0.00542171
C       -1.23399577       7.85591210       4.01016448       0.00517528       0.00287637       0.00206135
C       -2.46120418       9.99008787       3.85227846      -0.00807625       0.01077814      -0.00231678
C        4.94414770       1.43343836       3.67067339       0.01139861      -0.00451741      -0.00039774
C        3.79178181       3.47728972       2.99658498      -0.00222682       0.00438717      -0.00806386
C        1.26766422       7.90295879       4.11006041      -0.00212655      -0.00376887      -0.00307383
C        0.00450260       9.99639048       3.93970520       0.00414743      -0.00048820       0.00271240
C        7.40450461       1.45411009       3.83339394      -0.00759447      -0.00289725       0.00598335
C        6.19303769       3.56258102       3.55272254       0.00763164      -0.00362040       0.00809743
C        5.01100434       5.66409159       3.24020775       0.01318125      -0.00686819       0.00712948
C        3.68586330       7.95664950       3.61306785      -0.00856399      -0.00222273      -0.00075848
C        2.47393804      10.03684387       3.93327353      -0.00531217      -0.00014318       0.00879627
C        9.86995558       1.45080628       3.93875361      -0.00607927      -0.00712840       0.00612782
C        8.62784251       3.58432916       3.84346930      -0.00635608      -0.00272066       0.00312860
C        7.40985999       5.71564007       3.65852265      -0.00672035       0.00429135       0.01102028
C        6.16585048       7.85614456       3.61313210      -0.00011675       0.01003952       0.00225055
C        4.94755608      10.01182261       3.84378859       0.00693174      -0.00211988       0.00235976
Tc       1.62029260       5.13359568       2.86943259       0.00969754      -0.00399228      -0.00322201
