50
Lattice="12.336457 0.0 0.0 -6.168228499999997 10.683685154694365 0.0 0.0 0.0 15.0" Properties=species:S:1:pos:R:3:forces:R:3 energy=-444.59266274095467 free_energy=-444.59266274095467 stress="-0.0027107956381024474 0.004235392800854328 1.2735120446570216e-05 0.004235392800854328 -0.000218724847370231 5.952432495618655e-06 1.2735120446570216e-05 5.952432495618655e-06 5.917179164958963e-06" pbc="T T T"
C        0.00125119       0.02190578       3.64314264      -0.00300735      -0.00429919       0.00376510
C       -1.20815320       2.17085232       3.74619391       0.00131368       0.00514004       0.00236554
C       -2.43443191       4.29932955       3.85008735       0.00110399       0.00341227      -0.00186600
C       -3.70201154       6.42941432       3.78185125       0.01096278       0.00384596      -0.00309029
C       -4.95236475       8.56056224       3.64941609      -0.00353903      -0.01284903      -0.00270742
C        2.46178553       0.02268398       3.71537812       0.00395397       0.00134053       0.00187973
C        1.25768995       2.18126801       3.54494712      -0.00063792       0.00414003       0.00984041
C        0.02239098       4.36216723       3.78260818      -0.00187871      -0.00934014       0.00230923
C       -1.25754310       6.45746312       3.96616839      -0.00104984      -0.00463055       0.00774175
C       -2.48339247       8.57515916       3.87438577       0.00438713       0.00624048       0.00324638
C        4.93692444       0.02179801       3.90618644       0.00492240       0.00441788      -0.00891223
C        3.72783216       2.13663877       3.68964073      -0.00007612       0.00019899      -0.00607237
B        2.62504369       4.34399940       2.90222085       0.00146754      -0.00385870       0.00300672
O        1.11422412       6.50287806       4.33400967      -0.00015850      -0.00482549      -0.00687531
C       -0.01990213       8.57472851       4.04004415      -0.00272376       0.00801932      -0.00003979
C        7.41764179       0.00538672       3.96620332      -0.00366318       0.00049289      -0.00405054
C        6.20988271       2.12968025       3.86602583      -0.01291564      -0.00728863      -0.00514646
C        5.03408877       4.23328448       3.53984546       0.00663673       0.00499164       0.01199549
P        3.44728882       6.17284565       2.81840350       0.00011840      -0.00121663       0.00634076
C        2.43658645       8.53940623       3.85307964       0.01027992      -0.00188565       0.00372730
C        9.87949532       0.00824603       3.79328292      -0.00888109      -0.00351950       0.00575766
C        8.66991734       2.14732159       3.88059362       0.00006610      -0.00054860       0.00681087
C        7.45064246       4.27929804       3.77352380      -0.00472325       0.00499419      -0.00270025
C        6.19500558       6.41097838       3.49487227      -0.00272352       0.00269800      -0.00818761
C        4.90102460       8.53969530       3.53608847       0.00275726       0.00454308       0.00100793
C        0.02493758       1.45940711       3.64531871      -0.00117902       0.00208336       0.00068511
C       -1.20641545       3.59994600       3.79499900      -0.00071682       0.00415933      -0.00830495
C       -2.46894601       5.72297897       3.87018754       0.00511906      -0.00134324       0.00546047
C       -3.71799312       7.85715046       3.76622815       0.00630727       0.00025977      -0.00413889
C       -4.93874248       9.99087171       3.65933837       0.00067391      -0.01009137      -0.00333497
C        2.47396793       1.45901422       3.64039214      -0.00324840       0.00401941       0.00133210
C        1.26464308       3.66268784       3.42055657       0.00460270       0.00149540      -0.00119350
C       -0.05442868       5.75450502       4.02628794      -0.00930529      -0.01542373       0.00673562
C       -1.26393870       7.87505207       3.98620413      -0.00089008       0.00014730       0.00312418
C       -2.47913983      10.00234677       3.83936086       0.01036166       0.00784889      -0.00209353
C        4.95853986       1.43268659       3.83792736      -0.00973795      -0.00283326      -0.00548394
C        3.78203215       3.54978276       3.54715782       0.01859120      -0.00395056       0.00331328
C        1.19038679       7.89772277       4.07069895       0.00208083       0.00918078       0.00174424
C        0.00153165       9.99736542       3.98516204      -0.00090498       0.00700610      -0.00265878
C        7.43521920       1.42846908       3.92552444      -0.00755696      -0.00124790      -0.00180394
C        6.24142975       3.54266517       3.75385601      -0.00189672      -0.00534570       0.00181589
C        5.03048769       5.61930156       3.31135734      -0.00486034       0.00638837      -0.00799772
C        3.63512419       7.85328727       3.48439062       0.01746260       0.00034820      -0.00025795
C        2.47217040       9.97517537       3.89927900      -0.00595672      -0.00327455      -0.00357506
C        9.89899056       1.44060146       3.82017218       0.00225406      -0.00173583       0.00060558
C        8.67530321       3.57395575       3.84940933      -0.00253502       0.00496756      -0.00217699
C        7.42286715       5.70583102       3.68312194       0.00429710       0.01019422      -0.00200137
C        6.15483859       7.83912842       3.52720030      -0.00524571      -0.00330896      -0.00099113
C        4.93358505       9.97708790       3.65948846      -0.00743671       0.00159599       0.00275817
Ti       2.12091180       4.83069412       4.75884054      -0.01227167      -0.01135276      -0.00170853
