49
Lattice="12.336457 0.0 0.0 -6.168228499999997 10.683685154694365 0.0 0.0 0.0 15.0" Properties=species:S:1:pos:R:3:forces:R:3 energy=-428.5187360213113 free_energy=-428.5187360213113 stress="-0.0015506178153720264 -0.0020070359135335955 -1.5684390283994178e-06 -0.0020070359135335955 -0.009558249779979766 -1.5617659668518149e-06 -1.5684390283994178e-06 -1.5617659668518149e-06 9.182938766453958e-07" pbc="T T T"
C       -0.02377098       0.00436068       3.85830894       0.00673694       0.00533642      -0.00281976
C       -1.27902215       2.13533951       4.10804375      -0.01190440      -0.00193245      -0.00532265
C       -2.51441076       4.28183569       3.94867202      -0.00346027       0.00009438      -0.00305579
C       -3.72133158       6.41363957       3.72555566      -0.00160205       0.00077644      -0.00570592
C       -4.95303938       8.54621606       3.69106264       0.00475048      -0.00663800       0.00241503
C        2.44779037      -0.03147258       3.85133896       0.00076924       0.00492719       0.00258280
C        1.21501750       2.02755268       4.33034321      -0.00810068       0.00744372      -0.00923097
C       -0.13211424       4.28596905       4.45862427       0.00171026      -0.00290535       0.01050248
C       -1.24136498       6.40430742       3.89410764      -0.00716989       0.00422956      -0.00315232
C       -2.47058136       8.53314414       3.76310061      -0.00043398      -0.00603435      -0.00267375
C        4.91325103       0.00448262       3.71949614      -0.00358317      -0.00341375       0.00822536
C        3.63835741       2.11151071       3.66120106       0.00161697      -0.00462993      -0.00602814
P        1.63009055       6.21031167       3.92503152       0.00094091      -0.00291311      -0.00130057
C       -0.00153242       8.55341993       3.74764764       0.00650851      -0.00185706       0.00740786
C        7.36688415       0.04397624       3.65431934      -0.00246266       0.00140603      -0.00038832
C        6.12706434       2.14963370       3.52588284       0.00870402       0.00525732       0.00558716
C        4.99705163       4.28586827       3.01541934      -0.00902867       0.00164746      -0.00416284
B        3.53777797       6.47131271       3.38772707       0.00698031      -0.00583344       0.00070376
C        2.45999941       8.66039296       3.52891625       0.00078012       0.00358555       0.00288795
C        9.85493386       0.05538801       3.68755932      -0.00586033      -0.00059151       0.00647419
C        8.60071065       2.16445738       3.75666585       0.00006034      -0.00075962       0.00124540
C        7.37465264       4.28804591       3.58355421      -0.00298805       0.00242970      -0.00465392
C        6.14795502       6.43747982       3.48879916       0.00264349      -0.00393054       0.00423394
C        4.92896206       8.60498784       3.49787237      -0.00111847       0.00370166       0.00174078
C       -0.04045906       1.40475621       4.12482720      -0.00697055       0.00660849      -0.00719331
C       -1.31189994       3.55262442       4.20670098      -0.00123427      -0.00366048      -0.00078745
C       -2.48897727       5.70373627       3.85958321      -0.00662187       0.00355101      -0.00340738
C       -3.71327288       7.83263690       3.72573935       0.00172599      -0.00482180      -0.00192650
C       -4.95940678       9.96013361       3.80855184       0.00700006      -0.00246637      -0.00914956
C        2.42690464       1.38179228       3.97439259      -0.00295780       0.00890432       0.00632089
P        1.28832273       3.54950074       5.22823255       0.01726085      -0.00557200       0.00493394
C       -0.03523120       5.63966799       4.08313784      -0.00663441      -0.00489161       0.00162419
C       -1.23261887       7.82352216       3.79434143       0.00289743       0.00169900      -0.00180028
C       -2.48062180       9.95544356       3.76822041      -0.00442861      -0.00565187       0.00394105
C        4.90146741       1.43283047       3.63530894       0.00725385       0.00275281       0.00723464
S        3.49744250       3.45011942       2.43531275       0.00793201      -0.00684188       0.00449680
C        1.26509310       7.91376750       3.71110552       0.00628338       0.00150763      -0.01238961
C       -0.01950908       9.98689766       3.69635719      -0.00181337      -0.00090900       0.00663015
C        7.36435327       1.45885530       3.64545615       0.00702027       0.00020953       0.00022710
C        6.16428411       3.55826226       3.36749375      -0.00727953       0.00506983       0.00473170
C        4.89605637       5.70807669       3.30811991       0.00383339      -0.00128559      -0.00656075
C        3.67857141       7.96933449       3.37826783      -0.00100805      -0.00081888       0.00206030
C        2.44666601      10.05870266       3.59904871      -0.00467046       0.00257792       0.00282835
C        9.84044645       1.45796990       3.85497319      -0.00912476      -0.00359412      -0.00030232
C        8.59795580       3.58141054       3.77271851      -0.00262727      -0.00025785      -0.00361060
C        7.36999102       5.71656933       3.60214234       0.00329712       0.00088070      -0.00831773
C        6.15146089       7.85412719       3.55950162       0.00127890      -0.00251502       0.00338931
C        4.92056420      10.01545354       3.66628108       0.00180689       0.00803341       0.00092435
Ti       3.44647958       4.57019804       4.33965489       0.00329184       0.00209546       0.00059096
