49
Lattice="12.336457 0.0 0.0 -6.168228499999997 10.683685154694365 0.0 0.0 0.0 15.0" Properties=species:S:1:pos:R:3:forces:R:3 energy=-436.6771185301432 free_energy=-436.6771185301432 stress="-0.00165866456279678 -0.001101128820775326 -5.2415600855025284e-06 -0.001101128820775326 -5.460992047561187e-05 1.4577320029659542e-07 -5.2415600855025284e-06 1.4577320029659542e-07 1.6666415566018527e-06" pbc="T T T"
C        0.00084386      -0.00492406       3.69940549       0.00275718       0.00602328      -0.00788930
C       -1.24692550       2.12444847       3.71673258      -0.00591300      -0.00159651       0.00343907
C       -2.47561563       4.27097667       3.71483696       0.00029031       0.00579166       0.01042854
C       -3.70184468       6.41163656       3.69524985       0.00004373      -0.01248067      -0.00614264
C       -4.93092045       8.55041452       3.68814844       0.00614141      -0.01106825      -0.00598104
C        2.46623475       0.02447734       3.67250544       0.00699764       0.00063760       0.00476723
C        1.20179723       2.11558254       3.77120677       0.00901040       0.00256745      -0.00273026
C       -0.04840187       4.23771367       3.84547224      -0.01527496      -0.00359362       0.00197411
C       -1.23558665       6.39855276       3.71998221      -0.00696308       0.00733981       0.01533545
C       -2.46562351       8.54831842       3.65909910      -0.00375832      -0.00532049       0.01229226
C        4.92669942       0.00987015       3.65413529      -0.00146971      -0.00197914       0.00230727
C        3.71863070       2.12884346       3.69112179      -0.00105787       0.00859481      -0.00439124
B        1.23963723       6.42692817       3.92620424       0.00778463       0.00008133       0.01054945
C       -0.00803758       8.55671532       3.69425907       0.00272915      -0.00763112       0.00535552
C        7.40322699      -0.00054474       3.68108777      -0.00172604       0.00216789      -0.00150583
C        6.16742510       2.14295254       3.71179699       0.00045249       0.00549762      -0.00184491
C        4.96378236       4.28760034       3.88363775      -0.00246995       0.00577505      -0.01272572
N        3.73775740       6.42153263       3.96292252      -0.00669929      -0.00563208      -0.00859627
C        2.48859141       8.53938590       3.76431554       0.00658554       0.00494024       0.01445560
C        9.87064077      -0.00851331       3.70147427      -0.00118506       0.00322868      -0.00027521
C        8.63101821       2.13675680       3.69847078       0.00596467       0.00573759       0.00959823
C        7.39493262       4.28092518       3.75078457       0.00958512       0.00231886      -0.01562995
C        6.16867627       6.41592120       3.76047071      -0.00452667      -0.00170210       0.00212220
C        4.93922457       8.52851389       3.74440112      -0.00659470      -0.00614656       0.00011566
C       -0.00169522       1.42716679       3.71883509       0.00464857       0.00944777      -0.00405257
C       -1.25010170       3.53684643       3.74317788      -0.01599284      -0.00479044       0.00330546
C       -2.46924684       5.69454753       3.70191306       0.00006869       0.00148389       0.00509473
C       -3.69822296       7.83741308       3.67476608       0.00397723      -0.01689591       0.00026842
C       -4.92846150       9.98437345       3.68479903       0.00659305      -0.00351991      -0.00565907
C        2.46293904       1.48397404       3.70656370       0.00885860       0.00057596      -0.00757231
O        1.15826571       3.52667659       3.92097092      -0.00821833      -0.00261189      -0.01260909
C       -0.01021015       5.63549325       3.82571831      -0.00604117       0.00115257       0.00339343
C       -1.23073916       7.82544644       3.68609254      -0.00400760       0.00436862       0.00760906
C       -2.47380394       9.98554017       3.65402754       0.00059732      -0.00554858      -0.00029353
C        4.92491172       1.44328090       3.67078078      -0.00331447       0.00380946      -0.00493749
O        3.76273299       3.54703818       3.69988280      -0.01365457       0.00137849       0.00787560
C        1.24365876       7.87237389       3.76761905       0.01114633       0.00339583      -0.00013328
C       -0.00721316       9.98122330       3.66665992      -0.00162372      -0.00837606      -0.00279296
C        7.39156952       1.42869918       3.69157832       0.00403723       0.00546829      -0.01037845
C        6.16175428       3.56541563       3.78722585       0.00424915       0.00926244      -0.00972733
C        4.92606831       5.70669798       3.87317763      -0.00464820       0.00244881      -0.00031618
C        3.71230819       7.79056722       3.82070985      -0.00463124      -0.00791211       0.00863095
C        2.47677160       9.96930115       3.70628237       0.00050436       0.00566038      -0.00066441
C        9.86829747       1.41977950       3.69426386      -0.00244490       0.00116228       0.01223323
C        8.62699404       3.56286035       3.71400689       0.01021256       0.00474812       0.00133056
C        7.39387847       5.70127963       3.73324373      -0.00334375      -0.00241974      -0.00570711
C        6.17277461       7.83272142       3.72781601      -0.00317973      -0.00393552      -0.00635638
C        4.93386117       9.95563754       3.71138481      -0.00274718      -0.00072307      -0.00477035
Ti       2.52413906       4.92011106       4.56550202       0.01825101      -0.00118102       0.00120082
