49
Lattice="12.336457 0.0 0.0 -6.168228499999997 10.683685154694365 0.0 0.0 0.0 15.0" Properties=species:S:1:pos:R:3:forces:R:3 energy=-427.88079850272504 free_energy=-427.88079850272504 stress="-0.0018827787897562386 0.0024298663446255626 2.4162686800469345e-06 0.0024298663446255626 -0.009528327260304342 7.0938015686241925e-06 2.4162686800469345e-06 7.0938015686241925e-06 3.546847592567542e-06" pbc="T T T"
C        0.01839279      -0.00069271       3.72937184      -0.00061334       0.00158654      -0.00074561
C       -1.19517747       2.14642493       3.56568621      -0.00175678      -0.00041941      -0.00748753
C       -2.43430507       4.28259046       3.58383161      -0.00190255      -0.00192180       0.00275444
C       -3.67821381       6.41011623       3.68789268       0.00638699      -0.00471733       0.00841005
C       -4.94131871       8.52647044       3.74058386       0.00002667      -0.00348999       0.00596341
C        2.48249391      -0.03688911       3.87323185       0.00380658       0.00468365      -0.00451698
C        1.29458095       2.11982151       3.70970758       0.01023297       0.01184126      -0.00366257
C       -0.03232182       4.27148762       3.06771327      -0.00515869       0.00199243       0.00599176
C       -1.21636232       6.43791427       3.43686585      -0.00273769      -0.00319808       0.00432129
C       -2.45320562       8.54571357       3.66754646      -0.00340710      -0.00358443      -0.00126367
C        4.95375265       0.00619363       3.87724972      -0.00216405      -0.00154678       0.00057135
C        3.71398584       2.01982429       4.33996708      -0.00076951      -0.00527084      -0.00142701
B        1.34574896       6.52288609       3.33099306       0.00598282       0.00074833       0.00543577
C        0.00312446       8.61255216       3.48324079      -0.00148952       0.00109359      -0.00248321
C        7.41467808       0.05526392       3.71869129      -0.00296838      -0.00106208       0.00391787
C        6.21361350       2.13479389       4.14070326      -0.00416604      -0.00363860      -0.00489376
C        5.07312068       4.29487885       4.47139551       0.00864333       0.01331290      -0.00554298
S        3.33385507       6.20292726       3.86948477      -0.00350167       0.00370578      -0.00222780
C        2.47628795       8.65841684       3.50319814       0.00108867       0.00298900      -0.00175707
C        9.90338867       0.04091356       3.68059671      -0.00538208      -0.00333218      -0.00060133
C        8.67401746       2.16057603       3.79927488      -0.00083134       0.00333429      -0.00370664
C        7.45521013       4.27936685       3.96011238      -0.00055587       0.00516359      -0.00665558
C        6.17283046       6.39860135       3.87106355       0.00307773       0.00220552       0.00376922
C        4.92359738       8.53858120       3.72214704       0.00226852      -0.00025791       0.00222718
C        0.03105423       1.42444737       3.65098973       0.00291442       0.00445861      -0.00265603
C       -1.22470833       3.55158134       3.40459286      -0.00239336       0.00114667      -0.00434434
C       -2.43706629       5.71236375       3.56456019       0.00065413      -0.00606524       0.00985420
C       -3.69215414       7.82941209       3.69218371      -0.00015885      -0.00639262       0.00774564
C       -4.92681135       9.94918062       3.77269604       0.00191213      -0.00014418       0.00161941
C        2.50302987       1.37119917       3.99993613       0.00399759       0.00617222       0.00128028
P        1.46463383       3.41064978       2.46170889       0.00820243      -0.00531782      -0.00379439
C        0.03133255       5.71802977       3.27728974      -0.00649264       0.00401107       0.00142420
C       -1.22009838       7.85409667       3.52448917      -0.00362339      -0.00130791       0.00217085
C       -2.44767162       9.95856667       3.81252317      -0.00009740      -0.00227844       0.00647717
C        4.97304903       1.40544761       4.14961312      -0.00411109      -0.00469499       0.00082441
P        3.59788523       3.58802785       5.13601345      -0.00327842      -0.01401918       0.00019483
C        1.25605073       7.98553872       3.34734399       0.00167140       0.00292091      -0.00458566
C        0.00989911      10.02175960       3.68165037      -0.00164108       0.00048685       0.00127964
C        7.43200299       1.45613380       3.89734999      -0.00054621      -0.00101755      -0.00035826
C        6.25394463       3.55235070       4.23053218       0.00138021       0.00204469      -0.00004895
C        4.99770158       5.62697451       4.07613745       0.00093097       0.00923008      -0.00234546
C        3.65821648       7.91049569       3.66422102       0.00556509       0.00234799      -0.00771542
C        2.48911413      10.05917226       3.61501108      -0.00491919       0.00008674      -0.00282876
C        9.90512225       1.45505918       3.68825634      -0.00312768      -0.00205487      -0.00526794
C        8.68141559       3.57880192       3.79244759      -0.00194988       0.00396769      -0.00381146
C        7.42855153       5.69804553       3.84184557       0.00363923       0.00471056       0.00442125
C        6.15699879       7.81564234       3.76465277       0.00196698      -0.00144391       0.00533926
C        4.95061460       9.98022416       3.70064118      -0.00275121      -0.00157928      -0.00203844
Ti       1.50351218       4.63661486       4.37748445      -0.00185386      -0.01548554       0.00077339
