50
Lattice="12.336457 0.0 0.0 -6.168228499999997 10.683685154694365 0.0 0.0 0.0 15.0" Properties=species:S:1:pos:R:3:forces:R:3 energy=-448.74041282776557 free_energy=-448.74041282776557 stress="-0.0057244823041682795 -0.0011757968638597789 6.884443386904059e-06 -0.0011757968638597789 -0.0037383913509600507 -5.664389627434939e-06 6.884443386904059e-06 -5.664389627434939e-06 2.5146680782766023e-06" pbc="T T T"
C       -0.01070620      -0.00972744       3.72051518       0.00048211      -0.00049833      -0.00147156
C       -1.25863256       2.11908763       3.73684937      -0.00089415      -0.01264735       0.00144845
C       -2.48994512       4.25793539       3.73999811       0.00037277      -0.00195092       0.00465470
C       -3.70610707       6.39930278       3.73479330      -0.00199824      -0.00016557       0.00389235
C       -4.93963636       8.53986425       3.73003851       0.00657549       0.00334553       0.00654234
C        2.45903320      -0.00695736       3.70950197      -0.00081247      -0.00314146       0.00781285
C        1.21105157       2.10975302       3.85681706       0.00097659       0.00780601      -0.00575765
C       -0.04684076       4.25083386       3.96752165      -0.01255055       0.00332503       0.00482033
C       -1.24999665       6.39850371       3.82194646       0.00088164      -0.00199147       0.00201608
C       -2.47652756       8.53788735       3.69491855       0.00618088      -0.00049689      -0.00021216
C        4.92463373      -0.01228609       3.61259672       0.00510888       0.00467683       0.00037661
C        3.69259653       2.12509086       3.74374304      -0.00677772       0.00424326       0.00138387
B        2.43413712       4.23697043       4.20069798      -0.00300622      -0.01212729      -0.00477152
C        1.18263553       6.41907514       4.05481017      -0.00088834      -0.00385291      -0.00308396
C       -0.01571256       8.53457818       3.67837370       0.00118065      -0.00742107      -0.00116325
C        7.39102300      -0.01793429       3.55902219       0.00735765       0.00209625      -0.00400459
C        6.15717253       2.12593250       3.58241149       0.00766444      -0.00060917       0.01315955
C        4.92971540       4.27185328       3.72632278       0.00169277       0.00013773      -0.00738133
O        3.82631353       6.45438650       3.24233195       0.01581508       0.00427958      -0.00715939
C        2.46245886       8.52388254       3.65170991      -0.01294753      -0.00039362       0.00606142
C        9.85544206      -0.01642076       3.61848019      -0.00450395       0.00100872       0.00313798
C        8.61971920       2.12242299       3.59485212       0.00071582       0.00621966       0.01403913
C        7.39119890       4.26244730       3.65769702       0.00381513      -0.00510036      -0.00227888
C        6.17685158       6.40862416       3.78772225      -0.00049553      -0.00252772      -0.00527117
C        4.94554266       8.54763821       3.73576501      -0.00599542      -0.00055023       0.00028342
C       -0.02124304       1.40609780       3.76674495       0.00657439      -0.00230066      -0.00362281
C       -1.26987785       3.54124588       3.81067128      -0.00500896      -0.01020707       0.00540730
C       -2.47744123       5.68599256       3.76541206      -0.00143320      -0.00041160      -0.00217880
C       -3.70553192       7.82548910       3.72351771       0.00583150       0.00187818      -0.00348349
C       -4.94116104       9.96537601       3.72011086      -0.00036868       0.00135779       0.00105172
C        2.45628494       1.41576829       3.77679793      -0.00314187      -0.00005677      -0.00076629
C        1.16510307       3.51741244       4.01339717      -0.01178309       0.00911054      -0.00084534
C       -0.02030395       5.67946299       3.97869842       0.00004152       0.00141608       0.00083936
C       -1.24532560       7.82292777       3.72890596       0.00268396      -0.00445310       0.00360695
C       -2.47659866       9.96179886       3.66557155       0.00302943       0.00020981      -0.01145900
C        4.92490730       1.40976543       3.62343492      -0.00079077       0.00767540       0.00012508
C        3.71787978       3.54679780       3.86141803      -0.00325500       0.00573444      -0.00441309
C        1.21817760       7.81101536       3.79506803      -0.00574129      -0.01173835      -0.00439765
C       -0.01169496       9.95379340       3.59363221       0.00731209      -0.00104751       0.00558815
C        7.38757464       1.40766563       3.55590416       0.00870313       0.00224505       0.00316128
C        6.16385685       3.55335749       3.62422738       0.00450807      -0.00254561      -0.00565541
C        4.96041643       5.69855755       3.79737519      -0.00586340       0.00253395      -0.00374367
C        3.72444337       7.84823331       3.69599641      -0.01056596       0.00570927      -0.00939199
C        2.45838521       9.95277431       3.57607581      -0.00084968      -0.00045888       0.00087557
C        9.85141725       1.40880856       3.63398345      -0.00631536      -0.00143583       0.00556531
C        8.62049659       3.54655295       3.64796100       0.00276414       0.00219737       0.01178746
C        7.40079735       5.68551099       3.73520067      -0.00156525      -0.00559535      -0.00984705
C        6.17269380       7.83209268       3.76341590       0.00468732       0.00058546      -0.00582051
C        4.92552479       9.96704453       3.69255561      -0.00347419       0.00131965      -0.00008618
Ti       2.87407793       6.14842013       5.00514589       0.00607137       0.01461353       0.00062945
