49
Lattice="12.336457 0.0 0.0 -6.168228499999997 10.683685154694365 0.0 0.0 0.0 15.0" Properties=species:S:1:pos:R:3:forces:R:3 energy=-431.87347740529714 free_energy=-431.87347740529714 stress="-0.004047780046541464 0.0010303950477079397 1.0354920301462747e-05 0.0010303950477079397 -0.007747775937559566 -1.4096998935681966e-05 1.0354920301462747e-05 -1.4096998935681966e-05 -1.4373694914105719e-06" pbc="T T T"
C        0.01137275      -0.00588346       3.84088058      -0.00124218       0.00597777      -0.01713213
C       -1.22106975       2.13669438       3.70377860       0.00930447      -0.00135303       0.00024058
C       -2.46607049       4.27816806       3.80291270       0.00102323      -0.00229239       0.00165123
C       -3.69721836       6.41063385       3.90717225      -0.00183337      -0.00149902      -0.01507183
C       -4.92885969       8.53763117       3.92914780       0.00320448       0.01305429       0.00411026
C        2.47716350      -0.02086905       3.81477773       0.00366478      -0.00087600       0.00925079
C        1.25377242       2.04796451       3.42881614       0.00700704      -0.00950839      -0.01193422
C       -0.08522993       4.28419708       3.30006660      -0.00936380       0.00102126       0.00947713
C       -1.25498242       6.43404075       3.56396024       0.00442874       0.00076541      -0.01366722
C       -2.45244381       8.54347141       3.79528020       0.00452436       0.00454763       0.00575253
C        4.94383390       0.00718808       3.82465401      -0.00202711       0.01769895      -0.00457782
C        3.70602097       2.14067161       3.79251157      -0.01046244      -0.00056475       0.00982882
S        1.36947110       6.41593555       2.55454317       0.01219184      -0.00463795      -0.00283867
C        0.00787590       8.56909809       3.59417659       0.00138032      -0.00308069      -0.00096661
C        7.40957845       0.02146644       3.84725915      -0.01325371      -0.00024104       0.00975464
C        6.18122046       2.13780750       3.93338869      -0.00424752       0.00768877       0.00561940
C        4.95470086       4.25822211       3.98558973       0.00457674      -0.00941914      -0.00367739
B        3.62967196       6.39540312       3.95769421       0.00323801       0.00327554       0.00279825
C        2.47055274       8.59223162       3.73589551      -0.01360248      -0.00825921       0.01207488
C        9.88536367       0.01762404       3.89299459      -0.00561534       0.00640099       0.00397339
C        8.64952413       2.14666152       3.91529247      -0.00930377       0.00856512      -0.00706821
C        7.41475257       4.27348611       3.98243335       0.00018348      -0.00445994       0.01084907
C        6.17431035       6.40988825       4.00607385       0.00826008      -0.01505573       0.00009670
C        4.93633512       8.54827224       3.94030184       0.01208804      -0.00348451       0.01001346
C        0.00723181       1.41072562       3.66405540       0.00780730       0.00165143      -0.00794684
C       -1.25547823       3.54660316       3.62487794      -0.00159113      -0.00547742      -0.01021088
C       -2.46808963       5.70540367       3.78070148       0.00261969       0.00109408      -0.01138973
C       -3.69340012       7.83183977       3.88572554      -0.00087158       0.00420751       0.00282908
C       -4.92522339       9.95990449       3.86525963      -0.00118088       0.01300670       0.00223101
C        2.48361086       1.40199992       3.68604535      -0.00470490      -0.00487766       0.01690379
S        1.25332630       3.49034464       2.41266479       0.00986847      -0.00701183       0.00250223
C       -0.09016616       5.69685216       3.25178786      -0.00642430      -0.01001976       0.00546133
C       -1.22710332       7.84727892       3.63387356       0.00400350       0.00310230      -0.01933598
C       -2.45472949       9.96651828       3.82282542       0.00683643       0.00672819       0.00428199
C        4.94676269       1.42634203       3.86693031      -0.00625744       0.01697803       0.00031570
C        3.73956033       3.53475788       3.88097155       0.00339943      -0.00685721       0.01142013
C        1.26109141       7.94117936       3.41015955      -0.00451266      -0.01293453       0.00227357
C        0.01040885       9.98788719       3.77228318      -0.00935966       0.00210165       0.01057158
C        7.41649183       1.43715067       3.91794727      -0.01061253       0.00200254       0.00629119
C        6.19429674       3.55044285       3.98881788       0.00374194      -0.00101721      -0.00602563
C        4.95138430       5.67257818       4.00228510       0.00434624      -0.01232639       0.01021930
C        3.68444734       7.87106250       3.87368715       0.00168047       0.00722101      -0.00166976
C        2.47437570      10.01151594       3.85313208      -0.01104628      -0.00018726      -0.00768485
C        9.88960935       1.43821685       3.85962383      -0.00091806       0.01054367      -0.00645234
C        8.64599490       3.56631686       3.92338899      -0.00224997       0.00588219      -0.00260100
C        7.41106834       5.69936459       3.98645371       0.00338047      -0.01023049      -0.01645957
C        6.16985770       7.83037124       3.97397662       0.01370395      -0.00914102      -0.00487561
C        4.94517519       9.97750758       3.90673010       0.00027081       0.00220003      -0.00019334
Ti       2.13724358       4.79637977       4.06091368      -0.00605320      -0.00090250       0.00098757
