49
Lattice="12.336457 0.0 0.0 -6.168228499999997 10.683685154694365 0.0 0.0 0.0 15.0" Properties=species:S:1:pos:R:3:forces:R:3 energy=-428.76082662981617 free_energy=-428.76082662981617 stress="-0.0008168886208147396 -0.004315212576765746 1.6057883054715344e-05 -0.004315212576765746 4.58931691319503e-05 -8.218145056606712e-06 1.6057883054715344e-05 -8.218145056606712e-06 4.315749026173195e-06" pbc="T T T"
C       -0.01234106       0.00650586       3.79215750       0.00231098       0.01345885      -0.00278810
C       -1.28025209       2.12906409       3.61602880      -0.00621866      -0.00596404      -0.00115720
C       -2.52213190       4.27689296       3.87441870       0.00631238      -0.00426938      -0.00047648
C       -3.69523926       6.42525533       4.10659893       0.00320318      -0.00878166      -0.00578321
C       -4.92029759       8.57857146       4.06832059       0.01056666      -0.00288096       0.00816085
C        2.46372459      -0.00876959       3.66266980      -0.00744335      -0.00966347       0.00206595
C        1.18622486       2.01627426       3.15767365       0.00745071      -0.00579992       0.01298052
C       -0.16543105       4.29277501       3.30931975       0.00575995      -0.00626514       0.00213930
C       -1.25163990       6.40986224       3.82052132      -0.00870905       0.01342554      -0.00560370
C       -2.45724569       8.55266726       3.90803539       0.00187020       0.01160386      -0.00324876
C        4.92579790       0.01330734       3.71506340      -0.00038244      -0.00749495       0.00343811
C        3.69426119       2.08199811       3.09198358      -0.00435915       0.00518238      -0.01174266
B        1.26822697       6.34939222       3.54568722       0.00934370      -0.01126537       0.00576093
C        0.01450987       8.53661620       3.79372862      -0.00619331      -0.00753153       0.00310437
C        7.38552444       0.01024624       3.84419166      -0.00455341      -0.00476838       0.01876553
C        6.11302086       2.17410269       3.82349277       0.00069982       0.00360214      -0.00548126
C        4.90251813       4.39200629       4.12324427      -0.00801184      -0.00209296       0.00269335
O        3.79225105       6.49306992       4.07191943      -0.00065845      -0.00769838      -0.01351398
C        2.49304870       8.53512798       3.88715777      -0.00621549       0.00780790       0.00330923
C        9.85118048       0.00329571       3.88125629       0.01014407       0.00152456       0.01521947
C        8.59188347       2.14963680       3.89689808       0.00309148       0.00608543      -0.00337260
C        7.35586162       4.29436475       4.11227659      -0.00844828       0.00663220      -0.00263732
C        6.21471991       6.47912705       4.35346741      -0.00153912       0.00418786       0.00140617
C        4.95218869       8.57518437       4.10186710      -0.00211294       0.00293733      -0.00000328
C       -0.04158897       1.40946740       3.52464188      -0.00000969       0.01011965       0.01172181
C       -1.32123266       3.54434129       3.60243788       0.00112091      -0.01092150      -0.01218095
C       -2.48412855       5.70247270       3.94986668       0.00221822      -0.00185258      -0.00717027
C       -3.68626263       7.85252564       4.05170816       0.01209910      -0.00580692      -0.01182824
C       -4.93357675       9.99015541       3.85011242      -0.00613023      -0.00068435       0.00610649
C        2.44310766       1.38325487       3.28474352       0.00149718      -0.00774694       0.00756587
S        1.08717557       3.56762368       2.37030006      -0.00060272      -0.00912332      -0.00590403
C       -0.04464190       5.66828186       3.56205368      -0.00395215       0.00291823      -0.00774453
C       -1.22294741       7.82957884       3.85069589      -0.00792343       0.01055942       0.00123525
C       -2.46809344       9.97333106       3.76550153      -0.00435647       0.00247060      -0.00922773
C        4.91055244       1.44483219       3.57454172      -0.00056678      -0.00407010       0.00221329
S        3.85322308       3.29127541       1.79343076       0.01156591       0.00514074       0.00340787
C        1.26311222       7.82325407       3.75304556      -0.00473202       0.00346863       0.00789611
C       -0.00705398       9.97638087       3.80273429      -0.00282216      -0.01429494       0.00083591
C        7.35591741       1.44539346       3.87590009       0.00214961       0.00197104      -0.00668921
C        6.09756538       3.59983130       4.03221508      -0.00884560       0.00565765      -0.00920296
C        5.00767626       5.78849040       4.28345481       0.00182344      -0.00784002       0.00110822
C        3.73959068       7.88226451       4.02271685      -0.00504724      -0.00230077       0.00021279
C        2.46154469       9.97305305       3.89062214       0.00422345       0.00758651       0.00237833
C        9.83627051       1.43364308       3.80969311       0.00018206      -0.00341430       0.00865965
C        8.58248400       3.57275676       3.97579596      -0.00233240       0.00930130      -0.01486798
C        7.40735183       5.71784123       4.22088384      -0.00598758       0.00031541       0.00020880
C        6.19867746       7.88671326       4.21261548       0.00243322       0.00458123       0.00069595
C        4.92457044       9.98763407       3.93654187       0.00981437       0.00794483       0.01462630
Ti       3.01773583       4.66757817       3.40048766       0.00827335       0.00404858      -0.00729197
