49
Lattice="12.336457 0.0 0.0 -6.168228499999997 10.683685154694365 0.0 0.0 0.0 15.0" Properties=species:S:1:pos:R:3:forces:R:3 energy=-431.5678917448873 free_energy=-431.5678917448873 stress="-0.006265474553370495 -0.0033596227736644372 1.773101169288544e-06 -0.0033596227736644372 -0.009664695334495706 -1.353168074123097e-05 1.773101169288544e-06 -1.353168074123097e-05 6.6877517377683236e-06" pbc="T T T"
C       -0.01352826       0.00835382       3.96587048      -0.00735674      -0.00095677      -0.00291259
C       -1.26892246       2.13488235       3.98657539       0.00215915      -0.00251143       0.00660783
C       -2.49770076       4.27997761       3.87708548       0.00248407       0.00615047       0.00250635
C       -3.70930227       6.41900281       3.77948385       0.01257775      -0.00554802       0.01046236
C       -4.93904169       8.55227041       3.86683275      -0.00567617       0.00633673       0.00044741
C        2.45471215      -0.01545020       3.78736874       0.00322756      -0.00228021       0.00088967
C        1.20177413       2.11997882       3.81262121       0.01038784      -0.00052811      -0.00606866
C       -0.04761354       4.24141572       3.85899488      -0.00663693       0.00696196       0.00515135
C       -1.23874646       6.40826970       3.74234268       0.00305051      -0.00211003       0.00629706
C       -2.45880525       8.54025397       3.77228570       0.00401956       0.00064857       0.00203694
C        4.91838252       0.01191610       3.72785848       0.00262673       0.01032366      -0.00552132
C        3.65765086       2.09830955       3.42422914      -0.00418892       0.00807156       0.01535194
S        1.48095597       6.25609336       3.22818842      -0.01138357      -0.00417960       0.00672245
C        0.00557610       8.55029444       3.74410379      -0.00333979       0.00257695      -0.00164068
C        7.36953239       0.03683289       3.88189446       0.00444117       0.00022933      -0.00234027
C        6.14257941       2.15485032       3.57807526      -0.00955246      -0.00705037      -0.00458873
C        5.02908453       4.32202737       3.14969497       0.00004988      -0.00954703      -0.00354997
B        3.67883140       6.47258258       3.91049513      -0.01331828       0.00609079      -0.01001798
C        2.45806532       8.62303011       3.94544824      -0.00197333      -0.00401638       0.00393941
C        9.85059276       0.03430016       4.04202424      -0.00241071      -0.00512378      -0.01394353
C        8.60051260       2.15689968       3.89098460      -0.00518581       0.01508897      -0.00439667
C        7.39436522       4.28960726       3.67127988       0.00037599      -0.00237962       0.00201957
C        6.17274824       6.43937251       3.68182820       0.01103209      -0.00073336      -0.00628743
C        4.93587856       8.58266124       3.98627080      -0.00275413      -0.00516712       0.00031022
C       -0.03715723       1.41798288       3.94172120       0.00704559      -0.00051510       0.00311855
C       -1.29114504       3.54752212       3.94339632      -0.00369849       0.00196511      -0.00265269
C       -2.48318361       5.70133276       3.80435093       0.01083757      -0.00348210       0.00920354
C       -3.70186529       7.83970476       3.80127885       0.00048454       0.00055102       0.01238830
C       -4.94471154       9.97161622       3.89166038      -0.00504263       0.00613262      -0.00291042
C        2.43486897       1.40668040       3.67531226       0.00616352      -0.00696308       0.00271930
C        1.15498434       3.51608853       3.82947465      -0.00371835       0.00445330       0.01368863
C       -0.06324470       5.63067666       3.68515912       0.00733294       0.00990904       0.00380903
C       -1.22382645       7.82978822       3.72746094       0.00121700      -0.00615134      -0.00177815
C       -2.47521501       9.96818311       3.75997190       0.00789047       0.00466408       0.00063079
C        4.91675081       1.43417477       3.57753473      -0.00904252       0.00357398       0.00268062
S        3.70138432       3.50209573       2.25228587       0.00302034      -0.01406786      -0.00280029
C        1.26650822       7.91602470       3.70627481      -0.00459027       0.00023644      -0.00508875
C       -0.01409657       9.98862883       3.79685659       0.00063333       0.00670284      -0.00510553
C        7.36418169       1.45600645       3.80150329      -0.00280446       0.00315005      -0.00746132
C        6.18644076       3.56486026       3.44661596       0.00009383      -0.00971812       0.00537402
C        4.94760676       5.71566243       3.49458383      -0.00095263       0.00387379      -0.00195636
C        3.68626591       7.93359033       3.99305522      -0.00202649       0.00401039      -0.00403766
C        2.43889016      10.03588747       4.00175603       0.00204044      -0.00817050      -0.01020304
C        9.83287418       1.44412806       4.00057580      -0.00545506       0.00089217      -0.00940589
C        8.60743488       3.57423356       3.83004740       0.00031371       0.01498162      -0.00125190
C        7.39567875       5.71610986       3.70608327       0.01337886      -0.00764483       0.00240575
C        6.16448276       7.84922092       3.86798432      -0.00103797      -0.00112764       0.00447178
C        4.92327861      10.00197032       4.02952531      -0.00524024      -0.00727754      -0.00408970
Ti       2.91262618       4.49864716       4.07841382       0.00050150      -0.01032552      -0.00322335
