49
Lattice="12.336457 0.0 0.0 -6.168228499999997 10.683685154694365 0.0 0.0 0.0 15.0" Properties=species:S:1:pos:R:3:forces:R:3 energy=-436.44912371511043 free_energy=-436.44912371511043 stress="-0.002845359993985059 0.0008955478927784082 -2.3180289741861655e-06 0.0008955478927784082 0.0003062648624043338 -9.929454478381946e-07 -2.3180289741861655e-06 -9.929454478381946e-07 -1.3816470508617993e-06" pbc="T T T"
C        0.00817158       0.00889928       3.66686477      -0.00185704       0.00022219      -0.00859685
C       -1.23606839       2.14073959       3.67172206       0.01148454      -0.00024442      -0.00856647
C       -2.46472182       4.27754538       3.70745958       0.00292321       0.00364387      -0.00652342
C       -3.70173561       6.41122195       3.69672645       0.00313030      -0.01969302      -0.00056321
C       -4.93524798       8.55097175       3.68734294       0.00002331       0.00195108       0.00961861
C        2.46599383       0.02876296       3.71241105       0.00360976       0.00507345       0.00530254
C        1.22335971       2.12383453       3.71193646      -0.00450274      -0.00248787       0.00510940
C       -0.03236786       4.28647462       3.82302614      -0.00354040       0.00062606      -0.01316174
C       -1.24265415       6.41437841       3.74354480       0.00339815      -0.00263113      -0.00225878
C       -2.46734067       8.55214456       3.69336285      -0.00132054      -0.00709639       0.00667967
C        4.93239461       0.00676333       3.71308487      -0.00078299       0.00897475       0.00320541
C        3.72360288       2.17944560       3.84527673      -0.00836031       0.00054583      -0.00829176
O        1.20224932       6.41921230       3.81759110       0.00563492       0.01397191       0.01182570
C       -0.00369406       8.53188404       3.71118770      -0.00061286      -0.00533506       0.00527977
C        7.40009477      -0.01185973       3.67755787      -0.00723936      -0.00380899      -0.00068292
C        6.17835563       2.12536849       3.72877575       0.00381480       0.00278923       0.01063526
C        4.96215026       4.21939210       3.90120117       0.00570579      -0.00538556       0.00060712
B        3.73573755       6.42129262       3.98117951      -0.00351102      -0.00661177      -0.00436985
C        2.43983844       8.53065589       3.73010112      -0.00062258       0.00503666       0.00621462
C        9.86661538      -0.00651020       3.65503550      -0.00705914       0.00715259       0.01073534
C        8.63808682       2.13129243       3.66905273       0.00597149       0.01769344      -0.00209080
C        7.40923033       4.26520296       3.72016759      -0.00405610      -0.00169180      -0.00638739
C        6.17801540       6.40094103       3.76590806       0.00471735      -0.00580575       0.01499312
C        4.94022661       8.55167523       3.71625394      -0.01014885      -0.00052284      -0.00475716
C        0.00541952       1.43914970       3.66758777       0.00227600      -0.00326688      -0.00892860
C       -1.23752089       3.56197463       3.72613576      -0.00163828      -0.00104263      -0.01020775
C       -2.46671644       5.69617182       3.71286059       0.00770282      -0.00656612      -0.00403714
C       -3.70449437       7.83886218       3.68837229      -0.00315657      -0.01215696       0.00601323
C       -4.92858753       9.98733416       3.68296411       0.00121359       0.00977094       0.00051810
C        2.46231926       1.47935347       3.76346776      -0.00341790       0.00071798      -0.00651707
O        1.19139805       3.54054112       3.67170744      -0.00344065      -0.00711944      -0.00296301
C       -0.03850485       5.68581749       3.83817404       0.00566257       0.00406898      -0.00763656
C       -1.24553269       7.83563505       3.71173545       0.00113802      -0.00590817       0.00057998
C       -2.47440617       9.98782709       3.70756572       0.00293233       0.00021937      -0.01080740
C        4.93565550       1.43458882       3.75346139      -0.00237708       0.00828411      -0.00613093
N        3.77820847       3.53557114       4.01270455       0.00304539       0.00121018       0.00206142
C        1.21701792       7.83951306       3.75672008       0.00237414       0.00183598       0.00111190
C        0.00074698       9.96348981       3.69661076      -0.00633038      -0.00639470      -0.00703153
C        7.40687970       1.41594530       3.68020594       0.00589169       0.00493392      -0.00262351
C        6.18800312       3.53341159       3.76618747       0.00215881      -0.00011270      -0.00155189
C        4.96458321       5.64213519       3.89422454       0.00363657      -0.00359012       0.01602619
C        3.69436566       7.86015219       3.77926708      -0.01027160      -0.00272493       0.00177695
C        2.45638861       9.96371005       3.67421885      -0.00755427       0.00012581      -0.00150087
C        9.87752923       1.42381688       3.65324934       0.00524537       0.00742613       0.00572519
C        8.64077918       3.55625181       3.68926668      -0.00179023       0.01623451      -0.00783174
C        7.40843264       5.69453232       3.71921791       0.00465347      -0.01445619       0.00892495
C        6.16819455       7.82852146       3.72222193      -0.00176751      -0.00296212       0.00623215
C        4.94209274       9.97727980       3.66683878      -0.00670054       0.00025995       0.00273155
Ti       2.41484935       4.89723384       4.57298261       0.00371455       0.00484665       0.00211018
