50
Lattice="12.336457 0.0 0.0 -6.168228499999997 10.683685154694365 0.0 0.0 0.0 15.0" Properties=species:S:1:pos:R:3:forces:R:3 energy=-443.1628152750685 free_energy=-443.1628152750685 stress="-0.006611793274063433 0.004681563633557062 2.7223969752517082e-06 0.004681563633557062 -0.012405571349848663 5.41690462196868e-06 2.7223969752517082e-06 5.41690462196868e-06 -1.4352821333761012e-06" pbc="T T T"
C        0.01921563       0.00322816       3.79538370       0.00507083      -0.00163183       0.00025590
C       -1.19217372       2.15678339       3.77505791       0.00329789       0.00107370       0.00608095
C       -2.42620142       4.29672185       3.80197251      -0.00302498       0.00004374      -0.00334874
C       -3.68661917       6.42261731       3.83776102       0.00036906       0.00354828      -0.01251122
C       -4.94745870       8.53780694       3.82972536       0.00084696       0.00322541       0.00016135
C        2.48050853      -0.00626839       3.83137356       0.00458941       0.00321485       0.01750360
C        1.27499694       2.11440111       3.60890212       0.00552685       0.00303959       0.00317607
C       -0.00508276       4.26938421       3.43231441       0.00532239       0.00646497      -0.00268381
C       -1.23049702       6.45437379       3.64032689      -0.00306057       0.00202421       0.00137709
C       -2.46451076       8.55940235       3.85055843       0.00065248      -0.00337347       0.00660905
C        4.95541547       0.01040743       3.94725257      -0.01028089      -0.00196673      -0.01019740
C        3.76189637       2.09896182       3.71137167       0.00212385       0.00099806      -0.00028615
B        2.64207567       4.24089842       3.17030163      -0.00143295       0.00175906       0.00226530
B        1.29161534       6.57344923       3.17682471      -0.00532439      -0.00806047       0.00467394
C       -0.00118744       8.61619716       3.71369669       0.00326634       0.00303014      -0.00583626
C        7.42718300       0.04646633       3.94241935      -0.00574982       0.00418983      -0.00022731
C        6.22251276       2.13222217       3.95681984      -0.00058136      -0.00113015       0.00562162
C        5.04359007       4.21635454       3.64134661      -0.00485120      -0.00231646      -0.00125274
S        3.19664825       6.11684641       3.58033592      -0.00048873       0.00412852      -0.01091319
C        2.47276758       8.66876496       3.60737153       0.00331025      -0.00366012      -0.00374472
C        9.91111247       0.04362168       3.85776800      -0.00463942       0.00162334       0.01346282
C        8.68879881       2.16515118       3.95973091       0.00337245       0.00273467       0.00286946
C        7.46233699       4.28568598       3.89846436      -0.00611229      -0.00325794       0.01242075
C        6.15278739       6.39551115       3.76092344       0.00669889      -0.00230886      -0.00497488
C        4.91561711       8.53891097       3.73083400      -0.00415998      -0.00206201       0.00277589
C        0.03766286       1.42879420       3.73458110       0.00510343      -0.00044527      -0.00226936
C       -1.21468193       3.57064876       3.66851531      -0.00012922       0.00103999      -0.00772142
C       -2.44196093       5.72603129       3.77534875      -0.00429529       0.00106978      -0.01323687
C       -3.70068552       7.84265499       3.84545578       0.00012095       0.00276901      -0.00473278
C       -4.92626421       9.96496646       3.82011007       0.00775457       0.00212573       0.00494286
C        2.49567808       1.41052700       3.72045660       0.00490801       0.00284893       0.00184369
C        1.26803626       3.55496726       3.39888028       0.00514351       0.00527421      -0.00545022
C        0.01188466       5.72891562       3.41503393      -0.00521418       0.00151093      -0.00673025
C       -1.22995943       7.86371937       3.74281886       0.00228279       0.00230026      -0.00302456
C       -2.45598517       9.97689281       3.89429139      -0.00373200      -0.00497695      -0.00563184
C        4.98501747       1.41505714       3.91523525      -0.00140443      -0.00170488      -0.00193611
C        3.86459888       3.47278072       3.47564481      -0.00248267       0.00154406       0.00340094
C        1.23727682       8.01911259       3.46149351       0.00613383      -0.00171732       0.00296186
C        0.01882208      10.01753512       3.91221532      -0.00731662       0.00371151      -0.00337760
C        7.45230790       1.45126762       4.00058170       0.00382100       0.00419634      -0.00313383
C        6.26069334       3.54147932       3.86238030      -0.00749045      -0.00238344       0.00515253
C        4.99400170       5.60610660       3.63678452       0.01163695      -0.00646403       0.00782495
C        3.65243467       7.93111051       3.60161411      -0.00125558      -0.00971729       0.00746109
C        2.49747168      10.05954714       3.82746082      -0.00475905      -0.00161073       0.01002865
C        9.91847935       1.46006866       3.89290836       0.00112606       0.00250885       0.00454842
C        8.69362431       3.58348677       3.91973648      -0.00435736       0.00004845      -0.00694232
C        7.42248554       5.70463408       3.84184974       0.00444635      -0.00301106      -0.00797774
C        6.15330694       7.82453314       3.77401216      -0.00235811       0.00172556       0.00580867
C        4.95194179       9.98384863       3.79895117      -0.00314212       0.00155148      -0.00709755
Ti       1.40674464       5.07811997       4.71546181       0.00071859      -0.01352444       0.00201142
