49
Lattice="12.336457 0.0 0.0 -6.168228499999997 10.683685154694365 0.0 0.0 0.0 15.0" Properties=species:S:1:pos:R:3:forces:R:3 energy=-435.4713612909769 free_energy=-435.4713612909769 stress="0.0013092024597241118 0.0027998643760944082 2.332507645461795e-06 0.0027998643760944082 -0.005093856880854125 8.783458366659275e-06 2.332507645461795e-06 8.783458366659275e-06 -3.2414603106028656e-06" pbc="T T T"
C       -0.01342263      -0.02288232       3.76818840       0.00108568       0.01252059      -0.01121751
C       -1.21499724       2.14547652       3.88271430       0.00390477      -0.01111809       0.00704409
C       -2.43710993       4.26351486       3.88041111      -0.00261751      -0.00277608       0.00255396
C       -3.70397798       6.38494598       3.76012458      -0.01327011      -0.01303613       0.00031163
C       -4.95874785       8.51050752       3.66991966       0.00274240       0.00650642       0.00315093
C        2.44732914      -0.06696054       3.72930731      -0.00225429       0.00922019       0.00716919
C        1.25704758       2.09439041       3.85954758       0.00993403       0.00883525      -0.01009390
C        0.09519152       4.31246780       3.94370870      -0.00091122      -0.00317738      -0.00646206
C       -1.23945680       6.41219327       3.81747730       0.00188931       0.00197859      -0.00768691
C       -2.48642507       8.51703795       3.71858375      -0.01092897       0.00489897       0.00775734
C        4.91718104      -0.02247263       3.73938997       0.01217815       0.00191105       0.00255169
C        3.66928181       2.05213900       3.77702353       0.00003037       0.00222932       0.01919992
N        1.15195989       6.48898239       3.88346490       0.00494904       0.00149561      -0.01086713
C       -0.03629532       8.54783465       3.73190261       0.00115813      -0.00257144       0.00766206
C        7.38912425       0.00166875       3.78754133       0.00645104       0.00110591       0.00292245
C        6.15773217       2.12375894       3.82773113      -0.00455165       0.00047748      -0.00943564
C        4.87950273       4.23803908       3.74115916       0.01026758      -0.00890665       0.00181917
P        3.70364297       6.37959638       2.41826860       0.00211113       0.01069143      -0.00479842
C        2.42278671       8.55138981       3.65449902      -0.00072630      -0.00050594       0.01513842
C        9.86207790       0.00203362       3.78358495      -0.00514378      -0.00688864       0.00093974
C        8.63976400       2.13508212       3.87144671      -0.00629904      -0.00289795      -0.01861922
C        7.39229751       4.25216811       3.81730908      -0.00108005      -0.00984970       0.00091174
C        6.18490660       6.39210869       3.56577232      -0.00637144      -0.00427049      -0.00799089
C        4.91106673       8.52905208       3.58697134       0.00506132       0.00721362       0.00018230
C        0.00762427       1.41477209       3.84629494       0.01297392       0.00799143       0.00073610
C       -1.17089053       3.57500224       3.91468935      -0.00112926      -0.00757048      -0.00834323
C       -2.46103695       5.68389189       3.82845761      -0.00453201      -0.00253953      -0.00647222
C       -3.71937534       7.80420464       3.71045964      -0.00793769      -0.00718800      -0.00083658
C       -4.95980865       9.92739945       3.72085048      -0.00382203       0.01221255      -0.00883011
C        2.45276910       1.34168774       3.78028236       0.00337422       0.00611391       0.00423449
B        1.50939435       3.61748224       3.96009376      -0.00155516      -0.00934176       0.00710920
C        0.00454836       5.73799439       3.89426900       0.00822196       0.00276658      -0.00000057
C       -1.25275798       7.82236333       3.75154631      -0.00791222       0.00384920       0.00500680
C       -2.48064332       9.93320763       3.71369169       0.00140499       0.00902851       0.01278175
C        4.92137176       1.39863162       3.77385843      -0.00105192       0.00119299       0.01712582
B        3.46004063       3.54368508       3.85868282       0.00527003       0.00267529       0.00063104
C        1.18096035       7.84672842       3.73902759       0.00105530       0.00017295       0.00054558
C       -0.01865085       9.96780447       3.74577346       0.01360991      -0.00232623       0.00701955
C        7.39559685       1.42316116       3.83841406      -0.00706372       0.00174659      -0.00145059
C        6.13812583       3.54206611       3.81919149       0.00392577      -0.00461266      -0.00945714
C        4.97481034       5.64168633       3.44440847      -0.00677859      -0.00836809      -0.01206808
C        3.64723465       7.83089451       3.50605502       0.00296056       0.01181617      -0.00302204
C        2.45077425       9.97896110       3.75212201      -0.00197960      -0.00437590      -0.00108178
C        9.87933310       1.43001450       3.85713100      -0.00483527      -0.00980438      -0.00890636
C        8.64507523       3.55682952       3.86987872      -0.00266983      -0.00381996       0.00023909
C        7.40197606       5.67508869       3.73151803      -0.01154382      -0.01397382      -0.00151308
C        6.14431140       7.80726413       3.58186801       0.00758701       0.00031928      -0.00133367
C        4.92011884       9.95393216       3.72467884       0.00176635       0.00427963       0.01001794
Ti       2.81603186       5.50172330       4.37542914      -0.00694749       0.00666978       0.00572513
