49
Lattice="12.336457 0.0 0.0 -6.168228499999997 10.683685154694365 0.0 0.0 0.0 15.0" Properties=species:S:1:pos:R:3:forces:R:3 energy=-428.46286401029755 free_energy=-428.46286401029755 stress="-0.0023997129529416635 -0.0019407827824569667 -9.555704096915782e-06 -0.0019407827824569667 -0.009656521494625661 -1.4011782894417145e-05 -9.555704096915782e-06 -1.4011782894417145e-05 7.299815507599213e-07" pbc="T T T"
C       -0.01394210       0.00682998       3.79412382      -0.00545567       0.00057867       0.00536360
C       -1.26721552       2.13730541       4.02830415       0.01155881       0.00236925      -0.00536455
C       -2.50700117       4.28029934       3.91045892      -0.00059406      -0.00495383      -0.00478836
C       -3.71586780       6.41413539       3.73075251      -0.00295637       0.00370996      -0.01216020
C       -4.94208890       8.54602603       3.69648679      -0.00295331       0.01111149      -0.00679606
C        2.45455742      -0.02915566       3.82940008       0.00507973      -0.00698026      -0.01303473
C        1.21512570       2.01112220       4.30834698       0.01408888      -0.00018185      -0.00126259
C       -0.14485331       4.27966933       4.49350120      -0.00890105       0.00182826       0.00958575
C       -1.24161638       6.40611912       3.92254215       0.00223255       0.00119105       0.00286578
C       -2.46222758       8.53631137       3.75707223      -0.00227777       0.00326635       0.00739469
C        4.91943087       0.01033683       3.66952448       0.00026221      -0.00071736      -0.00157017
C        3.63819567       2.13570183       3.66977942       0.00058120      -0.00858609       0.01549064
P        1.62015897       6.21762477       4.01628830       0.00013485       0.00847709       0.00012015
C        0.00369696       8.55688317       3.73067393      -0.00212536       0.00624624       0.00319042
C        7.37555375       0.04394982       3.57025407      -0.00093024       0.00018471       0.01039971
C        6.13594172       2.15426716       3.47547364      -0.00620114      -0.00252023       0.00290373
C        4.96671494       4.30599620       3.17913604       0.00581630      -0.00771196       0.00408957
B        3.55662092       6.46758632       3.60209839      -0.00484195       0.00063935      -0.01148839
C        2.46809308       8.65482954       3.53399195       0.00027787      -0.00930095       0.00668562
C        9.86558869       0.05339631       3.60789514      -0.00351762       0.00465196       0.00477761
C        8.61055401       2.16380050       3.66415888      -0.00515898       0.00402081       0.00711212
C        7.38211202       4.28816260       3.56209305       0.00868920       0.00325139       0.00207245
C        6.15448690       6.43646530       3.55813388      -0.00345280       0.00193055      -0.01185315
C        4.93853328       8.59808033       3.53177373       0.00130083      -0.00768325      -0.01163798
C       -0.03570515       1.40889439       4.04553899       0.01269680       0.00350068      -0.00197769
C       -1.30318165       3.54718393       4.16877611      -0.00084525      -0.00342840      -0.00665727
C       -2.48342405       5.70432746       3.85796227      -0.00196481      -0.00344015      -0.00246587
C       -3.70432630       7.83347651       3.73198923      -0.00537237       0.00802546      -0.00536289
C       -4.94798078       9.96319506       3.77942093      -0.00306843       0.00791697      -0.00378869
C        2.43133218       1.38707486       3.94197084       0.00727226      -0.01544892      -0.00437841
S        1.22488096       3.47533569       5.23009863       0.00333384       0.01567198       0.00130600
C       -0.04189330       5.63441641       4.15611807       0.00424966      -0.00243230       0.00211647
C       -1.22529110       7.82582091       3.79937197      -0.00021443       0.00510413      -0.00718877
C       -2.47180318       9.95827622       3.74566166       0.00470718      -0.00160136      -0.00962890
C        4.90432474       1.43693636       3.57801429      -0.00651199      -0.00533955      -0.00066166
P        3.47191555       3.49823997       2.49641913      -0.00319496       0.00038615      -0.00257255
C        1.26958991       7.91415022       3.71805360      -0.00703262      -0.00307428       0.00084493
C       -0.01428536       9.99014891       3.64044586       0.00044922       0.00413035       0.01019281
C        7.37548759       1.45755861       3.55603383      -0.00774018       0.00128492       0.00868925
C        6.16984611       3.56517860       3.37583027       0.01214058      -0.00242079       0.00448931
C        4.91215284       5.72570342       3.46573968      -0.00405581      -0.00022313      -0.00240056
C        3.68918409       7.95682520       3.46931366       0.00075934      -0.00747490       0.00141668
C        2.45489386      10.05514959       3.53231561      -0.00195679      -0.00655893       0.00714037
C        9.85536509       1.46085152       3.75513172       0.00072273       0.00882577       0.01388792
C        8.60570783       3.58015221       3.70976605       0.00114541       0.00065966       0.00683323
C        7.38114256       5.71533836       3.61663814      -0.00249669       0.00256144      -0.00220987
C        6.16308432       7.85369761       3.60210526       0.00259528       0.00092151      -0.00833180
C        4.92905753      10.01336386       3.61984623      -0.00550198      -0.00537167      -0.00111807
Ti       3.25676686       4.54151005       4.51989380      -0.00077210      -0.00699599      -0.00026964
