49
Lattice="12.336457 0.0 0.0 -6.168228499999997 10.683685154694365 0.0 0.0 0.0 15.0" Properties=species:S:1:pos:R:3:forces:R:3 energy=-429.11162110684086 free_energy=-429.11162110684086 stress="-0.001420693875193017 0.0020087483415573947 -6.499693868110358e-07 0.0020087483415573947 -0.006213826705372358 -2.990927164119734e-06 -6.499693868110358e-07 -2.990927164119734e-06 -2.190236535784607e-06" pbc="T T T"
C        0.01616820       0.00434577       3.84728850      -0.00655581       0.00473168       0.00681450
C       -1.21431980       2.14737644       3.70057855      -0.00541837       0.00521256      -0.00375243
C       -2.46624128       4.28360155       3.75553672      -0.00087142       0.00268789      -0.00531412
C       -3.71050351       6.41073854       3.84107457       0.00714189      -0.00113809      -0.00133902
C       -4.93736501       8.53630054       3.89759364       0.01044128      -0.00912656       0.00399271
C        2.48192380      -0.01134349       3.86509885      -0.00824880      -0.00516623       0.00040731
C        1.26678217       2.09013919       3.49360288       0.00626619      -0.00151389      -0.00295120
C       -0.06539417       4.29351366       3.28061095      -0.00097260      -0.00023756       0.00405456
C       -1.25550044       6.43642475       3.53940000       0.00138596       0.00169894       0.00646631
C       -2.45794996       8.54177940       3.78750587      -0.00055679       0.00668690       0.00054078
C        4.94250232      -0.00133987       3.87759376       0.00211624      -0.00280890       0.00467643
C        3.73707975       2.09186740       3.90566681      -0.00002688      -0.00212889      -0.00179181
S        1.38529191       6.42147757       2.57338946      -0.01044286      -0.00438524      -0.00406189
C        0.00739956       8.56709504       3.61094762      -0.00419467       0.00449229      -0.00665218
C        7.40880670       0.02244441       3.87620831       0.00431795       0.00967796      -0.00018952
C        6.18827083       2.13584499       3.98100809      -0.00788725       0.00321744       0.00724989
C        4.96696999       4.24488197       4.00616897       0.00001713      -0.00450313      -0.00624899
B        3.60425260       6.40871703       3.89298036       0.00060270      -0.01708857      -0.00440249
C        2.46951846       8.60320502       3.73608167       0.00267063       0.00395211       0.00112093
C        9.88827887       0.02815820       3.88915833       0.00060613      -0.00336885       0.00602236
C        8.65182930       2.15526960       3.90742925       0.00251022      -0.00801818      -0.00402559
C        7.40469152       4.27841499       3.94844118       0.00437661      -0.00046438      -0.00174005
C        6.14846510       6.39599975       3.93960226      -0.01024153       0.00505220      -0.01275939
C        4.93419432       8.55359443       3.90872206      -0.00261121       0.00147019       0.00081752
C        0.02359334       1.42886778       3.68948885       0.00093456       0.01172410       0.00170052
C       -1.25101249       3.55394377       3.60105812      -0.00216577       0.00843673      -0.00766394
C       -2.47577821       5.70922682       3.72384135       0.00739407       0.00461670       0.00637062
C       -3.70288631       7.83127501       3.84556443       0.01281914      -0.00419708       0.00560356
C       -4.92352518       9.96498159       3.87408947      -0.00827178      -0.00970869       0.00734834
C        2.50138862       1.43151008       3.78386455       0.00391873      -0.00416691      -0.00702116
S        1.25669545       3.47975593       2.35679231       0.00575529      -0.00750468       0.00086818
C       -0.07473246       5.70098980       3.25680766       0.00448220      -0.00488461       0.00261392
C       -1.23089923       7.84771346       3.62620447      -0.01005169       0.00489491      -0.00880407
C       -2.45744106       9.97002348       3.85749575      -0.00215312       0.00261661       0.00035514
C        4.95315787       1.42388932       3.94795955      -0.00292458      -0.00281705       0.00482482
O        3.76596723       3.49663604       4.04737374       0.00045670       0.00254432       0.00852414
C        1.26039432       7.94939100       3.41790945      -0.00037818       0.01108171       0.00249325
C        0.01005735       9.98441268       3.80873958       0.00522540       0.00220045       0.00135243
C        7.41286751       1.44334685       3.94303055      -0.00529045       0.00775767      -0.00338042
C        6.18235621       3.54622592       4.00303575      -0.00219173       0.00181100       0.00040761
C        4.90324231       5.64180161       3.95017752      -0.00392402      -0.00584439      -0.00146834
C        3.68192876       7.87794556       3.84371788       0.00151773      -0.00665768      -0.00675828
C        2.47537916      10.02011662       3.86051781       0.00385055       0.00741388       0.00672522
C        9.89306376       1.44824810       3.85210952       0.00075458      -0.00877476       0.00069759
C        8.64167367       3.57389178       3.88912651       0.00432030      -0.00750973      -0.00116825
C        7.38799005       5.69733401       3.92211480      -0.00287873       0.00469681      -0.01035251
C        6.15826323       7.81964325       3.92277511      -0.00068304       0.00530084       0.00463576
C        4.94831140       9.98669654       3.89348979      -0.00468931      -0.00177365       0.00393377
Ti       2.14218679       4.71217522       3.97574636       0.00974839      -0.00018816       0.00122747
