49
Lattice="12.336457 0.0 0.0 -6.168228499999997 10.683685154694365 0.0 0.0 0.0 15.0" Properties=species:S:1:pos:R:3:forces:R:3 energy=-435.4818820514968 free_energy=-435.4818820514968 stress="-0.003803588784262679 -0.0016166997477095192 5.744445704215579e-06 -0.0016166997477095192 -0.007514978918336425 -8.879673312421896e-06 5.744445704215579e-06 -8.879673312421896e-06 1.0368782616489467e-06" pbc="T T T"
C       -0.01092383      -0.02239007       3.54312202      -0.00105285       0.00443159      -0.00153702
C       -1.25059329       2.12043235       3.73182340      -0.00876809       0.00811582       0.00556339
C       -2.49881374       4.25935338       3.69081805       0.00588979       0.00229119       0.00721108
C       -3.71459683       6.39360068       3.53018943       0.00279878      -0.00307687       0.00479542
C       -4.93929905       8.52460949       3.41963292      -0.00063155      -0.00113335      -0.00121041
C        2.46454647      -0.05985341       3.48589777      -0.00124239      -0.00495507       0.00483574
C        1.24056063       2.01601205       3.86867618       0.00380326      -0.00655036       0.01517671
C       -0.07834046       4.29547040       3.98785156       0.01139595      -0.00490035      -0.00203063
C       -1.26965339       6.41091350       3.76076421      -0.00504564      -0.00113306      -0.00298089
C       -2.46409017       8.52067447       3.51282141      -0.00810983       0.00191398       0.00808568
C        4.93415627      -0.02389362       3.59616922      -0.00247475       0.00367755       0.00409390
C        3.67791025       2.06210857       3.74281654       0.00418550      -0.00102098      -0.00250180
B        1.20025607       6.42126118       4.34383503      -0.00427248      -0.00648534      -0.00140200
C       -0.00276452       8.53674990       3.77571852       0.00113806      -0.00710418       0.00299423
C        7.39259611      -0.00192534       3.69815800      -0.00170536      -0.00225980      -0.00862577
C        6.14600506       2.14203671       3.74308934       0.00279699      -0.00603391      -0.00785092
C        4.89086878       4.33002687       3.96682192      -0.00563830       0.00174016       0.00106087
N        3.79794775       6.49164764       3.96350608      -0.00466370      -0.00044438       0.00618569
C        2.47834887       8.54332792       3.83284561       0.00927310       0.01111035       0.00151904
C        9.85763697      -0.00444057       3.63598130       0.01107576      -0.00501353       0.00065573
C        8.61459341       2.13218657       3.68317180       0.00159497      -0.00322491       0.00992299
C        7.36486033       4.26858040       3.68631173      -0.00253078      -0.00140417      -0.00129968
C        6.16594028       6.42067220       3.55671606       0.00092164       0.01012365      -0.00297948
C        4.93527609       8.54285953       3.54848394      -0.00268184      -0.00613508       0.00120641
C       -0.01546472       1.39332596       3.71373026      -0.00618322       0.00763571       0.00438294
C       -1.26727450       3.53964255       3.79457134       0.00045518       0.00386913       0.00100856
C       -2.49355188       5.68419410       3.64383519       0.00256497      -0.00269291      -0.00294868
C       -3.70288076       7.81337566       3.45973516      -0.00223629      -0.00384102      -0.00362094
C       -4.94696258       9.94075184       3.45584483      -0.00264772      -0.00130983      -0.00718219
C        2.46618313       1.33505052       3.66238134       0.00789332      -0.00885692       0.00575549
P        1.50210595       3.65305711       4.37471645      -0.00510087       0.01671591       0.00089315
C       -0.07519745       5.70348058       4.01233397      -0.00459969       0.00188274       0.00253954
C       -1.23766427       7.82412023       3.68290582      -0.00724121      -0.00129726      -0.00160898
C       -2.46106914       9.93535454       3.49956298      -0.00242522       0.00234448       0.00418823
C        4.92631271       1.40233727       3.68132561       0.00331238       0.00030747       0.00107550
B        3.56424512       3.53603323       4.06304702      -0.00305377       0.00212948      -0.01159296
C        1.24294147       7.85768104       3.98010262       0.01299123      -0.00016711       0.00490007
C       -0.00481567       9.95993960       3.67611630      -0.00460385      -0.00450716      -0.00384683
C        7.38011798       1.42646932       3.69791787       0.00257028      -0.00526071      -0.00663150
C        6.12390795       3.57363843       3.80445672      -0.00474451      -0.00551884      -0.00511751
C        4.95446474       5.76001740       3.80908988       0.00075434       0.00655690      -0.00309499
C        3.72618460       7.83874436       3.77172938      -0.00139936       0.00004220       0.00561124
C        2.46365949       9.97057367       3.70794683       0.00590286       0.00762519      -0.01437284
C        9.85354040       1.41884876       3.66745496      -0.00149816      -0.00465749       0.00430141
C        8.60243022       3.55481528       3.67478176       0.00443020       0.00086837      -0.00001411
C        7.38586162       5.68869445       3.57464387      -0.00035941       0.00218593      -0.00218402
C        6.16261791       7.83005385       3.47278749      -0.00067709       0.00664733      -0.00231702
C        4.92343843       9.96345434       3.55471162       0.00644228      -0.00882389      -0.00857216
Ti       2.87183450       5.25487421       5.21376824      -0.00660289       0.00559333      -0.00243969
