49
Lattice="12.336457 0.0 0.0 -6.168228499999997 10.683685154694365 0.0 0.0 0.0 15.0" Properties=species:S:1:pos:R:3:forces:R:3 energy=-433.2495853692992 free_energy=-433.2495853692992 stress="-0.005069882111534215 -0.0007340384094218444 -3.3423604214817626e-06 -0.0007340384094218444 -0.003797956007252601 7.813207314823211e-06 -3.3423604214817626e-06 7.813207314823211e-06 -1.227848140777071e-06" pbc="T T T"
C       -0.00497896      -0.01735649       3.64518388       0.00206757      -0.00259282       0.00888699
C       -1.25113852       2.11527166       3.76283255      -0.00761062       0.00201245       0.00148622
C       -2.49420178       4.25506826       3.48769081       0.00434721      -0.00080560      -0.00391681
C       -3.70945957       6.39608731       3.29379772       0.00241125       0.00458210      -0.00007171
C       -4.93999114       8.53963227       3.37323928      -0.00142510       0.00243361       0.00886190
C        2.46710751      -0.04201472       3.68526929      -0.00120236       0.00724731       0.00587933
C        1.21940044       2.00988371       4.21513544      -0.00015390      -0.00407613      -0.00530494
C       -0.14549451       4.31983346       4.02846885       0.01153103      -0.00321001       0.00225753
C       -1.27257146       6.40965462       3.50076073      -0.00423415      -0.00063545      -0.00285717
C       -2.46940354       8.53537568       3.39965638      -0.00047229       0.00246922      -0.00259666
C        4.94065980      -0.03364695       3.64664372      -0.00831812       0.00426644       0.00401003
C        3.72050880       1.99184770       4.23160333       0.01011816      -0.00739675      -0.00444776
C        1.11921757       6.42454740       4.10257241      -0.00715814      -0.00360583      -0.00288043
C        0.00428880       8.52004654       3.60399491       0.00366662       0.00438032       0.00048736
C        7.40673206      -0.02967156       3.62733833       0.00310658      -0.00075618       0.00250472
C        6.16752005       2.12186163       3.72943613       0.00484053      -0.00175515       0.00451466
C        5.01454429       4.35122069       3.94406509      -0.01179610      -0.00366360       0.00387809
O        3.87727825       6.48824518       4.15088758      -0.01610540       0.00285361      -0.00571176
C        2.49148308       8.50340921       3.79910811       0.00153368      -0.00139126      -0.00355107
C        9.86172365      -0.02547586       3.62554748       0.00403207      -0.00339456      -0.00036612
C        8.62662959       2.11597421       3.55206555      -0.00138926      -0.00720231      -0.00805304
C        7.39060719       4.25913779       3.43739877       0.00271862       0.00028507       0.00401299
C        6.17816833       6.42022750       3.40738971      -0.00027384       0.00235603      -0.00486948
C        4.94241343       8.53743084       3.55739763      -0.00345976      -0.00097264      -0.00007282
C       -0.01635937       1.39213813       3.87843730      -0.00522475       0.00015197      -0.00156489
C       -1.28779885       3.54142569       3.74159670      -0.00074140       0.00205549       0.00219704
C       -2.48511890       5.68154260       3.39130061       0.00103166      -0.00004304      -0.00775292
C       -3.70218931       7.82431351       3.31818334      -0.00050511       0.00277251       0.00487648
C       -4.93824398       9.95605223       3.54735730       0.00284463       0.00204056       0.00717920
C        2.46900869       1.33027842       4.05649533       0.00382504      -0.00407892       0.00307975
P        1.23345647       3.64339899       4.82011313      -0.00697247       0.00761921      -0.00043569
C       -0.08050145       5.72149224       3.85502138      -0.00839440       0.00324531       0.00480575
C       -1.23917019       7.82560351       3.46479524       0.00154954       0.00201131      -0.00603163
C       -2.46484619       9.94703591       3.55525410      -0.00708769       0.00788811      -0.00009131
C        4.94685642       1.37927285       3.86649778       0.00353828      -0.00137131      -0.00003447
P        3.76660406       3.59711567       4.94076068       0.00570972       0.00001031       0.00011211
C        1.22647084       7.79478419       3.84242264       0.00301703      -0.00782113      -0.00346628
C        0.00535942       9.93917039       3.60120438      -0.00267092       0.00708907      -0.00245046
C        7.39468805       1.40217974       3.60996650       0.00090109      -0.00463109       0.00521663
C        6.18031565       3.55420836       3.67528571       0.00323328      -0.00375456      -0.00545177
C        5.02554612       5.73448544       3.77414187       0.00742541       0.00590836       0.00041560
C        3.74922458       7.86504985       3.82189370      -0.00206608      -0.00017823       0.00486831
C        2.47241992       9.93709418       3.65913547       0.00434527      -0.00187154       0.00090520
C        9.86186265       1.40609221       3.62424390      -0.00286240      -0.00381415       0.00050699
C        8.62121223       3.54069282       3.45663429       0.00364780      -0.00458684      -0.00332950
C        7.39821463       5.68090118       3.33393622       0.00202870       0.00227491      -0.00233263
C        6.17561017       7.83868442       3.40645347      -0.00390432       0.00433798       0.00041467
C        4.92963234       9.96073574       3.58509804       0.00283551      -0.00205263      -0.00699980
Ti       2.49409592       5.51821078       5.32100683       0.00772231      -0.00462950       0.00328355
