49
Lattice="12.336457 0.0 0.0 -6.168228499999997 10.683685154694365 0.0 0.0 0.0 15.0" Properties=species:S:1:pos:R:3:forces:R:3 energy=-433.3890501606579 free_energy=-433.3890501606579 stress="-0.004303523818635802 0.00020354465965876614 -5.2562697477686464e-06 0.00020354465965876614 -0.0041546881218449475 1.9776344826525663e-06 -5.2562697477686464e-06 1.9776344826525663e-06 -1.30952393363865e-06" pbc="T T T"
C       -0.01317797      -0.00273227       3.58576936      -0.00129223       0.00146932      -0.00318443
C       -1.26053766       2.12594272       3.78383260       0.00152488      -0.00372855       0.00319819
C       -2.50223140       4.27316648       3.68549632      -0.00080413       0.00176417       0.00248925
C       -3.71859372       6.41229869       3.52880756       0.00162685      -0.00858261       0.00206649
C       -4.94674382       8.54907077       3.47559041       0.00825758      -0.00343204      -0.00727200
C        2.46059233       0.00702458       3.56692088       0.00222133       0.00607327      -0.00207095
C        1.22203770       2.05554375       4.09420014      -0.00625711      -0.00342442      -0.01043086
C       -0.17129967       4.26846503       4.36973361       0.00302549      -0.00114406       0.00696366
C       -1.29034789       6.42314264       3.90504374      -0.00232985       0.00508826       0.00276594
C       -2.47887744       8.54672323       3.58098733      -0.00041316       0.00154212       0.00044606
C        4.91799578       0.00084729       3.52444792       0.00076094      -0.00343916       0.00450901
C        3.70948869       2.09760355       3.68257607      -0.00403542      -0.00087063       0.00117884
P        1.36043797       6.39239277       4.80087839       0.00413419       0.00845304      -0.00381956
C       -0.02224085       8.56554559       3.79721770      -0.00358788       0.00335987       0.00087112
C        7.38700179       0.00365260       3.51409004       0.00006975      -0.00135602       0.00784553
C        6.16272090       2.13256959       3.48267487      -0.00328719       0.00333589      -0.00577220
C        4.97617740       4.24969306       3.74175373      -0.00575409      -0.00427488       0.00211374
C        3.73205320       6.43971779       3.90088375       0.00360683      -0.00262927       0.00300766
C        2.46255689       8.58240933       3.74887893       0.00008565       0.00238218       0.00666018
C        9.85965368       0.00653642       3.52391734      -0.00130805      -0.00117477      -0.00391914
C        8.62445740       2.13822735       3.50017942       0.00772119       0.00352395       0.00295911
C        7.39041766       4.27551697       3.49216297      -0.00218915       0.00300317       0.00897731
C        6.16035922       6.40849496       3.50761496      -0.00143668      -0.00261760      -0.00341925
C        4.91838029       8.54663472       3.54254613      -0.00118159       0.00168932      -0.00898704
C       -0.01420384       1.41079843       3.81413234      -0.00193155      -0.00230049       0.00671140
C       -1.30396803       3.54107733       3.93220007       0.00278077      -0.00294373       0.00322732
C       -2.50160883       5.70117419       3.68507879      -0.00004698      -0.00044964       0.00279491
C       -3.71461026       7.83732507       3.51182525       0.00641913      -0.00831194      -0.00075852
C       -4.94405585       9.97433960       3.52957910       0.00250388       0.00320209      -0.00692086
C        2.47044754       1.43126973       3.75803609      -0.00477103       0.00457018       0.00203268
P        1.18663305       3.46632572       5.15200406       0.00711417      -0.01522017      -0.00052543
C       -0.15114196       5.67729434       4.30706577      -0.00681108       0.00269413      -0.01012425
C       -1.25757929       7.84251787       3.77006447      -0.00364690       0.00471544      -0.00311435
C       -2.48125111       9.97636428       3.53511795       0.00085712       0.00100906       0.00043134
C        4.91823250       1.43174442       3.51773873      -0.00282363      -0.00333405      -0.00629525
O        3.74180346       3.51224634       3.81700223      -0.00232073       0.00215436       0.00158358
C        1.22922482       7.93623629       4.02651213      -0.00275261       0.00780706      -0.00328101
C       -0.01712820       9.97755050       3.58152232       0.00014295      -0.00216020       0.00544059
C        7.38551184       1.42815382       3.46110271       0.00215925       0.00300588      -0.00004675
C        6.16641987       3.54917603       3.53236916      -0.00392429       0.00359824       0.00462611
C        4.92483173       5.67929387       3.71417271      -0.00177985      -0.00693990      -0.00789728
C        3.68835546       7.84025879       3.71623243       0.00035258       0.00060104      -0.00262801
C        2.45725748       9.98730957       3.55248886      -0.00063883      -0.00092388       0.00405772
C        9.85896180       1.42721814       3.56954227       0.00561034      -0.00319656       0.00286845
C        8.61825956       3.56236221       3.52332086       0.00105083       0.00530115       0.01079238
C        7.38140481       5.69833349       3.48624917      -0.00055931      -0.00178405       0.00203929
C        6.15383718       7.83107613       3.48932314       0.00276762      -0.00117327      -0.00801239
C        4.92318828       9.97143715       3.52967830      -0.00282789       0.00098604      -0.01032394
Ti       3.21829080       4.98917821       5.10615652       0.00391791       0.00408264       0.00614557
