49
Lattice="12.336457 0.0 0.0 -6.168228499999997 10.683685154694365 0.0 0.0 0.0 15.0" Properties=species:S:1:pos:R:3:forces:R:3 energy=-433.1617035570778 free_energy=-433.1617035570778 stress="-0.0038143856816810393 -0.0027384411480815447 -3.670119273733509e-06 -0.0027384411480815447 -0.004470425230809442 -4.2106750934946845e-06 -3.670119273733509e-06 -4.2106750934946845e-06 4.070882744660326e-07" pbc="T T T"
C       -0.01259388       0.00550700       3.95197841       0.00674546      -0.00478306       0.00379671
C       -1.27162410       2.12627481       4.04911233       0.00302789      -0.00343911       0.00148497
C       -2.49292677       4.27698693       3.98847182       0.00282768      -0.00512200       0.00068525
C       -3.69625793       6.41943502       3.87643413      -0.00097448      -0.00823929       0.00217655
C       -4.92891833       8.56298317       3.89340278      -0.00358550       0.00903989      -0.00291540
C        2.44922690       0.01086968       3.78978422      -0.00000362       0.00616393       0.00825829
C        1.18441856       2.10412660       3.88599208      -0.00164689      -0.00298151       0.00517195
C       -0.07130072       4.23801203       3.98881548       0.00034962       0.00681739      -0.00613741
C       -1.23516954       6.39687512       3.77618443       0.00866215      -0.00413243       0.00068374
C       -2.46270870       8.54959347       3.76919101       0.00154557      -0.00956606       0.00130799
C        4.91753090       0.01267069       3.67555529      -0.00749864       0.00073187      -0.00344062
C        3.65362362       2.12690434       3.40659951       0.01109968      -0.00406360       0.00296981
P        1.39973137       6.22869404       2.86492097      -0.00619499      -0.00072091      -0.00025270
C       -0.00416041       8.55170580       3.59835735       0.00402234      -0.00044443       0.01143066
C        7.37964085       0.01655442       3.77349099      -0.00389386       0.00824255      -0.00278712
C        6.14660238       2.15339104       3.62962926      -0.00408242       0.00593168       0.00058026
C        4.97628815       4.33342454       3.39125909      -0.00151174      -0.00613625      -0.00346623
C        3.75104858       6.46494434       3.71935145       0.00155455      -0.00080279      -0.00116971
C        2.46215795       8.58288589       3.70032782       0.00154175      -0.00019927      -0.00242384
C        9.84777782       0.00778250       3.94629424       0.00763186      -0.00331305      -0.00601768
C        8.60414084       2.14429693       3.92169621      -0.00418348      -0.00058575      -0.00186702
C        7.39100207       4.28413074       3.80690238      -0.00445413      -0.00400515      -0.00522618
C        6.19667066       6.44570380       3.78502735      -0.00415488       0.00827306      -0.00031790
C        4.93243992       8.56467329       3.88854677      -0.00456329       0.00574871      -0.00252364
C       -0.02963038       1.42773308       3.98031089       0.00141737      -0.00936579       0.00784543
C       -1.27374599       3.54078876       4.06731509       0.00662997      -0.00025997       0.00252309
C       -2.46819948       5.69826657       3.90052219       0.00645851      -0.00619752      -0.00154534
C       -3.69591479       7.84549925       3.85295651      -0.00426802      -0.00457790       0.00018720
C       -4.94014827       9.98787820       3.89372700       0.00431120       0.00600378       0.00290963
C        2.41715963       1.44579469       3.69276175       0.00186415       0.00387887       0.00086801
O        1.14696262       3.51015773       4.03642899      -0.01264062       0.00748867      -0.00007798
C       -0.02595469       5.61035337       3.73011856       0.01071078       0.00943044       0.00094680
C       -1.23160003       7.82442411       3.68552591       0.00910155      -0.00790307       0.00668965
C       -2.48124007       9.97970313       3.73742978      -0.00626979      -0.00378682       0.00286063
C        4.90677599       1.43816087       3.56188555       0.00433375       0.00207350       0.00494027
P        3.73753297       3.56180139       2.29562358      -0.00323353      -0.00514316      -0.00053351
C        1.24723092       7.89471194       3.45154835       0.00062226       0.00168062      -0.00040749
C       -0.01598405       9.98318891       3.68701701      -0.00538252       0.00520496      -0.00433222
C        7.37390026       1.43938401       3.79004327      -0.00881806       0.00882638       0.00070280
C        6.17723208       3.57006341       3.60855540      -0.00137325      -0.00094178      -0.00604829
C        4.96983316       5.76265029       3.63353152       0.00164428      -0.00252585      -0.00105874
C        3.69850684       7.86500784       3.77739138      -0.00083589      -0.00163911      -0.00191541
C        2.44786430       9.99492317       3.83281772       0.00209904       0.00221840      -0.00573763
C        9.84201386       1.42877072       3.99753216       0.00097973      -0.00152454      -0.00218920
C        8.61031715       3.56879643       3.92777519      -0.00232836      -0.00260955      -0.00561481
C        7.40900820       5.71475576       3.83308785      -0.00831414      -0.00249141       0.00443540
C        6.17629370       7.85848900       3.88189510      -0.00600509       0.01319879      -0.00804462
C        4.92152644       9.98063810       3.94959356       0.00766718       0.00026416       0.00044432
Ti       2.84101276       4.63818222       4.07199988      -0.00063113      -0.00371652       0.00215126
