49
Lattice="12.336457 0.0 0.0 -6.168228499999997 10.683685154694365 0.0 0.0 0.0 15.0" Properties=species:S:1:pos:R:3:forces:R:3 energy=-445.3254225207106 free_energy=-445.3254225207106 stress="-0.007666265510833571 -1.0303640493748314e-05 -1.5514098217910418e-06 -1.0303640493748314e-05 -0.0014131238210021238 -2.925790382107037e-06 -1.5514098217910418e-06 -2.925790382107037e-06 -1.2412241828869806e-06" pbc="T T T"
C       -0.00140615       0.00619211       3.70928190       0.00115881      -0.01058427       0.00206606
C       -1.24664861       2.12212837       3.67436363      -0.00296041      -0.00028580       0.00071529
C       -2.48025240       4.26716394       3.60685326      -0.00534968       0.00542399      -0.01008220
C       -3.70132179       6.41604302       3.59499620      -0.00316539       0.00642755      -0.00814309
C       -4.92840240       8.56403854       3.65275601       0.00580807      -0.00821402       0.00367812
C        2.46718831       0.02227513       3.73768559      -0.00325293      -0.00341658      -0.00429186
C        1.22502957       2.16160792       3.85225508      -0.00045594       0.01080025      -0.00181575
C       -0.04491800       4.26095552       3.81220809       0.00168122      -0.00325804       0.00345364
C       -1.26285744       6.42143808       3.67085584       0.00638243      -0.00598303       0.00064546
C       -2.47427793       8.56390840       3.64745657      -0.00297540      -0.00673981       0.00597897
C        4.93535482       0.00584212       3.70948825      -0.00061424      -0.00406262       0.01010277
C        3.70880240       2.16197400       3.85972095      -0.00010815       0.00035779      -0.01233857
C        1.16336126       6.40404206       3.96023258       0.00245857      -0.00052202       0.00060776
C       -0.00810719       8.53996328       3.73887041      -0.00459112       0.00076093      -0.00058613
C        7.40474210      -0.02065042       3.69867028       0.00504661       0.00829385      -0.00360603
C        6.18061958       2.12189733       3.68675088       0.00302809       0.00658229       0.00586353
C        4.97924787       4.26066220       3.83206352      -0.00663476       0.00663719      -0.01106283
C        3.77078688       6.40503517       3.97240416      -0.00877183      -0.00802027      -0.00354860
C        2.46686534       8.52360983       3.83777317       0.00141296      -0.00262689       0.00431000
C        9.86571998      -0.02085702       3.69591254      -0.00517158       0.01257061       0.00689065
C        8.63514160       2.11972341       3.61970217      -0.00049337      -0.00063726       0.00497135
C        7.41398521       4.26758403       3.61960453       0.00546478      -0.00445959      -0.01608832
C        6.19664731       6.42137164       3.68642758       0.00138846      -0.00349279       0.00712495
C        4.94226593       8.54022132       3.74683401       0.00254169       0.00041613       0.00560849
C       -0.00824791       1.42669590       3.73854530      -0.00038958      -0.00754775       0.00343194
C       -1.26238655       3.54512675       3.66920148      -0.00408251       0.00261093       0.00546214
C       -2.48033764       5.69865450       3.60729228      -0.00280180       0.00987841      -0.00912469
C       -3.70141731       7.84683000       3.61913489       0.00109856      -0.00418004       0.00826877
C       -4.93160642       9.98749701       3.69740774       0.00460916      -0.01514269       0.00871858
C        2.46715639       1.44292180       3.83784000      -0.00556372       0.00204177       0.00617125
C        1.16247014       3.56166342       3.96206220       0.01096439       0.01069396      -0.00833466
C       -0.04504155       5.70589225       3.81286020       0.00646128      -0.00706367      -0.00150085
C       -1.24669456       7.84451781       3.67513781      -0.00232765      -0.00538567       0.00488584
C       -2.47082381       9.98701759       3.69752491      -0.00388902      -0.00580213      -0.00532464
C        4.94203529       1.42633020       3.74662076       0.00398178       0.00107470       0.00299089
C        3.77007732       3.56215830       3.97082438      -0.00202000      -0.00266731       0.00608456
C        1.22513814       7.80442072       3.85250090      -0.00221898      -0.00270469      -0.00671076
C       -0.00154695       9.96056915       3.70755456       0.00336759       0.00417260       0.01578077
C        7.40816858       1.40264831       3.65395878       0.00191540       0.00515683      -0.00208618
C        6.19675356       3.54500018       3.68835549      -0.00100224       0.00606344       0.00054738
C        4.97908165       5.70570107       3.83029421      -0.00260511       0.00233485       0.00472685
C        3.70882825       7.80496183       3.85900072       0.00228104      -0.00914460      -0.00309385
C        2.46692660       9.94420112       3.73753747       0.00303245       0.00545835      -0.00399529
C        9.86230693       1.40239848       3.64618886      -0.00404569       0.00980780       0.01017736
C        8.63490800       3.55035273       3.59520923       0.00326990      -0.00639977      -0.00731919
C        7.41412152       5.69910308       3.61890378       0.00058478      -0.00193998      -0.01574142
C        6.18071621       7.84441185       3.68746001       0.00317190       0.00003581      -0.00819196
C        4.93573079       9.96064550       3.71084612      -0.00875295       0.00590750       0.00098205
Ti       2.46351041       4.98265964       4.70929028       0.00313416       0.00677379       0.00274145
