50
Lattice="12.336457 0.0 0.0 -6.168228499999997 10.683685154694365 0.0 0.0 0.0 15.0" Properties=species:S:1:pos:R:3:forces:R:3 energy=-451.5322493531565 free_energy=-451.5322493531565 stress="-0.004168474083163383 0.00044214241560454706 4.6107056645308855e-06 0.00044214241560454706 -0.0030653321239836836 1.728566909965148e-06 4.6107056645308855e-06 1.728566909965148e-06 -7.020842855937583e-06" pbc="T T T"
C       -0.01007128      -0.00199305       3.76308808      -0.00171263      -0.00602492      -0.00091580
C       -1.24325021       2.13636116       3.79193725      -0.00472638      -0.00652872      -0.00468853
C       -2.47351343       4.26738945       3.77070132       0.00634300       0.00027304      -0.00681702
C       -3.70738515       6.40339529       3.71921810      -0.00293641       0.01365812       0.00299717
C       -4.94798260       8.54098202       3.73436754      -0.00023932       0.00160960      -0.00481778
C        2.45666112      -0.00678744       3.67660548      -0.00532154      -0.00811535       0.00601923
C        1.22076838       2.12649591       3.79291339       0.00795998       0.00242955      -0.00441264
C       -0.00843184       4.28955570       3.94619835       0.00739484      -0.00177935      -0.01029500
C       -1.25080112       6.41495599       3.80513847       0.00644400      -0.00086696      -0.00126951
C       -2.48069148       8.54233780       3.67682107      -0.00193076       0.00138349       0.00266021
C        4.92760309      -0.00918609       3.60548086      -0.00651100      -0.00615968      -0.01296171
C        3.69917577       2.11489482       3.63921598      -0.00061204       0.00449877      -0.00586744
C        2.46738042       4.19667497       3.89678481      -0.00313373       0.00000230       0.01739721
N        1.12120925       6.47118232       4.11530260      -0.01222164       0.00831942      -0.00495072
C       -0.02043483       8.53757270       3.70532757      -0.00039697       0.00103167       0.00063328
C        7.39676687      -0.01496058       3.64055642       0.00807557       0.00573539      -0.01000218
C        6.16640832       2.12908506       3.58365589       0.00235879      -0.00211183       0.00086255
C        4.93330261       4.27886929       3.62980787      -0.00951050      -0.00204396       0.00064996
O        3.80839424       6.48520652       3.29328397       0.01155229       0.00729484       0.01385148
C        2.45247916       8.50891205       3.78031868       0.00095091      -0.00155402       0.00283319
C        9.85618580      -0.01112921       3.73712938       0.00189909       0.00522468      -0.00566364
C        8.62993065       2.12824816       3.67390803      -0.00287695       0.00314283       0.00160787
C        7.39817101       4.26456894       3.64984896       0.00432036      -0.00235303       0.00869277
C        6.17406974       6.40840379       3.74111369      -0.00603749      -0.00505283      -0.01378845
C        4.93110512       8.54691145       3.82207232       0.00146023      -0.00846275      -0.00961609
C       -0.01017863       1.42223244       3.78435253       0.00298085      -0.00385778       0.00867280
C       -1.24121286       3.56402169       3.83894694       0.00507305      -0.00492246      -0.00894919
C       -2.47498099       5.69167599       3.76095452      -0.00017121       0.00608259       0.00034440
C       -3.71193755       7.82800159       3.70769342      -0.00002688       0.01137768      -0.00236653
C       -4.94519672       9.96870862       3.72702132      -0.00408333      -0.00575506      -0.00380219
C        2.45695058       1.41541973       3.69457365       0.00572690      -0.00640615       0.01282033
C        1.22360926       3.55734960       3.91195206       0.00455034       0.00450151      -0.00079772
C       -0.02670514       5.72318936       3.96850289       0.00748211      -0.00233514       0.00461799
C       -1.25239854       7.83055710       3.71907582      -0.00109953       0.00249503       0.00977074
C       -2.47743269       9.96702626       3.64204090      -0.00876743      -0.00591972      -0.00667387
C        4.93140078       1.41253346       3.58860343      -0.00206003      -0.00366634      -0.00041809
C        3.69984485       3.54097540       3.72105989      -0.01274696       0.00744423      -0.00120903
C        1.18472719       7.82556427       3.85428737      -0.00155217      -0.00078324       0.00558803
C       -0.00858820       9.96233331       3.62991857       0.00230344       0.00308210      -0.00644707
C        7.39632571       1.41348264       3.61862176       0.00509260       0.00122294       0.00026550
C        6.17025790       3.55566419       3.59273165      -0.00090154      -0.00296660       0.01584725
C        4.96728747       5.69583708       3.70070749      -0.00416428      -0.00331203      -0.01273250
C        3.71153967       7.85048215       3.82179049       0.00188326      -0.00261678      -0.00803767
C        2.45781482       9.95191991       3.70429655       0.00624439       0.00526414      -0.00314896
C        9.86267812       1.41909106       3.73144840      -0.00873793       0.00248164      -0.00550958
C        8.63258338       3.55256552       3.69029190       0.00582146       0.00058662      -0.00152767
C        7.40203337       5.68675846       3.70518082      -0.00019191       0.00322284       0.00704660
C        6.16539836       7.83321672       3.77549877       0.00369014      -0.00279979       0.00300192
C        4.92416570       9.97300526       3.78532900      -0.00166513      -0.00417118       0.01234384
Ti       2.78324372       5.78514712       4.84498305      -0.00527191      -0.00179935       0.01916224
