50
Lattice="12.336457 0.0 0.0 -6.168228499999997 10.683685154694365 0.0 0.0 0.0 15.0" Properties=species:S:1:pos:R:3:forces:R:3 energy=-449.41368333248084 free_energy=-449.41368333248084 stress="-0.004732917457307985 0.003370136383884723 -7.98829244345518e-06 0.003370136383884723 -0.006481265036685588 -6.141137810314737e-06 -7.98829244345518e-06 -6.141137810314737e-06 4.065415747888711e-06" pbc="T T T"
C       -0.01739370      -0.00925437       3.82783577       0.01182416      -0.00073808      -0.00695358
C       -1.23318238       2.14072921       3.90776335      -0.00380884      -0.00549741       0.00128507
C       -2.46245491       4.26943140       3.89558534      -0.00667444      -0.00513401      -0.00964201
C       -3.71515596       6.39776626       3.79775343       0.00978752       0.00399318       0.00196799
C       -4.96344801       8.53034926       3.74088844      -0.00000926      -0.00381842      -0.00313776
C        2.44226276      -0.02163705       3.78811565       0.00308706       0.00736069       0.00311645
C        1.22606287       2.12390502       3.87597836      -0.00597094       0.01158168       0.00259755
C        0.01458781       4.29733587       3.97910613      -0.00960290      -0.00248325      -0.00878430
C       -1.25247938       6.41679138       3.89948234      -0.00149806      -0.00252409       0.00526378
C       -2.50054350       8.53602034       3.80240018      -0.00184294      -0.00140348      -0.00854909
C        4.91258188      -0.01696999       3.75170843      -0.00907941      -0.00351099       0.00570366
C        3.69466570       2.08420578       3.71382032      -0.00479001       0.00081866       0.00351751
C        2.49689748       4.18890997       3.85355525       0.00741602      -0.00599224       0.00091406
N        1.13978612       6.48858540       3.97799798      -0.00111841      -0.00189661      -0.00458936
C       -0.05276757       8.55084974       3.79449088       0.00418872      -0.00224823      -0.00304010
C        7.38104976      -0.00388672       3.77836389      -0.00333820       0.00736139       0.01415129
C        6.16823621       2.10836364       3.72042920       0.00136720       0.00546816       0.01482162
C        4.95221679       4.20662381       3.53701776       0.00316831      -0.00894998      -0.00871280
S        3.73657315       6.42673844       2.23593240      -0.01336648       0.00109236       0.00339393
C        2.40221273       8.55920853       3.67580821       0.00868982      -0.00261457       0.00051386
C        9.85466076      -0.00034242       3.80737344      -0.00709884       0.00701132       0.00047665
C        8.63479037       2.12891684       3.83057297       0.00688244       0.00398500       0.00175604
C        7.40962613       4.25239962       3.73103934       0.00676810       0.00208542       0.00557266
C        6.16998441       6.39460766       3.56948080       0.00101923      -0.00840258      -0.00654264
C        4.91836075       8.54129338       3.62959404      -0.00203004       0.00559620      -0.00398930
C       -0.00691984       1.41897084       3.88522502       0.00108869       0.00022468      -0.00391545
C       -1.22230305       3.57090622       3.94238796      -0.01056486      -0.00711760      -0.00479283
C       -2.47635134       5.69220343       3.87422015       0.00141936      -0.00399600       0.00001434
C       -3.73102692       7.81996183       3.78169485       0.00093055       0.00180260       0.00756722
C       -4.96102386       9.95397417       3.79046189       0.01298929      -0.00377036       0.00120256
C        2.45108593       1.39919289       3.79477268      -0.00859549       0.00931019      -0.00110914
C        1.24777290       3.56489962       3.92774392      -0.00203378       0.00956740      -0.00412448
C       -0.00782097       5.73443570       3.97385527      -0.00496139      -0.00210910       0.00239281
C       -1.27119796       7.83115024       3.83668936      -0.00015903      -0.00176796      -0.00682537
C       -2.49340483       9.95721558       3.77278293      -0.00601077      -0.00201760       0.01113698
C        4.92799414       1.39612253       3.71553848      -0.00501560      -0.00057318       0.00312547
C        3.70949068       3.50620104       3.67295263       0.00684413      -0.00535440       0.00192360
C        1.15836211       7.85128606       3.79654141       0.01026796       0.00507419       0.00194819
C       -0.02550920       9.96927497       3.76627697      -0.00510148      -0.00033114       0.00481957
C        7.39694773       1.41277579       3.78108740       0.00677412       0.01019653       0.00920280
C        6.18615506       3.52454070       3.65990367       0.00595641       0.00327765       0.00182782
C        4.98532341       5.62520595       3.31045866      -0.00478111      -0.01066040      -0.00373844
C        3.65042320       7.88286731       3.40491961       0.00430324      -0.01653909      -0.00116399
C        2.44179855       9.97891895       3.76437595      -0.00406613       0.00086852       0.00795311
C        9.86848936       1.42354694       3.86229155      -0.00103033       0.00234956      -0.00276059
C        8.64196949       3.55147900       3.82980836       0.00005662      -0.00218418      -0.00720943
C        7.39633164       5.68051683       3.71428341       0.01050660       0.00229545       0.00392479
C        6.13621322       7.81375068       3.62951253      -0.00577813      -0.00225227      -0.00809487
C        4.91768781       9.96252092       3.78061072      -0.00071717       0.01114456      -0.01013824
Ti       3.04066162       6.06184675       4.32016999       0.00370850       0.00142181      -0.00427762
