50
Lattice="12.336457 0.0 0.0 -6.168228499999997 10.683685154694365 0.0 0.0 0.0 15.0" Properties=species:S:1:pos:R:3:forces:R:3 energy=-450.20010857267033 free_energy=-450.20010857267033 stress="-0.005826507883753444 0.00198160179707214 -7.996093544443343e-06 0.00198160179707214 -0.00822463088695988 -5.469647838123499e-06 -7.996093544443343e-06 -5.469647838123499e-06 3.179642296828821e-06" pbc="T T T"
C       -0.01316147      -0.00894254       3.80977979      -0.00914650       0.00933998      -0.00750426
C       -1.23946673       2.13288596       3.87592408       0.00253527       0.00002250      -0.00082851
C       -2.47241679       4.26691911       3.87263506       0.00561790       0.00280179       0.00675281
C       -3.71425955       6.39982183       3.81215364       0.00073471      -0.01118456      -0.01182072
C       -4.95143442       8.53512303       3.75317337      -0.00013065       0.00348086       0.00385549
C        2.44807099      -0.02029210       3.82443878       0.00161247       0.00166852       0.00518393
C        1.22424075       2.11911436       3.85647797       0.00103296      -0.00156014      -0.00377876
C       -0.00533239       4.26807431       3.90008980      -0.00688764      -0.00080770       0.00521205
C       -1.25250143       6.40695990       3.86539166       0.00592092       0.00689192      -0.00999002
C       -2.49307124       8.53678242       3.83484962       0.00592031       0.00364904       0.00200046
C        4.91484671      -0.01364938       3.81465172       0.00692411       0.00995902      -0.00689892
C        3.69316716       2.09109013       3.75761747      -0.00496618      -0.00539085       0.00813675
C        2.48106502       4.19287950       3.79810039      -0.00488109      -0.00016299      -0.00624797
C        1.17205479       6.45880174       3.78995788       0.00250553      -0.00733525       0.01421169
C       -0.04184374       8.55978830       3.77862503      -0.00370732       0.00099588      -0.00123968
C        7.38245146       0.00476694       3.79614910      -0.00299845      -0.00963541      -0.00882435
C        6.16389462       2.11494360       3.77852987      -0.00440392      -0.00085956       0.00406421
C        4.94591799       4.20466762       3.58614927       0.01079207      -0.00602188       0.00297447
P        3.69776881       6.41038698       2.34123202      -0.00503650      -0.00312220       0.00602187
C        2.41488194       8.58975302       3.60121189      -0.00468514       0.00560940       0.00849440
C        9.85798408       0.00530010       3.77314324       0.01340458      -0.00440122       0.00005405
C        8.63046902       2.13195310       3.83997191      -0.00737979      -0.00030284      -0.00307067
C        7.40195111       4.25826624       3.75791756       0.00408066       0.01184897       0.00430764
C        6.17627232       6.40319304       3.58258620      -0.01081867       0.00145004      -0.00247023
C        4.93370737       8.55564417       3.58722084       0.00190689      -0.00985889      -0.00984996
C       -0.00806014       1.41514417       3.86033575       0.00062877       0.00723490      -0.00266780
C       -1.23766591       3.55693547       3.89668252      -0.00130112      -0.00300565       0.00195729
C       -2.47850817       5.69196671       3.86335129       0.01007055       0.00064706      -0.00445554
C       -3.72255233       7.82391784       3.80781037       0.00339594      -0.00673482      -0.00502104
C       -4.95232302       9.95510328       3.80283269      -0.00817960       0.01164441      -0.00440713
C        2.45344378       1.39982519       3.81725547      -0.00220925      -0.00300550       0.01455778
C        1.23431451       3.54990914       3.86833849      -0.00586200      -0.00371622      -0.00428594
C       -0.00800778       5.70045244       3.86659619      -0.00206959       0.00110078       0.01148462
C       -1.26059890       7.83136020       3.83541794       0.00292655       0.00351308      -0.00438112
C       -2.48845882       9.95685571       3.82642050       0.00967253       0.00740791      -0.00184246
C        4.92587094       1.39976983       3.78246004      -0.00261466       0.00667499       0.00316127
C        3.70701371       3.50725952       3.69569768       0.00100331      -0.00652333      -0.00407902
C        1.19138242       7.86484947       3.70743035      -0.00628377      -0.00315417      -0.00250099
C       -0.02374028       9.97304752       3.79855351      -0.00138404      -0.00167819       0.00135509
C        7.39364542       1.41830995       3.81780280      -0.01084651      -0.00923963       0.00008024
C        6.17484149       3.53095863       3.70485527       0.01224456       0.00167628       0.01221526
C        4.95861095       5.64018288       3.40392875      -0.00608166       0.00190261      -0.00394164
C        3.66352231       7.88440072       3.40654895      -0.00174119      -0.00204434       0.00644827
C        2.44624790       9.99000497       3.72832280       0.00699903       0.00371442      -0.01232916
C        9.86380994       1.42230480       3.84413469       0.00240101      -0.00018770      -0.00596431
C        8.63200677       3.55460932       3.83541253       0.00240605       0.00755103       0.00028346
C        7.39427536       5.68808816       3.73137955      -0.01063456       0.00405202      -0.00543413
C        6.14927853       7.82242969       3.62463327      -0.00189728      -0.00566894       0.00112057
C        4.92405273       9.96761089       3.73730996       0.00437976      -0.01150572       0.00386747
Ti       3.03062141       6.02517807       4.45916975       0.00703061       0.00227029       0.00603319
