49
Lattice="12.336457 0.0 0.0 -6.168228499999997 10.683685154694365 0.0 0.0 0.0 15.0" Properties=species:S:1:pos:R:3:forces:R:3 energy=-437.9746823791813 free_energy=-437.9746823791813 stress="-0.0012128103060896171 -0.002885243817436184 -2.6786583456485836e-06 -0.002885243817436184 0.0012719354797630692 -3.800712706724633e-06 -2.6786583456485836e-06 -3.800712706724633e-06 3.326394639422995e-06" pbc="T T T"
C       -0.00100575       0.00691678       3.80143941      -0.00431849      -0.00493567       0.01133769
C       -1.25312293       2.12426464       3.80990747      -0.00926988       0.00629617       0.00435839
C       -2.47641072       4.26097098       3.83728733       0.00093063       0.01583026       0.00113184
C       -3.68828535       6.40539891       3.85413709       0.00479390      -0.00260688      -0.00679457
C       -4.92356643       8.55517160       3.84700427      -0.00813747      -0.00779006      -0.00305819
C        2.46556520       0.00599661       3.72431498      -0.00559328       0.00220432       0.00673194
C        1.20054688       2.15610136       3.72912420       0.01308427      -0.00518903       0.00258324
C       -0.01301326       4.24243072       3.88271874       0.00671512       0.00059971       0.00205656
C       -1.22107839       6.39606896       3.85811072       0.00428548       0.00087651      -0.00535928
C       -2.45520799       8.54075299       3.79723290      -0.00741651      -0.00188482       0.00784982
C        4.93677728      -0.01029211       3.66145051      -0.00884260      -0.00143176      -0.00193112
C        3.67199926       2.09524792       3.33780501       0.00698729       0.01865814      -0.00028732
N        1.21026342       6.37700792       3.89637032      -0.00647002       0.01111278       0.00859046
C        0.01646381       8.50942015       3.79480399       0.00420120      -0.00461818      -0.00708704
C        7.39859882      -0.02057650       3.73928866       0.00834194       0.00253974      -0.01125203
C        6.15397370       2.14333633       3.59878480      -0.00497047      -0.00879746      -0.00565979
C        4.92340411       4.35500409       3.56080323      -0.00228053      -0.00822173       0.00296142
O        3.78645180       6.46830019       3.73877445      -0.00906299      -0.00567633       0.00198157
C        2.47627583       8.48725108       3.82882785       0.00665400      -0.00603310      -0.00971520
C        9.85502766      -0.02101248       3.80337727       0.00051018      -0.00662025      -0.00341059
C        8.61669743       2.12706437       3.76691864       0.00187562      -0.00070285      -0.00216662
C        7.38668165       4.27210289       3.77247691       0.01554712      -0.00689997       0.00456282
C        6.19894800       6.43868254       3.84747438      -0.00141126       0.00885758      -0.00332362
C        4.94775018       8.55196341       3.84878308      -0.01486821       0.00366212       0.00010405
C       -0.01587370       1.43094962       3.78082589      -0.00174193       0.00024626       0.00430274
C       -1.24777186       3.54227639       3.83929831      -0.00582991       0.01230595       0.01005285
C       -2.45831414       5.68516599       3.85326109       0.00639361       0.00872846       0.00155644
C       -3.68744279       7.83294405       3.84124022      -0.00388079      -0.00723693       0.00057356
C       -4.92840091       9.98292612       3.80268647      -0.00414405      -0.00901294       0.00787485
C        2.44521900       1.43708577       3.60275903       0.01425859       0.00262031       0.00239873
N        1.16772840       3.52803746       3.84743972       0.01338929      -0.00360678       0.00159202
C        0.00572528       5.68192164       3.89836284       0.00184476       0.00242865      -0.00711911
C       -1.22343653       7.81720564       3.81537486      -0.00120130      -0.00088994       0.00817907
C       -2.46535570       9.96924819       3.72352800      -0.01118246       0.00145022       0.01086984
C        4.92445186       1.41606928       3.52172768      -0.00728562      -0.00084891      -0.00076330
P        3.63237388       3.67854368       2.50286400      -0.00690711      -0.00152211       0.00148616
C        1.23223451       7.76502098       3.83978267       0.00654220       0.00153584      -0.00525629
C        0.00397340       9.94693011       3.73155226       0.00277110       0.00011726      -0.00619054
C        7.38454765       1.41623230       3.70378572      -0.00038681       0.00213328      -0.00135675
C        6.15985604       3.56912878       3.64328052       0.01026887      -0.01044566       0.00242326
C        4.99682116       5.75039805       3.74258859       0.00116043      -0.00070529      -0.01377644
C        3.73360848       7.86854763       3.83842945      -0.00372680      -0.00705011      -0.00550306
C        2.46082673       9.93665294       3.79340620       0.00802497      -0.00715245      -0.00001866
C        9.85101250       1.41148611       3.79536613      -0.00557141      -0.00420593       0.00693008
C        8.62046496       3.55316991       3.79457726       0.01383922      -0.00061505       0.00355869
C        7.41658852       5.69704626       3.83542233       0.00415530       0.00029270      -0.00085374
C        6.19239655       7.85345565       3.86397725      -0.01673101       0.00969442      -0.00060966
C        4.93149297       9.97518645       3.82570366      -0.00641035      -0.00249106      -0.00315632
Ti       2.53093285       4.96534678       4.18026322       0.00106616       0.01500056      -0.01139884
