49
Lattice="12.336457 0.0 0.0 -6.168228499999997 10.683685154694365 0.0 0.0 0.0 15.0" Properties=species:S:1:pos:R:3:forces:R:3 energy=-431.47633734513397 free_energy=-431.47633734513397 stress="-0.0005217080462625287 -0.00035922046089081276 -3.251510303548286e-06 -0.00035922046089081276 -0.0014336676144957208 -6.68066771948395e-06 -3.251510303548286e-06 -6.68066771948395e-06 -9.447779991652366e-07" pbc="T T T"
C        0.00723527      -0.01294049       3.79812724      -0.00065618      -0.00550143      -0.00334481
C       -1.23351788       2.12362620       3.64346873      -0.00561133       0.00399843      -0.00039816
C       -2.47772062       4.26747500       3.77211636       0.00550465      -0.00250001      -0.00117717
C       -3.70459236       6.40646237       3.90344682       0.00271148       0.00186424      -0.01896277
C       -4.92824003       8.53900539       3.91604010       0.00087251      -0.00327608       0.00371345
C        2.47855999      -0.00060972       3.85387486      -0.00369924      -0.00383871       0.00931984
C        1.24985768       2.05947931       3.39540066       0.00678269      -0.00276439      -0.00785058
C       -0.08967833       4.28025903       3.28945619       0.00217025       0.00291657      -0.00228458
C       -1.26148272       6.42523938       3.62802218       0.00155736      -0.00523128      -0.00033791
C       -2.45521622       8.54129675       3.83808100      -0.00491363       0.00643006      -0.00127683
C        4.93621118       0.00311785       3.88947012       0.00039290       0.00720659       0.00002472
C        3.71920449       2.11642121       3.88577481       0.00370671      -0.00000152       0.00457704
S        1.25964991       6.44062631       2.44924139       0.00126495      -0.00159777      -0.00487404
C        0.00747202       8.55397541       3.65761030      -0.00237122      -0.00095332      -0.00301507
C        7.41094659      -0.00282443       3.87412951       0.00658152       0.00757992       0.00515238
C        6.17459503       2.13845625       3.97298737      -0.00365277      -0.00288079       0.00173107
C        4.95647773       4.28340729       4.01309448       0.00215839      -0.00166687      -0.00843085
N        3.73265042       6.42821601       3.88731857      -0.00256667      -0.00123225       0.00407933
C        2.48517888       8.53234474       3.72338747       0.00347283      -0.00270249      -0.00193481
C        9.87735666      -0.00803413       3.84898301       0.00532968      -0.00144367       0.00033040
C        8.64069580       2.13653594       3.88508293      -0.00664123      -0.00194840      -0.00279448
C        7.39386379       4.27466354       3.96503991      -0.00224452       0.00090878       0.00044087
C        6.16657521       6.40816540       3.97172305      -0.00822547       0.01165472      -0.00221589
C        4.94020967       8.52613462       3.88538371      -0.00271513      -0.00026675       0.00247261
C        0.01066596       1.40963224       3.61231605      -0.00140102       0.00055622      -0.00251982
C       -1.26613241       3.53658195       3.58051470       0.00378437       0.00327164      -0.00150002
C       -2.47690668       5.69604072       3.78875826       0.00532667      -0.00312513       0.00117835
C       -3.69469865       7.82859135       3.89823789       0.00063902       0.00004357      -0.00725895
C       -4.92405940       9.96749274       3.85839992      -0.00205291      -0.00887787       0.00685841
C        2.48785699       1.44334950       3.74544348       0.00675970      -0.00303607      -0.00117126
S        1.28325737       3.54768299       2.43917293      -0.01208722      -0.00002467       0.00523805
C       -0.08053548       5.68142102       3.33758036       0.00201943      -0.00767257       0.00611192
C       -1.22995227       7.83815849       3.69115503      -0.00636316      -0.00060272      -0.00210731
C       -2.46010470       9.97449825       3.87546240      -0.00174326       0.00714326       0.01112936
C        4.93327251       1.43753696       3.94127199       0.00069788       0.00340748      -0.00043439
O        3.74433212       3.53199992       4.04605289       0.00634308      -0.00074132      -0.00259170
C        1.25511496       7.90903698       3.43216051       0.00406927      -0.01020298      -0.00072593
C        0.00659980       9.97440702       3.83187226       0.00400594       0.00655976       0.00339278
C        7.40056835       1.42949422       3.92940964      -0.00473682       0.00284315       0.00608365
C        6.16053729       3.56047485       4.00097492      -0.00223515      -0.00659277       0.00128602
C        4.91877440       5.69615121       3.97814726      -0.00341860      -0.00193142      -0.00020976
C        3.71846887       7.80052258       3.81841490       0.00130753      -0.00325284       0.00111859
C        2.47785172       9.96975828       3.84602998       0.00710265       0.00267076       0.00255935
C        9.88001055       1.42123790       3.80764649      -0.00576417      -0.00025993       0.00060684
C        8.62904755       3.55953518       3.89121828       0.00150567      -0.00208377      -0.00313333
C        7.39082425       5.69378718       3.96236153      -0.00554200       0.00905140      -0.00554839
C        6.17366677       7.82298867       3.93344674      -0.00288472       0.01022079       0.00409501
C        4.93862775       9.95651976       3.84894297       0.00121355      -0.00406902       0.00622822
Ti       2.31401351       5.03114994       3.91246743       0.00424574       0.00195148      -0.00162946
