50
Lattice="12.336457 0.0 0.0 -6.168228499999997 10.683685154694365 0.0 0.0 0.0 15.0" Properties=species:S:1:pos:R:3:forces:R:3 energy=-448.7965635369972 free_energy=-448.7965635369972 stress="-0.0015275470628717924 -1.4499282045268525e-05 2.301792621118524e-06 -1.4499282045268525e-05 -0.0015911177653538087 4.359200685321116e-06 2.301792621118524e-06 4.359200685321116e-06 -1.2744702725065318e-06" pbc="T T T"
C       -0.00918346      -0.00120415       3.68387935      -0.00569328       0.00396547      -0.00011155
C       -1.23923460       2.14202344       3.70071603       0.00471364      -0.00245412       0.00802471
C       -2.46632054       4.26817228       3.74367971       0.00887977      -0.00364638      -0.00215629
C       -3.70776536       6.40215001       3.75183974      -0.00172734      -0.00396866       0.00522941
C       -4.94523328       8.53933565       3.71802233      -0.00503064       0.00302705       0.00478276
C        2.45934408      -0.00637618       3.67619260      -0.01093451       0.00424455       0.00421709
C        1.22884419       2.13240618       3.76121726      -0.00195459      -0.00137823      -0.00526702
C        0.02300416       4.29360805       3.88234052       0.00238731      -0.00326788       0.01112540
C       -1.24025749       6.40662244       3.79707901      -0.00442353      -0.00456244      -0.00106723
C       -2.46914078       8.53687708       3.69126049       0.00262979       0.00322107       0.01537722
C        4.92731945      -0.00338630       3.63784231       0.00573258       0.00077026       0.00301383
C        3.68660449       2.12643833       3.73637256       0.00151299      -0.00451083      -0.01028881
N        2.45646393       4.16631033       4.07789716      -0.00569099       0.00439690      -0.00047685
O        1.13845954       6.45928430       4.04791594       0.00619395      -0.00577174      -0.00245732
C       -0.01125132       8.54067329       3.70238040       0.00291168       0.00491525       0.00277400
C        7.39662152      -0.00910678       3.61841406       0.00952411      -0.00641169      -0.00702938
C        6.15715094       2.13732325       3.66152937      -0.00206242      -0.00453854      -0.00927125
C        4.89893687       4.27429480       3.80561605      -0.00037214       0.00107047       0.00654428
O        3.81115184       6.45583186       3.27283396      -0.00416964       0.01629999       0.00334769
C        2.44918480       8.50484196       3.68663348       0.00285334      -0.00195397       0.00577995
C        9.85427080      -0.00668243       3.64169827       0.00530288      -0.00369011      -0.01278016
C        8.62699610       2.13369957       3.65315259      -0.00408054       0.00031468       0.00727682
C        7.38818423       4.26594667       3.73236559      -0.00468026       0.00115389      -0.01183884
C        6.16827098       6.40900142       3.82182589       0.00615808       0.00932976      -0.00267463
C        4.92962191       8.54703762       3.71940952      -0.00681773       0.00322163       0.00199134
C       -0.00897177       1.42497587       3.70337672       0.00095195       0.00029733       0.01094285
C       -1.22949510       3.56600244       3.76274559       0.00837116      -0.00517334       0.00974418
C       -2.47512059       5.68773944       3.76266186      -0.00226876      -0.00502424      -0.00615243
C       -3.70835467       7.82642108       3.72312560      -0.00181260      -0.00105959      -0.00595591
C       -4.94429397       9.96698439       3.68812673      -0.01152480       0.00388540      -0.00250641
C        2.45900698       1.41433112       3.71787473      -0.00222610       0.00198690       0.00085315
C        1.24601524       3.53661998       3.90487174      -0.00550283      -0.00557391       0.00849519
C       -0.05283674       5.69273955       3.92751372      -0.00501781      -0.00396300       0.00458238
C       -1.24680572       7.83125492       3.72761162       0.00405625      -0.00185241       0.00648198
C       -2.47343208       9.96594961       3.66169967      -0.00296421       0.00779317      -0.00674672
C        4.92538617       1.42263075       3.66021776       0.00374864      -0.00443699       0.00892331
C        3.67353407       3.52898675       3.88404637      -0.00307104      -0.00275548      -0.00747243
C        1.19565629       7.86468630       3.81508258       0.00117639       0.00753540      -0.00403900
C       -0.00673251       9.97113700       3.63490383       0.00848237       0.00126021      -0.00368019
C        7.39209152       1.42244226       3.63227628      -0.00388209      -0.00467087      -0.00861150
C        6.15168926       3.55923480       3.71924418      -0.00353145      -0.00324202      -0.01335708
C        4.94831705       5.69493089       3.83391222       0.01467922       0.00379975       0.00183140
C        3.71905116       7.84973801       3.69498460      -0.00289457       0.00012141      -0.01251556
C        2.45640129       9.96145500       3.62592407       0.00885887      -0.00730571       0.00032449
C        9.86112667       1.42444705       3.65199660       0.00015332      -0.00151932       0.01311207
C        8.62749819       3.55629383       3.70288226       0.00223572       0.00352790      -0.00567568
C        7.39597511       5.68790856       3.78023542      -0.00095985      -0.00017087       0.00292573
C        6.16725877       7.83061100       3.75699270      -0.00491609       0.00861372      -0.00103347
C        4.92378189       9.97450373       3.68263127       0.00062852      -0.00094855      -0.00537781
Ti       2.80948968       5.79755894       4.83360696      -0.00393271      -0.00090127       0.00084227
