49
Lattice="12.336457 0.0 0.0 -6.168228499999997 10.683685154694365 0.0 0.0 0.0 15.0" Properties=species:S:1:pos:R:3:forces:R:3 energy=-432.1327252208626 free_energy=-432.1327252208626 stress="0.002266126035611098 -0.0036595075832821376 7.951552540099477e-07 -0.0036595075832821376 0.0028463207982858028 6.135842000834242e-06 7.951552540099477e-07 6.135842000834242e-06 9.317050871762968e-07" pbc="T T T"
C        0.01461762      -0.01966245       3.96453014       0.00017741       0.00118131      -0.00546560
C       -1.25739195       2.08889238       4.05785647       0.00064806      -0.00182010       0.00159136
C       -2.47557538       4.24299749       4.09909530       0.00683626      -0.00754990       0.00819863
C       -3.66524492       6.38941008       4.02170330      -0.00487320       0.00892597      -0.00972011
C       -4.89785172       8.53485254       3.99149773       0.00014570       0.00760672      -0.00318180
C        2.47737781      -0.00310527       3.82085058       0.00667799      -0.00406731       0.00076111
C        1.19649074       2.10325615       3.82389012      -0.01331032       0.00167928       0.00941354
C       -0.06156647       4.18620797       4.12575364       0.00161975      -0.00913269      -0.00169899
C       -1.17939851       6.36090578       3.98370642       0.00899457       0.00581208      -0.00491825
C       -2.42550127       8.51677691       3.85507897      -0.00331780      -0.01127308       0.00438547
C        4.94110286      -0.02649602       3.64222180      -0.00085048      -0.00567220       0.00452749
C        3.67257975       2.08210370       3.35881929      -0.00279180       0.00582945       0.00735786
S        1.32697642       6.72839290       1.70288783      -0.00007446       0.00380310      -0.00998305
C        0.03037064       8.49362116       3.54315517       0.00282465       0.00507587       0.01195395
C        7.40479683      -0.02649900       3.68007019      -0.00229350      -0.00457533       0.00232092
C        6.15292039       2.13574496       3.60844769       0.01686880      -0.00470632       0.00054992
C        5.00815165       4.35729898       3.47537215      -0.00729883      -0.00380541       0.00169293
N        3.76897521       6.43220821       3.74776113       0.00603129      -0.00459160      -0.00178988
C        2.50191656       8.50806341       3.59569121      -0.01019654       0.00105147       0.00119202
C        9.86721514      -0.03912516       3.89583985      -0.00652814       0.01651582      -0.00533961
C        8.61758983       2.11041154       3.90926571      -0.00087248      -0.00475804      -0.00944426
C        7.40477861       4.26245411       3.90270057       0.00018403       0.00554462      -0.00357652
C        6.20233126       6.41884430       3.95675749       0.00208230       0.00267781      -0.00407249
C        4.96447426       8.52311518       3.92248695      -0.00135061      -0.00305680       0.00514620
C       -0.00020186       1.41062506       3.97141903      -0.00684012      -0.00131027       0.00050012
C       -1.26905749       3.49244432       4.16679025       0.01029590      -0.00876588       0.00503108
C       -2.43576310       5.66624664       4.05822281       0.00228228       0.00377866      -0.00677136
C       -3.65935702       7.81579807       3.97425600      -0.00858048       0.00502351      -0.00172065
C       -4.91281185       9.96430973       3.94388035       0.00512683       0.00443388      -0.00318230
C        2.44458123       1.43461130       3.67944528      -0.00587587       0.00265883       0.00106737
O        1.14950803       3.50530899       3.89837645      -0.01404362      -0.00220485       0.00295826
C        0.02238292       5.58501905       4.06793747       0.00166816      -0.00853264       0.00953552
C       -1.18350351       7.78638786       3.78025286       0.00598922       0.00636370       0.00286960
C       -2.45095585       9.95058183       3.76484130       0.00105907      -0.01762616      -0.00039662
C        4.91778763       1.41610321       3.52348846       0.00824908       0.00028924       0.00529228
S        3.63013572       3.69427969       2.66881847       0.00752635       0.00443141       0.01221566
C        1.29397929       7.82346818       3.19958212      -0.00701151      -0.00901843      -0.00734562
C        0.01391195       9.92976306       3.61546895      -0.00152678      -0.00381988       0.00485349
C        7.38181212       1.41038244       3.74052022       0.01154710      -0.01302694      -0.00930957
C        6.17241301       3.56514035       3.67135125       0.00242301       0.00187774      -0.00520957
C        4.96760207       5.73932894       3.76248558       0.00561390      -0.00122176      -0.00272583
C        3.74400201       7.80344142       3.76908168      -0.00765648      -0.00445484       0.00309720
C        2.47329940       9.93715233       3.74340775      -0.00501165       0.00899343      -0.00662864
C        9.85587858       1.38595133       3.97061956      -0.00376606       0.01101082       0.00157508
C        8.62462376       3.53560133       3.98720251      -0.00076432      -0.00522772      -0.00129718
C        7.42505165       5.68628591       3.98302432      -0.00085599       0.00766164      -0.00212487
C        6.20166909       7.83049633       3.99172701       0.00551075       0.00261123      -0.00548535
C        4.94511937       9.94506364       3.94292886      -0.00564193       0.00290185      -0.00027806
Ti       1.93515081       5.50408827       3.39415131       0.00095052       0.01247874       0.00357911
