50
Lattice="12.336457 0.0 0.0 -6.168228499999997 10.683685154694365 0.0 0.0 0.0 15.0" Properties=species:S:1:pos:R:3:forces:R:3 energy=-445.619977838598 free_energy=-445.619977838598 stress="-0.00030516477004922184 -0.0005624657277873378 1.0101535918949684e-05 -0.0005624657277873378 -0.0052757479312546965 -5.1493228369617265e-06 1.0101535918949684e-05 -5.1493228369617265e-06 4.305424517988183e-06" pbc="T T T"
C       -0.00809254      -0.01262109       3.92590609       0.00253979      -0.00882093       0.00065657
C       -1.24046512       2.13062342       4.00410650      -0.00354969       0.00980421       0.00368049
C       -2.47797185       4.26197605       3.92040256      -0.00529343       0.00196193      -0.00006647
C       -3.71952125       6.39166650       3.82071595       0.00273986       0.00642707       0.00633511
C       -4.94462327       8.52800053       3.80921148       0.00302714      -0.01030397      -0.00013663
C        2.45810785      -0.03531655       3.97749884      -0.00708526      -0.00377845      -0.00221116
C        1.23243345       2.10673485       4.03797406      -0.00947432      -0.00677227      -0.00890363
C        0.01126593       4.24748367       3.84505975       0.00213976      -0.00072008       0.00066154
C       -1.24335317       6.38416039       3.65485567       0.00253582      -0.00310244       0.00506339
C       -2.47082859       8.52009214       3.80423109       0.00094360       0.00056120       0.00032457
C        4.92482746      -0.02367997       3.91348778      -0.00631588      -0.01215736      -0.00342414
C        3.67830954       2.09046384       4.01710581       0.00850201      -0.00111715      -0.01020725
N        2.46048928       4.16798744       3.99805589      -0.00052331       0.01091485       0.00612775
P        1.22455469       6.35576660       2.43201437       0.00419653       0.00935385      -0.00175393
C       -0.02292753       8.55607150       3.57210683      -0.00297238       0.00706635      -0.00576115
C        7.38476010       0.01103077       3.81895536      -0.00063753      -0.00048654      -0.00009973
C        6.14545311       2.12578070       3.96922843       0.00143191       0.00597631       0.00399597
C        4.88688345       4.22575528       3.81695797       0.00526902       0.00357888       0.00593043
P        3.80667344       6.45116004       2.09511471       0.00827629      -0.01190559       0.00818402
C        2.45040340       8.64590113       3.34366846      -0.00235409      -0.00585484      -0.01831841
C        9.86226972       0.01648733       3.81836487      -0.00309593       0.01354257      -0.00232515
C        8.61935517       2.13640834       3.96849552      -0.00265517      -0.00334033      -0.00011307
C        7.37445956       4.26293676       3.90071268       0.00816651      -0.00194149       0.00298982
C        6.14546104       6.40143188       3.65555237       0.00324846      -0.00314584       0.00562056
C        4.94861916       8.57719386       3.53564773      -0.00138987       0.01398640      -0.00063627
C       -0.00739617       1.40886493       4.00977741      -0.00867392      -0.00865293       0.00098891
C       -1.23755358       3.54893583       3.96101340      -0.00654407       0.00707733       0.00010437
C       -2.48017059       5.68217197       3.81918280      -0.00223517       0.00350346       0.00758648
C       -3.71298189       7.81472544       3.81653892       0.00597965       0.00016399      -0.00320197
C       -4.94607046       9.94594658       3.91224368       0.00031714      -0.01454469      -0.00213261
C        2.45513394       1.38403575       4.03836341      -0.00150467      -0.00088939      -0.01055671
C        1.25126724       3.52122946       3.97899531      -0.00931226      -0.00442511       0.00175163
C       -0.03085471       5.62963698       3.51120157       0.01176462      -0.00085641      -0.00194821
C       -1.23890090       7.81666152       3.65352452      -0.00227158       0.00411487       0.00477435
C       -2.47397972       9.94115085       3.90496022      -0.00879228      -0.00412655       0.00296854
C        4.91877715       1.39860687       3.98231323       0.00615728      -0.01041298       0.00444998
C        3.66126907       3.49996557       3.96082665       0.01641590       0.00249830       0.00396511
C        1.22700288       7.91949114       3.28029633       0.00037981      -0.00750939       0.00975870
C       -0.01370145       9.96547224       3.78288726      -0.00322524      -0.00019275      -0.00809352
C        7.38256603       1.42388729       3.94355943      -0.00308080       0.00044279      -0.00502582
C        6.13539525       3.54550730       3.91715900       0.00896670       0.00679429       0.00521796
C        4.89256316       5.64336961       3.48525732      -0.01218321       0.00144490      -0.00495684
C        3.70789099       7.96049510       3.13836615      -0.00302198      -0.00934894       0.00124403
C        2.45560291      10.01674227       3.67187291       0.00085661       0.00515138      -0.01172597
C        9.85900747       1.42608100       3.95710790      -0.00083992       0.01119813      -0.00207880
C        8.61498062       3.55841350       3.95408706       0.00045128      -0.00718923       0.00585722
C        7.37024213       5.68904347       3.81499796       0.00515050       0.00053709       0.00696381
C        6.15157521       7.82276399       3.65381089       0.00049545       0.00246075       0.00166281
C        4.93190045       9.97716228       3.77796244      -0.00331812       0.01262743      -0.00161087
Ti       2.95817113       6.11084963       4.12892276       0.00039841       0.00040733      -0.00157581
