49
Lattice="12.336457 0.0 0.0 -6.168228499999997 10.683685154694365 0.0 0.0 0.0 15.0" Properties=species:S:1:pos:R:3:forces:R:3 energy=-439.8147319039374 free_energy=-439.8147319039374 stress="-0.0036836067366724855 -0.002682637641614833 -8.982341217366126e-07 -0.002682637641614833 0.0007990522311300803 -4.68840534309843e-06 -8.982341217366126e-07 -4.68840534309843e-06 1.6404986273325608e-06" pbc="T T T"
C       -0.00318190       0.00336011       3.80869775      -0.00931359      -0.00586652       0.01230451
C       -1.25526876       2.12331084       3.82501936      -0.00625092      -0.00058995       0.00118773
C       -2.47494054       4.26194937       3.84622374       0.00434437       0.00698918      -0.00266232
C       -3.68418542       6.41078327       3.84555257       0.01197440       0.00185062       0.00421902
C       -4.91891344       8.56077161       3.84134216       0.00103593      -0.00128354      -0.00588924
C        2.46458425       0.00987532       3.74616468      -0.00037201      -0.00242526       0.00332091
C        1.19794536       2.15959663       3.75413987       0.00225274      -0.00570623       0.00569411
C       -0.02328276       4.24550054       3.90458841       0.00359155       0.00428303       0.01220098
C       -1.22867198       6.40011714       3.86814256       0.00305947       0.00924600      -0.00401571
C       -2.45721542       8.54436477       3.81028641      -0.00890717      -0.00413324       0.00169311
C        4.93285579      -0.00887592       3.67258376      -0.00848445       0.00401166       0.00349079
C        3.67051196       2.08298489       3.34622523      -0.00023417       0.01174227       0.00392006
N        1.18826194       6.39011350       3.87616675      -0.00132757      -0.00081686       0.01145327
C        0.00727654       8.51492620       3.80197899      -0.00146605      -0.00496611      -0.00681480
C        7.39577010      -0.02424104       3.74226920       0.00584974       0.00646191      -0.01084984
C        6.15261190       2.13947622       3.58331530      -0.00126582       0.00035734      -0.00185794
C        4.98970541       4.35330277       3.51103635      -0.01041614      -0.01022371      -0.01206096
N        3.79230956       6.44329625       3.71525745      -0.00689300      -0.00987202      -0.00758983
C        2.46565100       8.48637522       3.82500695       0.00220355      -0.00355181      -0.01196000
C        9.85434718      -0.02425543       3.80941851       0.00013182      -0.00127464      -0.00963294
C        8.61742654       2.12400887       3.76908076       0.00990635      -0.00654304       0.00012893
C        7.40550891       4.27330828       3.76176935       0.00851608      -0.00088972      -0.00113619
C        6.21366320       6.44422247       3.79716611      -0.00368454       0.00650758       0.00180528
C        4.94620406       8.54266817       3.82863678      -0.00966397       0.00299051      -0.00857371
C       -0.01565903       1.43121891       3.79700495      -0.00749551      -0.00675006       0.00496242
C       -1.25131227       3.53994334       3.85715833      -0.00117842       0.00465293       0.00008484
C       -2.46149386       5.68684087       3.85768805       0.01147398       0.00721181       0.00563677
C       -3.68782378       7.83774231       3.84028015       0.00038335      -0.00560083       0.00439335
C       -4.93120275       9.98457684       3.81268787      -0.00142840      -0.00395972       0.00634092
C        2.44660522       1.44728634       3.63055989       0.00589355      -0.00144571       0.00822941
N        1.15606120       3.52717066       3.90000460       0.00404083      -0.00541939       0.00785283
C       -0.01076620       5.68528286       3.90637023      -0.00103965       0.00768081       0.00177975
C       -1.22738859       7.82217430       3.82642295      -0.00729863       0.00540903       0.00531897
C       -2.46794723       9.97447303       3.74259470      -0.00607026      -0.00484797      -0.00070768
C        4.91931396       1.42197035       3.52256074      -0.00549835       0.00828696       0.00443038
S        3.64909632       3.69025015       2.56884466       0.00560923      -0.00401809       0.00511255
C        1.22830848       7.77428895       3.83620638       0.00272330      -0.00641986      -0.01169697
C        0.00155684       9.94829338       3.73850174      -0.00122012       0.00257526      -0.00123472
C        7.37992122       1.41439036       3.70034342       0.00633512       0.00349813      -0.00288604
C        6.17098576       3.56585462       3.62469428       0.00096234      -0.00480777      -0.00085434
C        4.99606336       5.76152117       3.68772917      -0.00347697      -0.00722654      -0.00490017
C        3.72511547       7.80730466       3.81398214      -0.00293266      -0.00739295      -0.00523117
C        2.45776172       9.93121806       3.79781418       0.00569561       0.00105909      -0.00682676
C        9.84994620       1.40571889       3.80450176       0.00236651      -0.00589110       0.00660038
C        8.62733077       3.55010826       3.79695861       0.00992194      -0.00431591      -0.00026494
C        7.42437646       5.70097604       3.81016691       0.00570063       0.00671976       0.00466076
C        6.19052139       7.85543416       3.83640483      -0.00674101       0.01040407      -0.00492841
C        4.93014399       9.96542508       3.82456168      -0.01074644       0.00021196      -0.00371302
Ti       2.52890520       4.99214552       4.13060837       0.00943342       0.01408863      -0.00053432
