49
Lattice="12.336457 0.0 0.0 -6.168228499999997 10.683685154694365 0.0 0.0 0.0 15.0" Properties=species:S:1:pos:R:3:forces:R:3 energy=-429.7432500287629 free_energy=-429.7432500287629 stress="-0.005541551894560945 0.003010198874588913 -3.0957223346592934e-06 0.003010198874588913 -0.004303412874298698 -1.8395577938144137e-06 -3.0957223346592934e-06 -1.8395577938144137e-06 1.881111332236143e-06" pbc="T T T"
C        0.01066933       0.00337017       3.64499056       0.00332026       0.00142169       0.00034235
C       -1.20520644       2.15725337       3.56327778      -0.00083411      -0.00133056      -0.00046974
C       -2.44042472       4.28570009       3.71426704      -0.00310558       0.00450444      -0.00121074
C       -3.69051147       6.42283669       3.81599665       0.00162667      -0.00338307      -0.00444576
C       -4.93792309       8.54648366       3.73631512       0.00060384      -0.00267339       0.00227023
C        2.47373468      -0.00622693       3.79611815       0.00016831       0.00002718      -0.00287950
C        1.28691369       2.10635354       3.47369820       0.00319979       0.00680221       0.00146893
C       -0.02624551       4.35184054       3.26360579       0.00557538      -0.00700719       0.00059762
C       -1.27583487       6.47058206       3.56418646       0.00027247       0.00485532       0.00505418
C       -2.47483809       8.57028517       3.75982895      -0.00809616       0.00124563      -0.00718730
C        4.94692241       0.01324298       3.90754236       0.00379603       0.00038214      -0.00201377
C        3.70214767       2.06195974       4.25213085      -0.00437133      -0.00709487       0.00001591
N        1.12490602       6.50021132       3.54705169       0.00202359      -0.00127076       0.00116995
C       -0.01751042       8.57994804       3.65262159       0.00587762      -0.00542488      -0.00243908
C        7.41982409       0.00842110       3.81432484       0.00011346       0.00691179      -0.00009257
C        6.20841251       2.13155569       4.17321404      -0.00196017       0.00621337       0.00179453
C        5.07156565       4.31151655       4.47767441      -0.01047155      -0.01475399       0.00624160
P        3.67035439       6.12891392       3.00484032      -0.01329872       0.00642623       0.00870436
C        2.46033065       8.54969352       3.54951716       0.00406997       0.00493840      -0.00492536
C        9.88370855       0.00527600       3.66072499      -0.00053036      -0.00319294       0.01054309
C        8.66901060       2.14251255       3.85670184       0.00302855      -0.00105287       0.00049995
C        7.45772369       4.27462972       4.05514844      -0.00056418       0.00004154      -0.00126373
C        6.20991083       6.41459620       3.89963331       0.00329684      -0.00165684      -0.00225870
C        4.93485243       8.53455085       3.58684671      -0.00141241      -0.00009880      -0.00292435
C        0.02712102       1.43517478       3.55862568       0.00563626       0.00432168       0.00014953
C       -1.22211428       3.57519552       3.52238969      -0.00505050       0.00004739       0.00006628
C       -2.46690816       5.71698835       3.70435714       0.00073125       0.00519546      -0.00237035
C       -3.70269225       7.84664209       3.77433188      -0.00301095      -0.00633596      -0.00198661
C       -4.92944167       9.97160855       3.70746856       0.00341290      -0.00186022      -0.00101453
C        2.49379798       1.42425721       3.83652847      -0.00140095      -0.00244420       0.00043464
S        1.32023036       3.49094162       2.29874046      -0.00455274      -0.00748496      -0.00001864
C       -0.05834227       5.80841993       3.41308162      -0.00121522       0.00071930      -0.00430766
C       -1.25069064       7.87795336       3.66146958      -0.00401238       0.00465689       0.00155463
C       -2.46041062       9.98729066       3.83401385      -0.00035611       0.00221993      -0.00496353
C        4.96224951       1.42377462       4.12290616      -0.00220465       0.00178200       0.00365855
S        3.65433055       3.54374934       5.16068838       0.00332671       0.00597579      -0.00153016
C        1.19655465       7.85904598       3.56102434       0.00930700      -0.00166764       0.00255932
C        0.00918490       9.99249259       3.79482970       0.00437570      -0.00362306      -0.00411782
C        7.42798729       1.42964325       3.95846790      -0.00004396       0.00676304       0.00547490
C        6.24551525       3.54956404       4.28446447      -0.00399198       0.00015186      -0.00366128
C        5.00987232       5.64284957       4.02451261       0.00767380      -0.00585892       0.00434307
C        3.69070258       7.84945947       3.43511464      -0.00231702      -0.00146945      -0.00172890
C        2.47549832       9.97678513       3.67741089      -0.00143735       0.00463587       0.00342713
C        9.89814102       1.43657492       3.69454735       0.00098497      -0.00516731       0.00302037
C        8.67740745       3.56490069       3.88928115      -0.00071611       0.00103614      -0.00004524
C        7.43641218       5.70217142       3.95145805       0.00400606      -0.00127276      -0.00025644
C        6.17199843       7.82618819       3.70976755      -0.00085001       0.00171981      -0.00562780
C        4.94187933       9.96976690       3.62422679      -0.00039199      -0.00088560       0.00087855
Ti       1.86661747       4.71160439       3.98475539      -0.00023094       0.00401511      -0.00053013
