49
Lattice="12.336457 0.0 0.0 -6.168228499999997 10.683685154694365 0.0 0.0 0.0 15.0" Properties=species:S:1:pos:R:3:forces:R:3 energy=-429.60357387841896 free_energy=-429.60357387841896 stress="-0.0059581589710690375 -0.004497828299360448 -1.7081874638679148e-05 -0.004497828299360448 -0.004007354953430525 7.0435964817533825e-06 -1.7081874638679148e-05 7.0435964817533825e-06 2.8608972958695175e-06" pbc="T T T"
C       -0.01592966       0.01231691       3.84490630      -0.00677399       0.00456012       0.00975039
C       -1.29810717       2.11531670       4.17312211       0.01544242      -0.00784591      -0.00086087
C       -2.54339049       4.26641600       4.06504297      -0.00492757       0.00368545      -0.00487085
C       -3.71370328       6.42032458       3.75229170      -0.00514557       0.00066994      -0.00053226
C       -4.92085329       8.57348535       3.64953686      -0.00310090       0.00740985       0.00053342
C        2.46050468      -0.00735309       3.79680226       0.00821164      -0.00291018       0.00714173
C        1.21744799       2.05799572       4.27642404       0.01391235       0.00941378       0.00703355
C       -0.18470024       4.27512262       4.64051728      -0.00687028      -0.01026394      -0.00191354
C       -1.29103958       6.41169756       4.02986664       0.00302455      -0.00225721      -0.00170765
C       -2.45532819       8.54112382       3.75539891       0.00042203      -0.00617006       0.00640928
C        4.92045396       0.00668690       3.66871046       0.00726900      -0.00168623      -0.01160450
C        3.63810502       2.11303812       3.54341139      -0.01254501      -0.00874287      -0.00172252
S        1.33191642       6.14516207       3.61500458       0.00655780      -0.00065653       0.00974907
C        0.00503973       8.52682996       3.71149164       0.00012710       0.01375255      -0.00692178
C        7.38208720       0.00348263       3.63753242       0.00176494      -0.01485587       0.00317479
C        6.13093007       2.15592587       3.51157830      -0.00344568      -0.00022449       0.00735639
C        4.97138553       4.35097168       3.13232075       0.00094064       0.00652345       0.00487011
N        3.82500068       6.49990004       3.41563650      -0.01261121       0.00176572       0.01016340
C        2.48156215       8.55063530       3.55377467      -0.00000442      -0.00370608       0.00289191
C        9.85066072       0.01254719       3.73105058      -0.01124896      -0.00480710       0.00033079
C        8.59161655       2.13922728       3.79723116       0.00385605       0.00206351      -0.00007257
C        7.37421450       4.28533530       3.60670829      -0.00102239       0.00543383       0.00341132
C        6.22738029       6.47722139       3.38812205       0.00353476      -0.00903071       0.00150713
C        4.95412710       8.58734723       3.50315729       0.00434506      -0.00469250       0.00229168
C       -0.04213999       1.41182811       4.12468139       0.01717066       0.00696873      -0.00554259
C       -1.35182439       3.53062226       4.34134154      -0.00419070      -0.00852199      -0.00652479
C       -2.52048272       5.69436922       3.97640134      -0.00437262       0.00344369      -0.00839306
C       -3.69440527       7.84376849       3.71617726      -0.00654760       0.00107064       0.00482690
C       -4.94240330       9.98669153       3.76933353      -0.00305633       0.00892711       0.01398829
C        2.43591978       1.41352772       3.89235224      -0.00631536      -0.00030617      -0.00486178
P        1.32191558       3.54794627       5.23433743       0.00492862      -0.00274184       0.00196512
C       -0.14345769       5.62491741       4.25787819       0.00202589      -0.00406104       0.00290860
C       -1.22975457       7.81772293       3.81367832       0.00087066       0.00270636       0.00606404
C       -2.47072418       9.97093834       3.72535064       0.01359453      -0.00677483      -0.00339714
C        4.89941484       1.43988537       3.56534426      -0.00552889      -0.00273864       0.00118505
S        3.50798629       3.52098830       2.40110122      -0.00682499       0.00441837      -0.00546762
C        1.25520341       7.85920355       3.62986557      -0.00349183       0.01847215      -0.00625254
C       -0.01020930       9.96868454       3.65865257       0.00179322       0.00200282       0.00481601
C        7.36439189       1.43621843       3.63968393       0.00144949      -0.01092256      -0.00317375
C        6.15516742       3.57467714       3.41695589      -0.00112149       0.00750683      -0.00025974
C        5.00583634       5.80961541       3.25778528      -0.00598821       0.00591062      -0.01007848
C        3.73857105       7.86184168       3.46144271       0.00240052       0.00230347      -0.00048998
C        2.45777665       9.98104915       3.62630514      -0.00391565      -0.01149232       0.00091925
C        9.82751132       1.42414133       3.90787532       0.00859783      -0.00122610      -0.00929306
C        8.58383751       3.56232112       3.83086752      -0.00239164       0.00670663      -0.00116204
C        7.40582339       5.71670535       3.57507345       0.00370648      -0.00490965      -0.00238875
C        6.19585803       7.88453678       3.49559000       0.00662659      -0.00716570      -0.00401502
C        4.92681812       9.99904047       3.68845854      -0.01089002      -0.00174394       0.00128617
Ti       3.26138240       4.77655109       4.14854711      -0.00024155       0.01473883      -0.01306750
