49
Lattice="12.336457 0.0 0.0 -6.168228499999997 10.683685154694365 0.0 0.0 0.0 15.0" Properties=species:S:1:pos:R:3:forces:R:3 energy=-430.077465334416 free_energy=-430.077465334416 stress="-0.002053231764866429 -0.0021174111952703104 4.260876187738642e-06 -0.0021174111952703104 -0.003139216284002746 8.181589469448991e-07 4.260876187738642e-06 8.181589469448991e-07 4.88403626949869e-06" pbc="T T T"
C        0.02262985      -0.02272234       3.69929624      -0.00386421       0.00244254       0.00305348
C       -1.22711086       2.10684124       3.50463726      -0.00115755      -0.00030130       0.00505786
C       -2.48796248       4.24167655       3.56905846      -0.00265553       0.00386712       0.00336421
C       -3.69593567       6.38515189       3.75917295      -0.00444193       0.00473452      -0.00233645
C       -4.90738135       8.52211844       3.80123879       0.00232751       0.00115919      -0.00372096
C        2.48874187      -0.05262954       3.83573062      -0.00002243      -0.00209823      -0.00110739
C        1.28142938       2.04055995       3.45331859       0.00496528       0.01588300       0.00496365
C       -0.12298474       4.26205189       2.98737733      -0.01193661       0.00051425      -0.00446805
C       -1.26883405       6.40618112       3.44533155      -0.00019893      -0.00075670       0.00409664
C       -2.43970996       8.51290487       3.78433767       0.00885747       0.00273317      -0.00541944
C        4.95850473      -0.04093483       3.98525878      -0.00257810       0.00099417       0.00021885
C        3.67988737       2.05539584       4.18278967       0.00135360       0.00572871      -0.00333416
S        1.25390020       6.56073327       2.18894232       0.00635869       0.00466194      -0.00147222
C        0.02592484       8.50247346       3.74659710      -0.00390839       0.00124237       0.00840933
C        7.42187793      -0.02443456       3.93754356       0.00397731      -0.00641742      -0.00966377
C        6.17339963       2.12211089       4.11087978      -0.00120329      -0.00353738       0.00368050
C        4.97333120       4.33678292       4.26729727      -0.00229114      -0.00736078      -0.00183314
N        3.77472877       6.44737044       4.00454974       0.00369024       0.00214131      -0.00082759
C        2.52009297       8.52069974       3.80939838      -0.00515293       0.00130505       0.00452344
C        9.88996772      -0.01788748       3.79551934       0.00987548      -0.00043702      -0.00179047
C        8.64029651       2.11461909       3.82822985      -0.00431587      -0.00073756      -0.00777513
C        7.40164264       4.25518435       3.92504413       0.00763921       0.00447358       0.00525383
C        6.19524232       6.41625842       3.92075702      -0.00404742       0.00064203      -0.00294592
C        4.97658093       8.53337530       3.83623453      -0.00422835      -0.00861658       0.00313272
C        0.02278788       1.40225416       3.53214318       0.00068624       0.00704014       0.00401853
C       -1.26898729       3.51797080       3.34335674      -0.00805517      -0.00039825       0.00353990
C       -2.48079713       5.66962775       3.60071093      -0.00501278       0.00195219       0.00122039
C       -3.67796047       7.80597351       3.78171251       0.00766750       0.00581203      -0.00619690
C       -4.91469572       9.94083913       3.76607653      -0.00287820       0.00351187       0.00127944
C        2.47998226       1.36593890       3.84380008       0.00433655      -0.00361093       0.00750256
S        1.45633790       3.60609152       2.67610634       0.00440639      -0.01464121       0.00548672
C       -0.12193118       5.68154993       3.02372573       0.00490903      -0.00045904      -0.00691984
C       -1.20679142       7.80806225       3.65099397       0.00285872      -0.00417387       0.01084271
C       -2.43859860       9.92899976       3.88933531       0.00067713       0.00002030       0.00117136
C        4.94121651       1.39187774       4.12908506      -0.00149150      -0.00227033      -0.00327577
P        3.45961822       3.67325113       4.86450473      -0.00442558      -0.00193002      -0.00068155
C        1.29175963       7.79658978       3.62455417      -0.00453588      -0.01014025      -0.00116778
C        0.02588099       9.92857091       3.92218657      -0.00304770       0.00017768      -0.00258875
C        7.40811737       1.40731844       3.97669104      -0.00220224      -0.00596605      -0.00393080
C        6.17101314       3.55686050       4.11623973       0.00539238       0.00108300       0.00376132
C        4.96157777       5.74130704       4.07304856      -0.00141691      -0.00174299       0.00079718
C        3.75756494       7.81376869       3.86773142      -0.00719996       0.00078337       0.00288533
C        2.49338182       9.95410842       3.86714405       0.01017270       0.00014391      -0.00004662
C        9.88632302       1.40739254       3.71410665      -0.00152600       0.00042572      -0.00271136
C        8.62718384       3.53742389       3.78140439       0.00341930       0.00213557       0.00220354
C        7.40933601       5.67979159       3.87159749      -0.00396257       0.00376485      -0.00560136
C        6.19929503       7.82302993       3.84397243      -0.00123522      -0.00230352      -0.00503708
C        4.95785954       9.95422225       3.77070829       0.00269688      -0.00983656      -0.00097496
Ti       1.90965950       5.60184766       4.04524272       0.00272475       0.00836238      -0.00463605
