49
Lattice="12.336457 0.0 0.0 -6.168228499999997 10.683685154694365 0.0 0.0 0.0 15.0" Properties=species:S:1:pos:R:3:forces:R:3 energy=-432.2866165603921 free_energy=-432.2866165603921 stress="-0.002087416834065649 -0.002370246113986019 1.1142514443192922e-05 -0.002370246113986019 -0.004165474209127026 8.762093554206132e-06 1.1142514443192922e-05 8.762093554206132e-06 4.632962053806871e-07" pbc="T T T"
C       -0.00734265      -0.01736092       3.81679983       0.00090651      -0.00035496       0.00656068
C       -1.25107271       2.12493271       3.99682804      -0.00419259      -0.00511797      -0.00121765
C       -2.47444747       4.26118019       3.84710796       0.00177326      -0.00098469      -0.00103117
C       -3.68641798       6.39679934       3.69648537      -0.00345713       0.00122303      -0.00340056
C       -4.92824204       8.53426085       3.67766309       0.00071166       0.00583236       0.00143454
C        2.46944703      -0.04900832       3.77134085      -0.00164050       0.00280327       0.00843282
C        1.23705789       2.02498899       4.22074869      -0.00677251      -0.00321214      -0.00197164
C       -0.05767971       4.32137042       4.28344383       0.00589390      -0.00279919      -0.00028228
C       -1.23388169       6.40847739       3.82717192      -0.00538898      -0.00461638       0.00749030
C       -2.45680571       8.52281372       3.67662989       0.00375535      -0.00441087      -0.00242628
C        4.93417992      -0.02117030       3.61432799      -0.00154233      -0.00006635      -0.00451880
C        3.64493380       2.05570252       3.53855230       0.00124081       0.00456344      -0.00402875
N        1.18197035       6.42344420       4.03814039      -0.00287879      -0.00192391      -0.00165224
C        0.00952553       8.51551505       3.69825083       0.00104028      -0.00415837       0.00110853
C        7.39789335      -0.01702415       3.62811144       0.00170553       0.00665328      -0.00620796
C        6.14512687       2.14035166       3.51748394       0.00084869       0.00397172       0.00344514
C        4.95537161       4.35590314       3.40883731      -0.00542350      -0.01533298       0.00505542
O        3.79561722       6.48815669       3.28463094       0.00603773       0.00417564       0.00025355
C        2.47351435       8.49597935       3.65952449      -0.00709436       0.00422293      -0.00295917
C        9.85507087      -0.01273870       3.71960604       0.00398357       0.00073471      -0.00234457
C        8.62127165       2.12909949       3.71037819      -0.00081241       0.00486879       0.00414707
C        7.39260758       4.26769773       3.62676490       0.00439651      -0.00380199      -0.00960064
C        6.21043528       6.43690883       3.62741153       0.00529660      -0.00382710       0.00483855
C        4.94579393       8.55690756       3.59921276       0.00038154       0.00271402       0.00513179
C       -0.01522858       1.39500408       4.02731712      -0.00485743      -0.00429096      -0.00393841
C       -1.25424568       3.55379188       4.04713016       0.00100281      -0.00387450       0.00208596
C       -2.45809376       5.68461547       3.78677404      -0.00604122      -0.00253080      -0.01269842
C       -3.68945829       7.81682177       3.68084051       0.00039887       0.00300896      -0.00614314
C       -4.93850577       9.94972736       3.75878526      -0.00055003       0.00599673      -0.00063566
C        2.45893890       1.36453952       3.88347172      -0.00055414       0.00191278       0.00016748
P        1.27610812       3.52347606       5.15571303      -0.00673090       0.00206088      -0.00115887
C       -0.01249955       5.72679597       4.05885441      -0.00296843       0.00252622       0.01024921
C       -1.22563343       7.81424750       3.71643464       0.00299535      -0.00686173       0.00492602
C       -2.46052127       9.94348968       3.66972347      -0.00263369      -0.00238860       0.00287931
C        4.91025949       1.41527416       3.53713410       0.00045136       0.00317374       0.00279939
S        3.40560717       3.67336420       2.88290392       0.00447831       0.01243118       0.00360119
C        1.22547998       7.77676505       3.78291611      -0.00293800      -0.00231301       0.00139266
C        0.00390244       9.94561900       3.62885926       0.00160284      -0.00067917      -0.00229730
C        7.38093124       1.42096023       3.60639419       0.00039336       0.00795159       0.00890217
C        6.15553756       3.56529343       3.50438432       0.00397806      -0.00177364      -0.00865083
C        4.99937674       5.74668903       3.56764344       0.00524842      -0.00845060       0.00297878
C        3.72786081       7.87983660       3.55330588      -0.00422552       0.00631610      -0.00405705
C        2.46179371       9.94738417       3.65857981       0.00099910       0.00402270       0.00681659
C        9.85832327       1.41889880       3.80882242      -0.00373979      -0.00055158      -0.00673046
C        8.62851386       3.55266245       3.72526386       0.00308292       0.00221093      -0.00167364
C        7.41795647       5.68983694       3.65325949       0.00352641      -0.00591908      -0.00999054
C        6.18739706       7.84672811       3.62457699       0.00268212       0.00006509      -0.00381258
C        4.92673176       9.97346876       3.70820971       0.00456383       0.00063828       0.00651749
Ti       2.73293377       5.21007147       4.44196918       0.00106654      -0.00383782       0.00221399
