49
Lattice="12.336457 0.0 0.0 -6.168228499999997 10.683685154694365 0.0 0.0 0.0 15.0" Properties=species:S:1:pos:R:3:forces:R:3 energy=-437.74735271815376 free_energy=-437.74735271815376 stress="-0.002275544181114397 0.002655526773289949 1.0267195466556522e-06 0.002655526773289949 0.000908111693722126 -4.105572317058684e-06 1.0267195466556522e-06 -4.105572317058684e-06 4.985225579279274e-06" pbc="T T T"
C        0.00489482       0.01653427       3.73804631       0.00354784       0.00133279      -0.01046305
C       -1.22270365       2.14758023       3.81062611      -0.01038446      -0.00061278       0.00320337
C       -2.45574633       4.27899846       3.81610073       0.01228231      -0.00823331       0.00885679
C       -3.71274590       6.41176715       3.75870221       0.00883261       0.00288706       0.00310055
C       -4.94909724       8.55118801       3.68892515       0.00145383      -0.00117205      -0.00518858
C        2.46091848       0.02840236       3.80917044       0.00339070       0.00516077      -0.00312011
C        1.23664486       2.19189130       3.84913909       0.00281972       0.00182510       0.00222233
C        0.00259650       4.29247412       3.89413978      -0.00178134       0.00186750      -0.00310967
C       -1.24853278       6.42095120       3.83146570      -0.00517649      -0.00121963       0.01075978
C       -2.47746948       8.55446121       3.80207756       0.00408176       0.00297977      -0.00525980
C        4.93425023       0.00082306       3.84824196      -0.01707057      -0.00163949      -0.00688948
C        3.72749557       2.15347700       3.84849443       0.00715023       0.00270960      -0.01161818
O        1.14588505       6.45459853       3.99972632      -0.00085502       0.00082968       0.00251621
C       -0.01083970       8.53944420       3.81572925       0.00289343       0.00083374       0.00476590
C        7.41018437      -0.01804648       3.82683420      -0.00487029       0.00107067       0.00094453
C        6.19243910       2.11456531       3.84802369      -0.00774485      -0.00359499       0.00050565
C        4.98281569       4.19965813       3.71011804      -0.00676111       0.00652548      -0.01220208
P        3.63595922       6.28160388       2.49940134       0.00024957      -0.00634993       0.00426260
C        2.44036242       8.52096742       3.63707432       0.00657426      -0.00310721       0.00388855
C        9.87045790      -0.00675901       3.73984307       0.00474768       0.00347343       0.00053442
C        8.65091325       2.13119684       3.82848525      -0.00579697       0.00139026      -0.00545163
C        7.41985655       4.26531870       3.78225572       0.00717722      -0.00276719       0.00267332
C        6.16690918       6.39886675       3.59340366       0.00515923       0.00200580      -0.00099861
C        4.92309061       8.55028657       3.50908445      -0.00192094      -0.00664601       0.00752786
C        0.01293742       1.45035366       3.80075207      -0.00490661       0.00336082      -0.00334143
C       -1.22451981       3.56926435       3.83699802       0.00645796      -0.00362013       0.00009621
C       -2.47614803       5.69942306       3.80295058       0.00284998      -0.00849921       0.00839893
C       -3.71695547       7.83935928       3.75026453       0.00638865       0.00324551       0.00444540
C       -4.93688685       9.98614557       3.74343575       0.00722770      -0.00069042      -0.01060765
C        2.46911370       1.47033168       3.84640417       0.00967719       0.00627456      -0.00177913
N        1.21342117       3.57510948       3.90601358      -0.00780593      -0.00357144      -0.00362797
C       -0.05520873       5.70118762       3.90477530      -0.00488004       0.00162158       0.01239023
C       -1.25471499       7.84436880       3.82176450       0.00213448       0.00116468       0.00419162
C       -2.47775252       9.98749983       3.82265298      -0.00757031      -0.00026843      -0.00673452
C        4.94949612       1.42197407       3.85673098      -0.00603823      -0.00415865      -0.01030357
N        3.78932088       3.51379772       3.78084070      -0.00532192       0.00276676      -0.00040740
C        1.19961975       7.85481281       3.78295055       0.00488551      -0.00385602       0.00611609
C        0.00247671       9.96759789       3.83020038      -0.01334461       0.00399485       0.00788267
C        7.42006924       1.40983186       3.84550305      -0.00543973      -0.00015034       0.00148585
C        6.20505970       3.52606317       3.79401005      -0.00609587       0.00119873       0.00340614
C        4.94789323       5.61864958       3.50564566      -0.00841461       0.01388580      -0.00020668
C        3.67668525       7.87179833       3.33115177       0.00233148      -0.01000404       0.00304002
C        2.46472878       9.95578208       3.75205809       0.00504454       0.00211303       0.00294441
C        9.88240902       1.42271429       3.79998846      -0.00959976       0.00599444      -0.00389923
C        8.64980006       3.55741084       3.81545284       0.01104603      -0.00275560       0.00007131
C        7.39634063       5.69396540       3.72334877       0.00769516       0.00224523      -0.00386238
C        6.15869059       7.82743761       3.56780251      -0.00365397      -0.00156461      -0.00139192
C        4.93707523       9.97602034       3.66644914       0.00182020      -0.00229656       0.00710370
Ti       2.51590351       4.95740058       4.18146633       0.00751439      -0.00597959      -0.00687137
