49
Lattice="12.336457 0.0 0.0 -6.168228499999997 10.683685154694365 0.0 0.0 0.0 15.0" Properties=species:S:1:pos:R:3:forces:R:3 energy=-437.7093414210329 free_energy=-437.7093414210329 stress="-0.0011053206755316167 0.002552095699167253 3.715238077497895e-07 0.002552095699167253 0.0010130635683308531 -2.519438131581657e-06 3.715238077497895e-07 -2.519438131581657e-06 -2.492554397835285e-06" pbc="T T T"
C        0.00129691      -0.00546052       3.70073921       0.00027494      -0.00101248      -0.00201147
C       -1.21961818       2.14157649       3.62815851       0.00405557      -0.00486363      -0.00274245
C       -2.45626858       4.27227366       3.77289656      -0.00843971      -0.00501612       0.00118662
C       -3.71513542       6.40603585       3.84425835       0.00424806       0.00088201      -0.00560280
C       -4.95070572       8.53880325       3.82017529      -0.00086934       0.00499690       0.00483842
C        2.47181316       0.00561434       3.74124375       0.00222980       0.00012096       0.00065730
C        1.26162186       2.09300067       3.37252485       0.00142344       0.01375769       0.00644619
C        0.00764534       4.34083059       3.56865778      -0.01086621       0.00323655       0.00004897
C       -1.26469419       6.44307579       3.78358556      -0.00279475      -0.00379565      -0.00165436
C       -2.48151694       8.55827993       3.82922751       0.01139863      -0.00478130      -0.00443671
C        4.93867190       0.00657921       3.79486225      -0.00451923      -0.00152765      -0.00078614
C        3.73249618       2.16057100       3.71797551      -0.00333953      -0.00460089      -0.00199239
N        1.15777433       6.45135887       3.70935796       0.00107249       0.00258722      -0.00200514
C       -0.00732884       8.54696444       3.79988648       0.00265803       0.00120674       0.00665223
C        7.41715472      -0.01732259       3.80338506       0.00703598      -0.00842584      -0.01138689
C        6.18636727       2.13060755       3.80074900       0.00223423      -0.00283457       0.01215765
C        4.93722878       4.25734518       3.86202293      -0.00223697      -0.00110037       0.00390170
O        3.73713795       6.39897762       3.92787765      -0.00137642       0.01296877       0.00374861
C        2.47897021       8.48924163       3.82245515      -0.00343941      -0.00275768      -0.00404979
C        9.87339591      -0.01886994       3.76567406       0.00317567       0.00542803      -0.00386642
C        8.65309804       2.12884286       3.78059363      -0.00065664       0.00993611      -0.00549798
C        7.40545857       4.26379727       3.83280165      -0.00671176       0.00397459       0.00363116
C        6.15199779       6.39561057       3.87286302       0.00052671      -0.00359522       0.00794672
C        4.92329008       8.51892256       3.83098472      -0.00708017       0.00011019      -0.00353353
C        0.01051396       1.41793331       3.55894642       0.00451043      -0.00292980      -0.00219567
C       -1.22427113       3.56745532       3.65920002      -0.00498342      -0.00430151       0.00317337
C       -2.47952202       5.70176506       3.80904590      -0.00240336      -0.00713845      -0.00269534
C       -3.71285600       7.83336481       3.83914315       0.00531610       0.00474011      -0.00103291
C       -4.93366911       9.97124364       3.75336000       0.00053875       0.00640929       0.00889440
C        2.49041722       1.43469456       3.61564048      -0.00261379       0.00030987      -0.00142781
P        1.27353862       3.65738758       2.49397565       0.00403253      -0.00680965      -0.00346882
C       -0.04095729       5.77497518       3.69609814      -0.00023259       0.00159832      -0.00115214
C       -1.25316851       7.85399547       3.81296328       0.00880774      -0.00578479       0.00091681
C       -2.47005820       9.98270334       3.80221083       0.00099990      -0.00596174      -0.00245667
C        4.95119852       1.43142509       3.77337165      -0.00139981      -0.00213566       0.00567179
N        3.75280101       3.53321722       3.80655226       0.00132135      -0.00307397      -0.00584237
C        1.20852254       7.81018896       3.78436616      -0.00114695       0.00350316       0.00017278
C        0.00528635       9.96961615       3.80692766      -0.00105390       0.00004800      -0.00161708
C        7.41918063       1.41267800       3.80016714       0.00653714      -0.00226625      -0.00389534
C        6.18165867       3.54761274       3.82551143      -0.00244919      -0.00085018       0.01109837
C        4.95666244       5.67056808       3.90608580      -0.00515233       0.00299705       0.00484490
C        3.70914438       7.82692972       3.86201690      -0.00560819       0.00061161       0.00229452
C        2.47834325       9.93914669       3.80242086       0.00803747      -0.00661034      -0.00934583
C        9.88645252       1.41975956       3.72873087       0.00095893       0.00672929       0.00005254
C        8.65069817       3.55483286       3.79971611      -0.01188269       0.00701120      -0.00141481
C        7.39304059       5.68413372       3.85361691       0.00433733       0.00050093       0.00339551
C        6.16186385       7.82188081       3.84611100      -0.00406293      -0.00119469      -0.00001263
C        4.93274185       9.95668628       3.76851641      -0.00087820       0.00013904      -0.00555618
Ti       2.28967986       4.89769869       4.16706807       0.01046629      -0.00043517      -0.00005087
