50
Lattice="12.336457 0.0 0.0 -6.168228499999997 10.683685154694365 0.0 0.0 0.0 15.0" Properties=species:S:1:pos:R:3:forces:R:3 energy=-439.4400874056747 free_energy=-439.4400874056747 stress="-0.00431083254859655 0.000531945670033193 -1.0410493126371795e-05 0.000531945670033193 -0.003620222437607595 5.568812210116579e-06 -1.0410493126371795e-05 5.568812210116579e-06 -1.1843978538257527e-05" pbc="T T T"
C       -0.03886613      -0.00290052       3.99835148       0.00029659       0.00239540       0.00281050
C       -1.26593719       2.13735913       4.03088070       0.00082445      -0.00079515      -0.00626059
C       -2.49489854       4.27663891       4.02781639       0.00239024      -0.01239515      -0.00733701
C       -3.73164836       6.41651967       3.98365875       0.00841941       0.00208584      -0.00450951
C       -4.97014589       8.54454560       3.92234565      -0.00412512       0.00596058       0.01465464
C        2.42785820       0.00784702       3.92634791       0.01095229      -0.00004182       0.00347660
C        1.18083512       2.11930102       3.64913305      -0.00032150       0.00338867       0.01076463
C       -0.07817270       4.25248615       3.52566352       0.00478150       0.00089059       0.00181328
C       -1.27868915       6.41719576       3.80363750      -0.00281543       0.00196683       0.00433589
C       -2.49923433       8.55163395       3.99634179       0.00130407      -0.00123158       0.00846446
C        4.88845734       0.02000076       4.07807124       0.00492501      -0.00317634       0.00218927
C        3.68152204       2.11745714       3.65794502       0.00107358      -0.00311995       0.00007511
P        2.39734895       4.01198401       2.12837281      -0.00517478       0.00398270      -0.00290640
S        1.15968830       6.55520764       2.69786168      -0.00112942       0.00347277      -0.00155533
C       -0.05954433       8.58072988       3.96700808      -0.00308676       0.00652676       0.00444411
C        7.36055789       0.01969191       4.21984601       0.00273485       0.00723437       0.00298990
C        6.14076423       2.13739445       4.01637575      -0.00789934      -0.00295531      -0.00743772
C        5.02700968       4.19198780       3.29720367       0.00595183      -0.00201283      -0.00064857
S        4.24642094       6.17998026       1.47607596      -0.00819945       0.00919957      -0.00730516
C        2.42557929       8.59294636       3.98555593      -0.00395259      -0.00205257       0.00174441
C        9.84249092       0.00918392       4.19340279       0.00635146       0.00123520      -0.00633688
C        8.60638347       2.14510063       4.19103329      -0.00461843       0.00202810       0.00403750
C        7.38981109       4.27062266       3.93668801      -0.01583223       0.00275909       0.00593278
C        6.19238420       6.41103678       3.55589376      -0.00384522      -0.00504635       0.00074599
C        4.89502480       8.53926075       3.91683890       0.00138018      -0.00391527       0.00061391
C       -0.03802938       1.42101122       3.92774639      -0.00394110       0.00198368      -0.00503056
C       -1.27693796       3.55631021       3.90976063       0.00984956      -0.00517542      -0.01116023
C       -2.50280081       5.70112394       3.97456253       0.00540584      -0.00931279       0.00151363
C       -3.73705418       7.83817635       3.96754433      -0.00068200       0.00544444      -0.00484984
C       -4.97266504       9.96831606       3.95360089       0.00435298       0.00810572       0.00349636
C        2.43513700       1.42324439       3.73466743      -0.00010783       0.00154281      -0.00071917
C        1.10876867       3.49315492       3.26760799       0.00668543       0.00218362      -0.01164388
C       -0.14126023       5.66681754       3.43635840      -0.01779550      -0.00414178       0.00536271
C       -1.27227228       7.84432224       3.90433043       0.00115471       0.00489256      -0.00355574
C       -2.50741256       9.98243492       4.01398649       0.01013266      -0.00507363      -0.00912752
C        4.89730246       1.43645828       3.95541372      -0.00031047      -0.00511651      -0.00313962
C        3.76803080       3.49851829       3.23225408       0.01150425      -0.00949114      -0.00975252
C        1.18269532       7.96420502       3.72613667      -0.00573355       0.00686661       0.00369782
C       -0.04816064       9.99854264       4.14037799       0.00454711       0.00544274       0.00102683
C        7.36550338       1.43984500       4.19342088      -0.00457443       0.00587326       0.00045865
C        6.18183324       3.53788848       3.78776444      -0.01206139      -0.00219043       0.00421839
C        5.19125538       5.59085040       2.86095722       0.00517826      -0.00416052      -0.00224209
C        3.64797491       7.89765357       3.89624468      -0.00187594       0.00190914       0.01234444
C        2.42865503      10.00848765       4.20551545       0.00318357       0.00115210      -0.00388993
C        9.84250949       1.43403785       4.18660918       0.00038005       0.00250520      -0.00550160
C        8.61019739       3.56610525       4.09964734      -0.01192371       0.00049667      -0.00133778
C        7.38402115       5.69969744       3.85931760       0.00199931       0.00178474      -0.00385326
C        6.13560756       7.81896116       3.77907825      -0.00393585      -0.00337810       0.00373434
C        4.90125595       9.97396880       4.06792170       0.00358734      -0.00545244       0.00186395
Ti       3.28912471       5.91136271       3.44748493       0.00459552      -0.01307464       0.01329083
