49
Lattice="12.336457 0.0 0.0 -6.168228499999997 10.683685154694365 0.0 0.0 0.0 15.0" Properties=species:S:1:pos:R:3:forces:R:3 energy=-431.22985497038064 free_energy=-431.22985497038064 stress="-0.0028597450408873078 0.0018733668415523985 2.213652299643767e-06 0.0018733668415523985 -0.008490473970241993 -3.9025162653388804e-06 2.213652299643767e-06 -3.9025162653388804e-06 2.279583896560211e-06" pbc="T T T"
C       -0.00072472       0.00689821       3.73015938      -0.00256259       0.00519689       0.01394937
C       -1.22200808       2.14952946       3.72015340      -0.00401304       0.00385761       0.01005478
C       -2.44727285       4.28298085       3.66501329       0.00392739      -0.00186020      -0.00469590
C       -3.69563685       6.40926221       3.64390611       0.00231665       0.00430553       0.00339965
C       -4.94622304       8.53958085       3.67467727      -0.01050321       0.00298444       0.00007649
C        2.46403260      -0.00373776       3.77631761       0.00719805      -0.00541414       0.00854518
C        1.24403879       2.15603763       3.79969051       0.00627230      -0.00430684       0.01481801
C        0.04394377       4.26110190       3.68428428      -0.00509361       0.00333965       0.00377239
C       -1.19941442       6.41191334       3.64827476      -0.00926601      -0.01268253       0.00414103
C       -2.46822465       8.54534000       3.71841459      -0.00071715      -0.00222605      -0.00169236
C        4.93244836       0.01076969       3.80951265      -0.00297882       0.00818968      -0.00948923
C        3.69945493       2.14425354       3.82376120      -0.00819812       0.00198405       0.00098318
B        1.38136095       6.42402380       3.59105509       0.01244661       0.00006828      -0.00437317
C       -0.01027958       8.57736985       3.75066486      -0.00218833       0.00307065      -0.00939906
C        7.39642465       0.03926335       3.81730621       0.00872110      -0.00223546      -0.00409009
C        6.17979378       2.13586195       3.78187256      -0.00237426      -0.01402442      -0.00439777
C        4.94306202       4.21550633       3.66762026       0.00426572       0.00374195       0.00266657
P        3.28916366       6.22886246       3.41995316      -0.00719725       0.00625371      -0.00757400
C        2.44691240       8.64524386       3.73849756       0.00331333      -0.00057871      -0.00455927
C        9.87995162       0.03618218       3.76392722       0.00084380      -0.00682941       0.00583105
C        8.64794143       2.15662213       3.75215886       0.00329720       0.01037946      -0.00427066
C        7.41615026       4.27758042       3.67023629       0.00242027       0.00005411      -0.00149817
C        6.14619901       6.40004299       3.59209610       0.01223567       0.00262536      -0.00445504
C        4.92386072       8.55724490       3.66306187      -0.00573334      -0.00926198      -0.00434521
C       -0.00085577       1.42910174       3.74856006       0.00055383       0.00762504      -0.00275001
C       -1.21805414       3.56521990       3.67822901      -0.00051193       0.00106627      -0.01179651
C       -2.44954969       5.70628577       3.64776922      -0.00791563      -0.00934724      -0.00662985
C       -3.70476224       7.83274119       3.67160540      -0.00688610       0.00555035       0.01328569
C       -4.93981001       9.96366587       3.72670422       0.00019267       0.00253905       0.00390568
C        2.46808612       1.40970197       3.82214684       0.00525481      -0.00684516       0.00506294
C        1.24511842       3.54501339       3.83561557      -0.01449678      -0.00369027      -0.00287856
C        0.04396312       5.69277923       3.62654495       0.00426539       0.00415539       0.00447717
C       -1.23200565       7.84067960       3.70315767      -0.00429808      -0.00958273      -0.00088085
C       -2.46896442       9.96814291       3.77401912       0.00598628      -0.00095209      -0.00260742
C        4.94690534       1.42579423       3.81544657      -0.01364023       0.00339757      -0.00872843
C        3.72610411       3.53158673       3.81048055       0.00300940       0.00484730      -0.00054837
C        1.23312507       7.92370305       3.70950754       0.00176825       0.00710331       0.00199237
C       -0.00452588      10.00068810       3.80467364      -0.00070812       0.00740098       0.00711321
C        7.41356763       1.44606781       3.79509403       0.00835085      -0.00213086       0.00088534
C        6.19744464       3.54407329       3.70323077       0.00385759      -0.01158446       0.00184129
C        4.93507909       5.63784403       3.56058287       0.00363451       0.01258228       0.01292074
C        3.65845602       7.91446382       3.64633381      -0.00328933      -0.01024690      -0.01132215
C        2.46715859      10.04362025       3.79635824       0.00471645      -0.00718301       0.00171699
C        9.87817713       1.44857348       3.74909425      -0.00394722      -0.00079969       0.00418864
C        8.65257712       3.57560421       3.69716498       0.00413497       0.01007062      -0.00992804
C        7.40086432       5.70029829       3.62851327       0.01061890       0.00174580       0.00035600
C        6.15158509       7.82864051       3.63119876      -0.00522467      -0.00128213      -0.00732127
C        4.93410433       9.98675608       3.71953488      -0.00016293      -0.00666154       0.00784999
Tl       2.49865024       4.60976957       5.75053830      -0.00169522       0.00559047      -0.00360238
