49
Lattice="12.336457 0.0 0.0 -6.168228499999997 10.683685154694365 0.0 0.0 0.0 15.0" Properties=species:S:1:pos:R:3:forces:R:3 energy=-422.8471165873804 free_energy=-422.8471165873804 stress="-0.003362612732829115 -0.004436598208046738 -5.220418018350191e-06 -0.004436598208046738 -0.0035788192630908738 3.0130426588549486e-06 -5.220418018350191e-06 3.0130426588549486e-06 -3.560232707506559e-06" pbc="T T T"
C        0.01577271      -0.02560926       3.63047961       0.00545567      -0.00701115      -0.00499996
C       -1.24683792       2.09885383       3.39984915       0.00851509       0.00969286      -0.00055747
C       -2.47438057       4.25277234       3.60024363      -0.00855432      -0.00658421      -0.00059365
C       -3.66179971       6.40010727       3.83282559      -0.00355214      -0.00646281       0.00235427
C       -4.89273145       8.53708865       3.83811410      -0.00408222       0.00645596       0.00257585
C        2.49087273      -0.04868520       3.57145311       0.00871581       0.01200308       0.00408110
C        1.22460022       2.01448747       3.08793703      -0.01115381      -0.00390995      -0.00146585
C       -0.11074691       4.24264282       3.01596000       0.00240909       0.00085300       0.00606432
C       -1.21700286       6.38321949       3.59302677       0.00069410       0.00527549      -0.00131113
C       -2.42210195       8.52145225       3.74247286      -0.00246353      -0.00419370       0.00638089
C        4.95339034      -0.01189611       3.73372947      -0.00514881      -0.00101078       0.00355928
C        3.67220222       2.07333304       3.59807162       0.00508611      -0.00701603       0.00368531
B        1.11585941       6.39874572       3.82608869      -0.00078854      -0.00437705       0.01141678
C        0.03882882       8.52714605       3.79765005       0.00357860       0.01016740       0.00240648
C        7.41965676      -0.00611477       3.84267067      -0.00303221      -0.01515298       0.00438682
C        6.15175645       2.15417501       3.85311980       0.01244572       0.00289579       0.01006725
C        5.00561730       4.38033513       4.06860575      -0.00278787      -0.00297069      -0.00863156
O        3.82546588       6.47337723       4.18037192       0.00766189       0.00923326      -0.01153966
C        2.53595059       8.52631107       3.94855172      -0.00150928      -0.00594752       0.00288743
C        9.88837783      -0.01398136       3.78930202       0.00279785       0.00573548      -0.00862914
C        8.63609744       2.12800286       3.75521592      -0.00702544      -0.00315246       0.00241703
C        7.42069077       4.27788211       3.92214767       0.00291996       0.01138526      -0.00361329
C        6.24033275       6.44512840       4.08349734      -0.00473669      -0.00034742      -0.00628733
C        4.98237416       8.54749586       3.96412005      -0.00373689      -0.00295245       0.00803427
C       -0.00435903       1.38389757       3.35911617      -0.00256185      -0.00701878      -0.00132212
C       -1.27354069       3.51541326       3.31744235      -0.00172494       0.00554181      -0.00663362
C       -2.45056398       5.67862080       3.66907720      -0.00258454      -0.00596155      -0.00869369
C       -3.65430346       7.82146191       3.81058439      -0.00795691      -0.00426749      -0.00531681
C       -4.91174079       9.94730769       3.67254147       0.01187585       0.01143706       0.00428988
C        2.46746096       1.35896393       3.37837364      -0.00221045       0.00279707      -0.00371534
S        1.16303493       3.47627999       2.14953471       0.00288319      -0.00323818      -0.00088579
C       -0.02223949       5.62450607       3.34356503       0.00051516      -0.00040994       0.00707373
C       -1.18306139       7.80062757       3.72663737       0.00630914       0.00848895      -0.00948991
C       -2.43282902       9.94395745       3.69007344      -0.00132732      -0.00237969       0.00424404
C        4.92552001       1.43194707       3.74346491       0.00940617      -0.00287061       0.00381688
S        3.44008666       3.75254805       3.86708022      -0.00550555      -0.00222144       0.01592076
C        1.29223199       7.83184391       3.87419591      -0.00353794       0.00156727      -0.00565296
C        0.02104022       9.96301763       3.80615058      -0.00695532       0.00123091       0.00008634
C        7.39279759       1.42864579       3.83142101      -0.00022639      -0.01394346      -0.00257763
C        6.16928167       3.58417140       3.95834280       0.00986501       0.01160363       0.00156951
C        5.03819828       5.77674792       4.14429138      -0.00222217       0.00023102       0.00348766
C        3.77901219       7.85168762       4.02704875      -0.00113152       0.00130866       0.00487032
C        2.50079677       9.95794666       3.88091511       0.00251854      -0.00815536      -0.00779389
C        9.87497145       1.41101152       3.65448348       0.00357630       0.01287393      -0.00991202
C        8.64058525       3.54941728       3.76685716      -0.01121348      -0.00265011      -0.00348116
C        7.44862240       5.69482433       3.96385924      -0.00416934       0.00576937      -0.00395300
C        6.22544055       7.85394277       3.98546702      -0.00395690      -0.00167528      -0.00038000
C        4.95501020       9.96375078       3.80360164       0.00161070      -0.00556695      -0.00316634
Tl       1.88369506       5.29974027       5.85509005       0.00701639      -0.00509921       0.00492710
