49
Lattice="12.336457 0.0 0.0 -6.168228499999997 10.683685154694365 0.0 0.0 0.0 15.0" Properties=species:S:1:pos:R:3:forces:R:3 energy=-430.0365432447961 free_energy=-430.0365432447961 stress="-0.002367167284390605 0.003478232197471413 3.1752869592586133e-06 0.003478232197471413 0.002041255851026325 5.700475595672167e-06 3.1752869592586133e-06 5.700475595672167e-06 1.8198762370267038e-07" pbc="T T T"
C       -0.00095102       0.01291606       3.76542407       0.00239386       0.00460614      -0.00042937
C       -1.22773286       2.14324043       3.70075883      -0.00253077      -0.00337512       0.00123006
C       -2.45699463       4.27515506       3.60331242      -0.00204152       0.00778004       0.00666808
C       -3.70735924       6.41161742       3.61958844      -0.00175073      -0.00602801       0.00171728
C       -4.95081134       8.55176792       3.71669367      -0.00812478       0.00827242       0.00659278
C        2.46611639       0.04262471       3.74990821       0.00714910      -0.00689357      -0.00418031
C        1.24123438       2.22126520       3.90890238      -0.00110826      -0.00621354      -0.00179984
C        0.02567693       4.30532900       3.80399586       0.00212225       0.00707268      -0.00266375
C       -1.24364222       6.42668556       3.65608990      -0.00402689       0.00128077      -0.00250591
C       -2.48546574       8.55752898       3.66693007      -0.00232535      -0.00203437      -0.00847562
C        4.92747319      -0.00207025       3.65846806       0.00720502       0.00934670       0.00722439
C        3.74648939       2.12692820       3.71306137      -0.00665835      -0.00369307      -0.00941057
O        1.14817251       6.46358475       3.71021078       0.00580129       0.00686651      -0.00222885
C       -0.02270618       8.54324912       3.68107105      -0.00076891      -0.01145148       0.00359882
C        7.40432068      -0.02250408       3.65226346      -0.01208116      -0.00768256      -0.00765714
C        6.19240002       2.10864069       3.57642777       0.00498543       0.00212301      -0.00270045
C        4.99082987       4.20080881       3.64838116       0.00184539      -0.00302973      -0.00494151
B        3.78109522       6.38790732       4.14423800      -0.00817921      -0.00375787       0.00220050
C        2.42681836       8.50993146       3.79843995       0.00551715       0.01129082      -0.00235675
C        9.86365186      -0.01463047       3.71375522      -0.00110253      -0.00653288       0.00247905
C        8.64859783       2.12463555       3.59901310      -0.00070363       0.00360507      -0.01008489
C        7.42106104       4.26476330       3.56509794      -0.00105885      -0.00600340       0.00035546
C        6.15937497       6.38345018       3.70438727       0.01053030      -0.00071322       0.00278188
C        4.91662212       8.53132255       3.81535786      -0.00213174       0.00259067       0.00455655
C        0.00690420       1.44480762       3.78572324       0.00042009       0.00223763       0.00800904
C       -1.23038860       3.57042569       3.67209967      -0.00369082       0.00097708       0.00424265
C       -2.47415489       5.69975016       3.61732186      -0.00073710       0.00152544      -0.00098972
C       -3.72055442       7.84070833       3.66434706      -0.00955946       0.00049273       0.00403668
C       -4.93757878       9.98560781       3.75367343       0.00084429       0.00858277       0.00432847
C        2.49463371       1.47904794       3.81030393      -0.00465656      -0.01153153      -0.00059519
C        1.14485202       3.57901798       4.13361084       0.00223259       0.00502173       0.00835920
C       -0.03719620       5.73879838       3.72892017       0.00481257       0.01226802       0.00414860
C       -1.26041552       7.84945390       3.65872942      -0.00355970      -0.00633807      -0.00399173
C       -2.48239965       9.99305792       3.69230172       0.01234656       0.00091603      -0.00235773
C        4.95005967       1.41782594       3.63426171       0.00240105       0.00822152       0.00923194
O        3.80311606       3.50160841       3.67927218      -0.00013689       0.00136913      -0.01084270
C        1.18212547       7.83782975       3.74065026       0.00840013       0.00677111      -0.00581391
C       -0.00287059       9.96601113       3.65942138      -0.00674300      -0.01331689       0.00421781
C        7.41380197       1.40679204       3.59731480      -0.00003908      -0.00337416      -0.00523122
C        6.19924956       3.52440913       3.55821209       0.00402534      -0.00246406      -0.01154036
C        4.95072516       5.60980476       3.77042893       0.00687285       0.00253427      -0.00189007
C        3.66756163       7.81763773       3.90784851      -0.00150680       0.00482339       0.00445805
C        2.45407006       9.94289582       3.71334465      -0.00676338       0.00329129       0.00219276
C        9.87225822       1.41198645       3.66067031      -0.00426574      -0.00738909      -0.00321042
C        8.64811875       3.55222328       3.57220675      -0.00094961       0.00694291       0.00234788
C        7.40148152       5.68856822       3.60936522       0.00698885      -0.01229606       0.00848160
C        6.14541705       7.81411554       3.75586300      -0.00152190       0.00200003       0.00522626
C        4.93203395       9.96749455       3.76116288       0.00426080      -0.00072693       0.00140529
Tl       2.49227145       4.98452321       5.64588875      -0.00243221      -0.00796428      -0.00419306
