49
Lattice="12.336457 0.0 0.0 -6.168228499999997 10.683685154694365 0.0 0.0 0.0 15.0" Properties=species:S:1:pos:R:3:forces:R:3 energy=-431.02118177078324 free_energy=-431.02118177078324 stress="0.015246231022149325 -0.0009073936593353968 -1.629500208899167e-05 -0.0009073936593353968 0.0040758641134361175 -1.14356939821713e-05 -1.629500208899167e-05 -1.14356939821713e-05 -4.0445344971614086e-07" pbc="T T T"
C        0.00345907      -0.01804970       3.70158545       0.00075106      -0.00384400       0.00454886
C       -1.22095502       2.14599992       3.68514980      -0.00349677       0.00238249      -0.00200460
C       -2.44953599       4.28248245       3.66022547      -0.00008122       0.00516847       0.00032779
C       -3.69812101       6.39302809       3.66888372       0.00277921      -0.00478187       0.00574580
C       -4.94109100       8.51626476       3.68892427      -0.00119165      -0.00617091       0.00643122
C        2.47190182       0.00277342       3.72037332       0.00184762       0.00823708       0.00574488
C        1.21133014       2.11294510       3.74016296      -0.00132724       0.00316259       0.00267496
C        0.03471261       4.23930733       3.67649618      -0.00182838      -0.00285726       0.01307567
C       -1.11876400       6.36313475       3.66963041      -0.00157793       0.00548761      -0.00255962
C       -2.44387655       8.51277650       3.69981297      -0.00188256      -0.00499681       0.00250732
C        4.93570027      -0.01101896       3.72710325      -0.00351368      -0.00459585       0.00227042
C        3.72036074       2.12236823       3.76660153       0.00357283      -0.00390106       0.00616533
B        1.62338816       6.37478707       3.71054186       0.01396273       0.00283826      -0.00894939
C        0.03658523       8.52995583       3.73216303       0.00109613       0.00523987       0.00134557
C        7.39529587       0.03295934       3.73834342       0.00295756      -0.01116273      -0.00277405
C        6.14806001       2.15902632       3.71431537      -0.00223470       0.00625226      -0.00044502
C        4.88539790       4.25868505       3.71675283      -0.00968879      -0.00363857       0.01436335
C        3.43630625       6.40766729       3.67924784       0.00909238       0.00804337      -0.00805724
C        2.47533440       8.60967346       3.73922124      -0.00729526      -0.00311091      -0.00121235
C        9.87813790       0.02558932       3.72314027       0.00209635      -0.00236338      -0.01238653
C        8.63345676       2.16420949       3.70442961      -0.00553863      -0.00741710      -0.00976675
C        7.37368091       4.28875932       3.67507615       0.00999143       0.00526708       0.00318673
C        6.06354531       6.37510468       3.67213383       0.00579016       0.00185233      -0.00685833
C        4.91636963       8.52694517       3.69725547      -0.01221705       0.00277059       0.00095521
C        0.01130558       1.41815341       3.69967752      -0.00217846       0.00010878       0.00441450
C       -1.20569144       3.56319712       3.65633590      -0.00521783       0.00171070      -0.00018433
C       -2.41842816       5.69398524       3.66183612       0.00021974       0.00432676       0.00250293
C       -3.69436623       7.81155317       3.68317252      -0.00073426      -0.00955323       0.00745709
C       -4.93008572       9.95229080       3.70437677       0.00429683      -0.00011029      -0.00353315
C        2.46866600       1.45456337       3.74470145       0.00219744       0.00960138       0.00448199
O        1.18491954       3.48718674       3.82473011       0.00255680       0.00337308      -0.00278274
C        0.18498014       5.64789702       3.66170392      -0.00088009      -0.00329362       0.00085197
C       -1.18985261       7.79541308       3.70105707       0.00205202       0.00614286      -0.00247679
C       -2.46214486       9.95276522       3.71816238      -0.00533846      -0.00253791      -0.00041330
C        4.91997297       1.42917666       3.72991645       0.00418392      -0.00431003       0.00538065
O        3.74997775       3.49797984       3.86203855      -0.01244285      -0.00520897      -0.00456107
C        1.29133059       7.86456775       3.74707041      -0.00463737      -0.00365271       0.00162567
C        0.00869582       9.97386823       3.73458560      -0.00046076       0.00056718       0.00971130
C        7.38495239       1.45930820       3.72084942      -0.00724837      -0.00855363      -0.00713616
C        6.12240438       3.58087819       3.69073156      -0.00022970       0.01078008       0.00517095
C        4.74006301       5.67607224       3.67464251       0.00720895      -0.00219365       0.00432895
C        3.66335006       7.82721369       3.70709111      -0.00622323       0.00587159      -0.00230634
C        2.47016462      10.02634488       3.74085673       0.00465259      -0.00858302      -0.01006593
C        9.88128822       1.45043591       3.70709905      -0.00235238      -0.00296333      -0.01747360
C        8.62948831       3.58438894       3.67846824       0.00504778      -0.00315187      -0.00536655
C        7.35120535       5.70061747       3.66973318       0.00863692       0.00248763      -0.00662021
C        6.13872431       7.80098515       3.68371185      -0.00895405       0.00170095      -0.00532786
C        4.93078228       9.96176325       3.70646255      -0.00172074      -0.00134864       0.00728828
Tl       2.27501164       5.15256930       5.93813833       0.01550195       0.01092835       0.00070453
