49
Lattice="12.336457 0.0 0.0 -6.168228499999997 10.683685154694365 0.0 0.0 0.0 15.0" Properties=species:S:1:pos:R:3:forces:R:3 energy=-421.79816995822557 free_energy=-421.79816995822557 stress="0.0003498654427931517 -0.0013831866668623564 -8.66854106651684e-06 -0.0013831866668623564 -0.011452084729146352 -2.112030138814111e-05 -8.66854106651684e-06 -2.112030138814111e-05 1.1548042922465656e-06" pbc="T T T"
C       -0.00407160      -0.03402415       3.95074750       0.00244646       0.00099476       0.00290866
C       -1.24610129       2.12123975       4.08791852      -0.00057335      -0.00415326       0.00140383
C       -2.48926412       4.25308262       3.86117397       0.00247684       0.00437367      -0.00051980
C       -3.71373150       6.37167882       3.67207249       0.00445068       0.00687796       0.00715989
C       -4.94677422       8.49401739       3.75910585       0.00728975      -0.00322636      -0.00624770
C        2.46685265      -0.09502757       3.82589806      -0.00811004       0.00021669       0.00595444
C        1.25948365       2.03027242       4.18123059      -0.00743713      -0.01629147       0.00250371
C       -0.04538963       4.27710306       4.15362427       0.00446645       0.00139132       0.00547020
C       -1.21192620       6.36542903       3.63873372       0.00103104       0.00191710      -0.01116009
C       -2.45374970       8.48063929       3.63346368       0.00032890      -0.00311910       0.01317588
C        4.92636530      -0.04977548       3.62150119       0.00161266      -0.00461465       0.00115286
C        3.65505341       2.00501289       3.52870685       0.00504919       0.00760720       0.00026119
S        1.60498559       6.20342369       3.18096215      -0.00262682      -0.00139324      -0.00975033
C        0.01550037       8.51451598       3.50936858      -0.00689254      -0.00726641      -0.00015417
C        7.37621803       0.01827402       3.65375265       0.00399513       0.00406014       0.00261520
C        6.13173895       2.12557140       3.52742621       0.00185613       0.00671578      -0.00623918
C        4.94768901       4.27817085       3.26805357      -0.00349094      -0.01044022       0.00035320
B        3.56773348       6.44763231       3.51639788      -0.00649852      -0.00474781       0.00238961
C        2.46980625       8.63364158       3.55909934      -0.01231305      -0.00052789      -0.00121793
C        9.86658217       0.02574222       3.83909762       0.00497235      -0.00102149      -0.00607450
C        8.61085465       2.13751156       3.79712183       0.00201154      -0.00880857      -0.00144656
C        7.37614663       4.25472835       3.61365014       0.00252999       0.00298604       0.01355546
C        6.13049165       6.38436608       3.60017390       0.00072520      -0.00026780      -0.00659037
C        4.92791982       8.55299186       3.73125372       0.00084529       0.01420594       0.00054248
C       -0.00326634       1.39013220       4.10698128      -0.00599970      -0.00980309       0.01042403
C       -1.26558901       3.53967891       4.07059105       0.00627263      -0.00292571       0.00003160
C       -2.47205102       5.66567081       3.72204886       0.00168535       0.00860383       0.00070593
C       -3.70509195       7.78631293       3.68285497       0.00642330      -0.00015860       0.00355976
C       -4.94660227       9.90814705       3.86550512      -0.00523929      -0.00396469      -0.00431236
C        2.46303669       1.31785132       3.88777545      -0.00005188       0.00575618       0.00185240
P        1.42624843       3.63026115       4.87574625       0.00067840       0.01203053      -0.00986711
C       -0.01566651       5.61355042       3.74196263      -0.00647145      -0.00105968      -0.00166626
C       -1.21439925       7.78193182       3.55661983      -0.00310597      -0.00222034       0.00226427
C       -2.46401866       9.90155174       3.67957100      -0.00510871      -0.00460020       0.01681551
C        4.91254409       1.38297559       3.55263085       0.00430356       0.00479036      -0.01580379
S        3.46273697       3.53930201       2.77358448      -0.00729983      -0.01240914      -0.00537195
C        1.27837409       7.90645812       3.42694504      -0.01021892      -0.00315766       0.00913847
C       -0.00289133       9.95139812       3.58878815       0.00545530      -0.00373201      -0.00610946
C        7.36754087       1.43795835       3.66767826      -0.00114623       0.00341956      -0.00067336
C        6.13808159       3.53929709       3.45869838       0.00124423       0.00408879       0.00643080
C        4.88539122       5.67370792       3.44363027       0.00087557      -0.01154980      -0.00751537
C        3.67743949       7.91835551       3.60239207      -0.00323975       0.00923854      -0.00944032
C        2.45609750      10.03836259       3.69089743       0.00092674       0.00344295       0.00163442
C        9.85609498       1.43529680       3.92781136       0.00366164      -0.00716739      -0.00847616
C        8.60932109       3.55057731       3.76684487       0.00232424      -0.00618726       0.00429890
C        7.37628713       5.67203436       3.63093052       0.00600920       0.00506266       0.00390823
C        6.14858828       7.80308904       3.71400890       0.00406802       0.00590565      -0.01059281
C        4.92940372       9.97847545       3.85161093       0.00447561       0.01094541       0.01285505
Tl       2.75737013       6.01995457       5.95807732       0.00133274       0.01018281      -0.00413643
