49
Lattice="12.336457 0.0 0.0 -6.168228499999997 10.683685154694365 0.0 0.0 0.0 15.0" Properties=species:S:1:pos:R:3:forces:R:3 energy=-424.8061625082227 free_energy=-424.8061625082227 stress="-0.004538512483287423 -0.0042544423329178216 -1.2885495269672585e-05 -0.0042544423329178216 -0.003819371398902662 -9.307391272233205e-06 -1.2885495269672585e-05 -9.307391272233205e-06 -6.095686285676917e-07" pbc="T T T"
C        0.00588028      -0.01041836       3.71146586      -0.00112164      -0.00582085       0.00688073
C       -1.25432580       2.11532635       3.46566111      -0.01152789      -0.00105931      -0.00502056
C       -2.48325730       4.26723661       3.67021835      -0.00249103       0.00296669      -0.00875179
C       -3.68031803       6.41017785       3.93768477      -0.00370901      -0.00561340      -0.00744532
C       -4.90864984       8.55132440       3.97189698       0.00259203       0.01009380       0.00243651
C        2.47994117      -0.04393845       3.67968706      -0.00085778       0.00386707       0.00698530
C        1.22177625       2.00714946       3.11513157      -0.00884735      -0.00500009      -0.00349407
C       -0.09581050       4.28625147       3.16260855       0.00314486      -0.00050824       0.00201313
C       -1.23297380       6.40373470       3.74835320       0.00148560      -0.00229512      -0.00580409
C       -2.43680008       8.53656921       3.90920994      -0.00291863       0.00704415      -0.00077650
C        4.94761734      -0.00524933       3.77802611       0.00840888       0.00475543      -0.00613475
C        3.68795449       2.06080443       3.35691285      -0.00579062       0.00171622      -0.00323820
B        1.15495059       6.40079095       3.91757331      -0.00686978      -0.00367582       0.00323914
C        0.02928342       8.54002331       3.92943799       0.00599307      -0.00623536      -0.00247989
C        7.41180294       0.00648366       3.86443780       0.00257895       0.00674131       0.01142190
C        6.15377692       2.16150260       3.70865444      -0.00805720       0.00973994       0.00442637
C        4.96054412       4.40410292       3.67640896       0.01723088       0.00595096       0.00750564
O        3.79929434       6.49403391       4.04787207      -0.01253407       0.00082889      -0.01003843
C        2.52317896       8.54620531       4.00931932       0.00044767      -0.01141111       0.00864671
C        9.87812939       0.00459913       3.83483670      -0.00521078      -0.01097298      -0.01420983
C        8.62772998       2.13920288       3.74795124      -0.00892996       0.00295807       0.00997943
C        7.39780093       4.28861171       3.85242938       0.01025387      -0.00911247      -0.00006213
C        6.20672620       6.45017386       4.05467146       0.00412480       0.00255147       0.00298587
C        4.96904545       8.56751975       4.03067810       0.00618918       0.00380262       0.00002693
C       -0.01568169       1.38746275       3.41326364      -0.00709364      -0.00660137       0.00972809
C       -1.27337971       3.54226691       3.40311823      -0.00172070       0.00489413       0.00133334
C       -2.46564429       5.69168343       3.78987754      -0.00147751       0.00031309      -0.01444381
C       -3.67026615       7.83382397       3.95995192      -0.00300577       0.00151577      -0.00045081
C       -4.92324852       9.96070134       3.80095510       0.00165656       0.00633735       0.01494908
C        2.46144291       1.33667946       3.36967343      -0.00323121      -0.00225961      -0.00383998
P        1.27195753       3.57295838       2.28656816       0.00430425       0.00123482      -0.01157890
C       -0.03909814       5.67182168       3.49889150       0.00435421      -0.00673737       0.01443973
C       -1.19826252       7.81867263       3.88826639       0.00005891       0.00055334      -0.01178057
C       -2.44538628       9.95324714       3.81244093       0.00258843       0.00870927      -0.00971463
C        4.93584922       1.42110683       3.62309582      -0.00259537       0.00656663      -0.00006888
P        3.50960402       3.74909756       2.95540450       0.00102697      -0.00835506       0.00768245
C        1.28378046       7.83923193       3.98750574       0.00294166      -0.01371806      -0.00772728
C        0.01190513       9.97318194       3.88005361       0.00928987      -0.00064942       0.00155554
C        7.39180141       1.43627396       3.78920285      -0.01125386       0.01080385      -0.01014171
C        6.15502730       3.60009114       3.74768684       0.00977518       0.00336431       0.00560759
C        5.00052327       5.79009409       3.93215446      -0.00232624       0.00717969      -0.00195919
C        3.76431525       7.87281627       4.04674403       0.00327706       0.00412118       0.00978672
C        2.49061770       9.97550330       3.92246917      -0.00240124      -0.01192366       0.00698609
C        9.86476411       1.42513977       3.68955316      -0.01205730      -0.00427922       0.00017915
C        8.62661930       3.56351519       3.76460100       0.00358112      -0.00189437       0.00325600
C        7.42386580       5.70591010       3.96460622       0.00212800      -0.01257801       0.00721857
C        6.20520190       7.86312392       4.05783898       0.00694545       0.00642651      -0.00600019
C        4.94622708       9.98342837       3.87636325       0.00149896      -0.00238072      -0.00086117
Tl       2.20156084       4.62849873       5.31330596       0.01015216       0.00804507      -0.00324733
