49
Lattice="12.336457 0.0 0.0 -6.168228499999997 10.683685154694365 0.0 0.0 0.0 15.0" Properties=species:S:1:pos:R:3:forces:R:3 energy=-433.2849777849507 free_energy=-433.2849777849507 stress="0.02654993754043734 -2.844595128785045e-06 -1.0372387598703898e-06 -2.844595128785045e-06 -0.001937316671501933 3.1853436443499937e-06 -1.0372387598703898e-06 3.1853436443499937e-06 2.6294231742976395e-06" pbc="T T T"
C        0.00208826      -0.01909396       3.74303420       0.00034895       0.00095689       0.00048665
C       -1.17876410       2.17907201       3.70077475      -0.00336472      -0.00312902       0.00342885
C       -2.38603797       4.27906134       3.65873990       0.00103266       0.00317848      -0.00040712
C       -3.69334461       6.36522203       3.66777179      -0.00438894       0.00969863       0.00466018
C       -4.96118626       8.47707713       3.72289973       0.00007473       0.00023973       0.00204716
C        2.46360485      -0.11260223       3.75361247      -0.00002969      -0.00994740       0.01204348
C        1.28092674       2.07962610       3.72224655      -0.00119653       0.00873714       0.00126860
C        0.25340447       4.26527963       3.65804243       0.00323248      -0.00207183       0.00264710
C       -1.09148539       6.36951261       3.66707952       0.00310958       0.00252545      -0.00403246
C       -2.44374193       8.47475124       3.71773733      -0.00028303      -0.00254657      -0.00672402
C        4.92740510      -0.02607696       3.74873755       0.00111986      -0.00020689       0.00127745
C        3.63550483       2.05602110       3.75938900       0.00231429       0.00146334       0.00198339
C        1.53583874       6.46712798       3.67650294      -0.00208920      -0.00364936       0.00442847
C        0.02741970       8.54972150       3.71956224      -0.00482002      -0.00582632       0.00438742
C        7.38471939       0.07052118       3.74458333      -0.00837556      -0.00231776      -0.00407745
C        6.11364911       2.17491883       3.71222903       0.00658072       0.00373747      -0.00147792
C        4.70880920       4.27449490       3.65125677      -0.00819953      -0.00013421      -0.00789873
B        3.27367127       6.42765664       3.70408662       0.00766045      -0.01197470      -0.00108012
C        2.45962609       8.67130557       3.75857946       0.00293368       0.00605810       0.00090836
C        9.88262790       0.07314172       3.74898239       0.00008273       0.01132719       0.00485270
C        8.63565589       2.19171019       3.70242912       0.00152257      -0.00852774      -0.00138352
C        7.34095671       4.27984024       3.65506480      -0.00612008      -0.00703351       0.00228910
C        6.04119506       6.37303255       3.66631327      -0.00496454      -0.00302674      -0.00769115
C        4.89650128       8.55133218       3.75320574       0.00256846       0.00258993      -0.00972986
C        0.02696928       1.41645963       3.72254697       0.00018685       0.00200212      -0.00428915
C       -1.09137177       3.59651807       3.66624197      -0.00235865      -0.00489192       0.00633123
C       -2.38598137       5.68651118       3.65868843       0.00044983       0.00943062       0.00289454
C       -3.70046699       7.77448796       3.70192866      -0.00135690       0.00775810       0.00301391
C       -4.95201148       9.89591173       3.74365328      -0.00231447      -0.00492532       0.00267759
C        2.45973401       1.29449279       3.75602780      -0.00213393      -0.00160434       0.00305457
C        1.53554192       3.49852539       3.67809072       0.00661639       0.01125007       0.00523832
C        0.25318824       5.70074910       3.65785601       0.00780441      -0.00213618       0.00147309
C       -1.17846405       7.78716986       3.69983240      -0.00417173      -0.00340494       0.00242529
C       -2.45382689       9.89269373       3.74566056       0.00334155      -0.00662230       0.00030036
C        4.89613409       1.41455785       3.74725272       0.00823202       0.00380386      -0.00183917
B        3.27329999       3.53887767       3.70546090       0.01114064       0.00534782      -0.00819514
C        1.28106158       7.88596533       3.72124781       0.00034976       0.00233339       0.00081980
C        0.00253502       9.98538563       3.74001039      -0.00720303      -0.00610695       0.00318470
C        7.37500278       1.48930143       3.72193501       0.00189607      -0.00508676      -0.00166677
C        6.04136070       3.59330380       3.66390206      -0.01262625       0.00171200      -0.00390823
C        4.70866874       5.69169579       3.65136472       0.00375201       0.00042499      -0.00708159
C        3.63566622       7.91027970       3.76174479       0.00168383      -0.00605242       0.00829939
C        2.46360726      10.07852322       3.75777369      -0.00093020       0.01285087       0.00467177
C        9.89242388       1.49122503       3.71843780       0.00081890       0.00346032       0.00086536
C        8.64277967       3.60096387       3.66803380       0.00144216      -0.00920129      -0.00154599
C        7.34095655       5.68695673       3.65602120      -0.00467886      -0.00519439      -0.00235431
C        6.11402326       7.79117198       3.71732470       0.00207888      -0.00014909      -0.01262485
C        4.92740570       9.99184308       3.75386773      -0.00120139       0.00811144      -0.00088541
Tl       2.66011263       4.99232508       5.92695449       0.00043279      -0.00323001      -0.00306590
