49
Lattice="12.336457 0.0 0.0 -6.168228499999997 10.683685154694365 0.0 0.0 0.0 15.0" Properties=species:S:1:pos:R:3:forces:R:3 energy=-431.59999721377346 free_energy=-431.59999721377346 stress="0.015612169454891614 -0.0019125535364809326 -9.276482588727139e-06 -0.0019125535364809326 -0.004425419179192769 4.059466001373513e-06 -9.276482588727139e-06 4.059466001373513e-06 1.220312955169689e-06" pbc="T T T"
C       -0.01052733      -0.02591518       3.90066538       0.00460089       0.00458317      -0.00252083
C       -1.21155243       2.16336776       3.76112024       0.00090707       0.00883648      -0.00224614
C       -2.40632276       4.28446684       3.64634120      -0.00100320       0.00070958       0.00482159
C       -3.67729750       6.38631342       3.71723236      -0.00590164      -0.00171142       0.00785532
C       -4.94563938       8.50024307       3.86845455      -0.00703782      -0.01012546      -0.00545758
C        2.46543954      -0.08756976       3.84409651      -0.00516184       0.00010810      -0.00474613
C        1.23121356       2.06050815       3.71848657      -0.00314191      -0.00018356      -0.00516884
C        0.15090699       4.26320611       3.58471575       0.00226994      -0.00371417       0.00015435
C       -1.10405279       6.38225739       3.67991226      -0.00195848      -0.00283177       0.00530268
C       -2.43904241       8.49594779       3.79514747       0.00657430       0.00081876      -0.00432406
C        4.93187091      -0.01338853       3.72322390      -0.00083251      -0.00470594      -0.00818193
C        3.62820163       2.05078276       3.52763901       0.00605112       0.00458780      -0.00077750
C        1.51234367       6.44819210       3.68016437      -0.00916815       0.00019526       0.00838405
C        0.02985976       8.54752104       3.75626895       0.00668053       0.00011198      -0.00136575
C        7.38555470       0.05840133       3.75691012      -0.00763389      -0.00689183       0.00227010
C        6.13056046       2.16760009       3.57817760       0.00614940       0.00103516       0.00888797
C        4.87216292       4.33107623       3.46250940      -0.00212541       0.00691886       0.00057629
B        3.32439538       6.42360631       3.73660114       0.00714453       0.00432920       0.00785957
C        2.46068231       8.65156316       3.84117453       0.00042895       0.00811970       0.00236394
C        9.87041001       0.05694390       3.85943022       0.00494802       0.00024956      -0.00410700
C        8.63074037       2.18125951       3.69620445       0.00317302      -0.00487873      -0.00900783
C        7.38475405       4.29169024       3.60402204      -0.00132083       0.00103956       0.00659005
C        6.09174306       6.40351207       3.73274709      -0.00030585      -0.00100773       0.00170537
C        4.90564919       8.55108512       3.89421749      -0.00642868      -0.00138967       0.00165409
C       -0.00963886       1.39818575       3.82580407      -0.00230853       0.00826736       0.00249121
C       -1.14764979       3.58390778       3.65681730       0.00088849       0.00517608      -0.00648060
C       -2.38949544       5.69786791       3.66883251      -0.00573920      -0.00107237       0.01012321
C       -3.68837567       7.79661632       3.80329720       0.00093043      -0.00123604      -0.00103768
C       -4.94769103       9.91388496       3.90000888      -0.00293532      -0.00728807      -0.00459272
C        2.44584093       1.31373829       3.72830500      -0.00000676       0.00230482      -0.01082650
C        1.34520843       3.45046467       3.51912957      -0.00294753      -0.00217941       0.00271499
C        0.21857466       5.70475194       3.63444084       0.00262541      -0.00350720       0.00287734
C       -1.18050110       7.80000471       3.74419021       0.00873482      -0.00129798      -0.01217840
C       -2.45110766       9.91450114       3.80117720      -0.00284218       0.00084858      -0.00480739
C        4.90404088       1.41913902       3.60170686       0.00770443      -0.00480525      -0.00566708
P        3.20962134       3.68925151       3.04726969      -0.00687840       0.00010250      -0.00306026
C        1.28171821       7.86678880       3.76218150       0.00476990       0.00789922      -0.00100247
C        0.00424848       9.98352591       3.74957294      -0.00403962      -0.00724727       0.00085863
C        7.37697524       1.47669467       3.67795077       0.00147068      -0.00638061       0.00377958
C        6.11803045       3.59374239       3.52628824      -0.00265142       0.00681269       0.00187032
C        4.78640150       5.73290222       3.64398272       0.00589413       0.00464051       0.00659051
C        3.64574804       7.90328652       3.86108679      -0.00595063       0.00204599       0.00645263
C        2.45793991      10.06023705       3.83866952      -0.00176506       0.00471328      -0.00082735
C        9.87301760       1.47431826       3.78277274       0.00533834      -0.00006144      -0.00551815
C        8.65037521       3.59584095       3.64027139       0.00008678      -0.00293179       0.00066436
C        7.37671888       5.70403278       3.68087201      -0.00289570      -0.00053437       0.00147274
C        6.13794941       7.81437605       3.84853425      -0.00975217      -0.00530701       0.00547260
C        4.91929021       9.98315134       3.90731245       0.00693159      -0.00036709      -0.00098252
Tl       2.72809960       4.73466725       5.73878228       0.00842995      -0.00279804       0.00109122
