49
Lattice="12.336457 0.0 0.0 -6.168228499999997 10.683685154694365 0.0 0.0 0.0 15.0" Properties=species:S:1:pos:R:3:forces:R:3 energy=-433.323188401099 free_energy=-433.323188401099 stress="0.02657412075185524 0.0013194113143665004 1.2456460818433578e-06 0.0013194113143665004 -0.0021170791218792324 -1.7547887642289407e-06 1.2456460818433578e-06 -1.7547887642289407e-06 4.07881160149452e-06" pbc="T T T"
C        0.00477673      -0.02499446       3.76587671      -0.01081875      -0.00532048       0.00253338
C       -1.17269567       2.18188594       3.72445343       0.00511989       0.01174166       0.00677774
C       -2.39435051       4.28433827       3.66209019      -0.00622664       0.00653471      -0.00178031
C       -3.70558521       6.36481519       3.66777709      -0.00819245       0.00854508       0.00349880
C       -4.96719942       8.47150849       3.72695098       0.00354010       0.00158414       0.00501003
C        2.46591275      -0.11351725       3.75367477      -0.00153717      -0.00853414       0.00709054
C        1.29983752       2.05760299       3.76390375       0.00039790      -0.00048465       0.00905194
C        0.23974724       4.28713886       3.67135427      -0.01465458      -0.00208771      -0.00381498
C       -1.10636211       6.38063376       3.65535971       0.00298420       0.00294884      -0.00161633
C       -2.44878661       8.47936972       3.71160504      -0.01421141      -0.00669910      -0.00620096
C        4.92911113      -0.02022882       3.73015361       0.00500894      -0.00838893      -0.00768469
C        3.65325381       2.07671668       3.71573204       0.00291153       0.00577928      -0.00550291
C        1.53345826       6.47191788       3.67003985       0.01131948       0.00040466      -0.00573541
C        0.02526701       8.55484891       3.71409770      -0.01206654      -0.00010653      -0.00620576
C        7.38762546       0.07110380       3.73807085       0.00807769       0.00120187      -0.01784794
C        6.11895251       2.17179926       3.68928520       0.00527402       0.00541480      -0.00215605
C        4.69444762       4.25668752       3.64493042      -0.00062279      -0.00526707      -0.00135881
B        3.27202086       6.42076005       3.71010223       0.00270910      -0.01144866       0.00688660
C        2.46073366       8.67268976       3.75321154      -0.00255809       0.00364805       0.01244869
C        9.88606769       0.07438874       3.75599432       0.00258507       0.00717010       0.00834931
C        8.63999517       2.19274662       3.70064044       0.00717962      -0.01799356       0.00376901
C        7.33130833       4.27478728       3.65251994       0.01119724       0.00032860       0.00372808
C        6.02530011       6.36095004       3.67781197      -0.01236757      -0.00468022       0.00032841
C        4.89312762       8.54770677       3.75856810       0.00924551       0.00041317      -0.00584283
C        0.04000734       1.41815898       3.75992631      -0.00177941      -0.00110262      -0.00844214
C       -1.09061255       3.60487243       3.68037327      -0.00459916       0.01213535       0.00439605
C       -2.39746353       5.69108835       3.65578621      -0.00513781       0.01141906      -0.00522077
C       -3.70616712       7.77409065       3.70047675      -0.00874575       0.00456945       0.00622557
C       -4.95242872       9.89144137       3.75458486      -0.00857730      -0.00078041       0.00712071
C        2.47258242       1.29370630       3.75411485       0.00325743      -0.00230991       0.01026357
B        1.66099238       3.54527031       3.71463086       0.00927415       0.01519101      -0.00446006
C        0.23896798       5.71014452       3.64747553       0.00418165      -0.00467472      -0.00126649
C       -1.18509116       7.79477142       3.69231848      -0.01548675      -0.00059158      -0.00579507
C       -2.45442606       9.89602251       3.73560158      -0.00126933      -0.01124684      -0.00383224
C        4.90830501       1.41218576       3.71219877       0.00527401      -0.00007127      -0.00427440
C        3.39947492       3.49478597       3.67075991      -0.00400480       0.00024987      -0.00627901
C        1.28009215       7.89002621       3.71525268      -0.00649368      -0.00553456      -0.00160094
C        0.00376747       9.98755511       3.73155900       0.00801511       0.00123900      -0.00891115
C        7.38278200       1.48767137       3.71019541       0.00113665      -0.00282968       0.00348459
C        6.03969178       3.58569349       3.65190995       0.00681937       0.00479234      -0.00027217
C        4.69471599       5.67962993       3.66697229      -0.00677889      -0.00963876       0.00363814
C        3.63324829       7.90829000       3.76169293       0.00428257       0.00793316       0.00658384
C        2.46727360      10.07990594       3.75483462       0.00619325       0.01013575       0.01000536
C        9.90022208       1.49442665       3.72875193       0.01438564       0.00151869       0.00110042
C        8.63978968       3.60176610       3.66718276       0.00648910      -0.01665045       0.00235960
C        7.32895137       5.68147709       3.66021371      -0.00184852       0.00416813      -0.00083345
C        6.10585497       7.78380108       3.72273502       0.00944099      -0.00311775       0.00394089
C        4.92927287       9.99104475       3.76680471      -0.00669262      -0.00109902      -0.00705958
Tl       2.47162620       4.98506681       5.92416301      -0.00163021       0.00159183      -0.00459681
