49
Lattice="12.336457 0.0 0.0 -6.168228499999997 10.683685154694365 0.0 0.0 0.0 15.0" Properties=species:S:1:pos:R:3:forces:R:3 energy=-429.8878038190884 free_energy=-429.8878038190884 stress="-0.002270954779083436 0.0008363606497477196 -8.396319340362429e-06 0.0008363606497477196 0.0040269754301368 -1.2538857601880315e-05 -8.396319340362429e-06 -1.2538857601880315e-05 -2.314970250385617e-06" pbc="T T T"
C       -0.00356884       0.00856536       3.71294444      -0.00101076      -0.00030152      -0.00579049
C       -1.23866320       2.13749790       3.57002823       0.00418687      -0.00101936       0.00361963
C       -2.46017177       4.27738381       3.51609639      -0.00268535       0.00178732       0.00606934
C       -3.69656927       6.41467089       3.61309228      -0.00165585      -0.00851641      -0.00359218
C       -4.93995382       8.55732808       3.73069976      -0.00454078      -0.00054022      -0.00054913
C        2.44922714       0.04576694       3.74023466      -0.00791972       0.00907517      -0.00640267
C        1.19760010       2.16323413       3.69760046       0.00014895      -0.00294994       0.00129644
C       -0.02399116       4.28021554       3.50945457      -0.00284336       0.00057722      -0.00189756
C       -1.22841102       6.40371085       3.52646213       0.00269832       0.00149578       0.00301868
C       -2.47335531       8.55852257       3.63990476      -0.00491704      -0.00426742       0.00054189
C        4.92802890       0.00920326       3.70333756       0.00033159      -0.00277175      -0.00372677
C        3.69918973       2.18994813       3.92136126       0.00697032      -0.00010964      -0.00692494
O        1.16663224       6.42663817       3.63150429      -0.00229238       0.00628561      -0.01009614
C       -0.01288866       8.52853646       3.64097732       0.00883897       0.00159193       0.00423414
C        7.39743540      -0.02389555       3.65479711       0.00605304      -0.00946057      -0.00255247
C        6.18221998       2.11750823       3.69887228       0.00938586      -0.00390296       0.00211148
C        4.97698878       4.23249549       3.96249406       0.00245332      -0.00219786       0.00722487
B        3.78528395       6.41568916       4.29561202      -0.00376099       0.00540788       0.01040917
C        2.42729893       8.50194071       3.79946664      -0.00050222       0.00323951      -0.00843285
C        9.85739761      -0.02129438       3.67933256       0.00233364      -0.00744342       0.00265076
C        8.63804529       2.12137462       3.58037188      -0.00241362       0.00267314      -0.00146068
C        7.42480368       4.26288358       3.64181818      -0.00707513       0.00804245       0.00591133
C        6.19088339       6.40687982       3.82973729       0.00400916       0.00444038       0.00337404
C        4.92353831       8.53675084       3.85799904      -0.00578726      -0.00090804       0.00011888
C       -0.00628654       1.44066588       3.64958235       0.00199585      -0.00150655       0.00763338
C       -1.22614332       3.56933777       3.50653270      -0.00068849       0.00191085      -0.00242654
C       -2.46176830       5.69451730       3.53447046       0.00217779      -0.00132127       0.00624641
C       -3.70900433       7.84513277       3.65816228      -0.00693029      -0.00820565      -0.00400937
C       -4.94075449       9.99185688       3.73135170      -0.00484246       0.00325690      -0.01420479
C        2.43124375       1.47998457       3.80120997       0.00482355       0.00650624      -0.00649464
O        1.15767207       3.54505277       3.62634846      -0.00997456      -0.00892201      -0.00876240
C       -0.02424355       5.69244380       3.51621809       0.00019358       0.00289796      -0.00071948
C       -1.24763697       7.83336757       3.59123826       0.00664537       0.00227525       0.00406662
C       -2.48322909       9.99425260       3.70124507      -0.00876475       0.00085501       0.00620165
C        4.93530774       1.43142567       3.77194178       0.00742488      -0.00327949      -0.00104456
C        3.80844913       3.52895973       4.19589173      -0.00521522       0.00326263       0.01041652
C        1.19128450       7.80781627       3.70231032       0.00316593       0.00166735       0.00501395
C       -0.00559903       9.96095282       3.66615836       0.00573695      -0.00327202      -0.00632683
C        7.41103616       1.40315780       3.62845800       0.00491868      -0.00830039       0.00762555
C        6.20899363       3.53309484       3.73410118       0.00266227      -0.00040108       0.00662680
C        4.99960006       5.66627885       4.01133692       0.00432718       0.00373806       0.00045027
C        3.67417313       7.83194397       3.96926406      -0.00810517       0.00541852      -0.00583775
C        2.44907520       9.93648068       3.69746747       0.00249864      -0.00697886      -0.00795441
C        9.87306172       1.41276382       3.59519467       0.00008379      -0.00492839       0.00251712
C        8.64771488       3.55075749       3.56094619      -0.01000186       0.00881994      -0.00110760
C        7.42356772       5.69559613       3.68009318      -0.00134751       0.00187619       0.00325033
C        6.16376319       7.83409747       3.81796631      -0.00271608       0.00201699       0.00567991
C        4.92974224       9.96604159       3.74303419       0.00248172      -0.00582404      -0.00478389
Tl       2.51037343       4.98101546       5.70999668       0.00944466       0.00821058      -0.00121102
