49
Lattice="12.336457 0.0 0.0 -6.168228499999997 10.683685154694365 0.0 0.0 0.0 15.0" Properties=species:S:1:pos:R:3:forces:R:3 energy=-428.7845969229024 free_energy=-428.7845969229024 stress="0.0030484964460334926 0.005491847279959428 1.5427757130016604e-05 0.005491847279959428 -0.008624869287447195 -1.8845128735712184e-05 1.5427757130016604e-05 -1.8845128735712184e-05 7.754124690298885e-06" pbc="T T T"
C       -0.00213603      -0.02338184       3.76722349       0.00653842      -0.00153042      -0.00148498
C       -1.18448565       2.16453344       3.65885695       0.00024570       0.01042490       0.00185052
C       -2.44561087       4.28746536       3.64437801      -0.00436809      -0.00407993      -0.00155006
C       -3.72376418       6.38918228       3.69761030      -0.00504857      -0.00237069       0.00047083
C       -4.97766505       8.49643423       3.76742168       0.00298886      -0.00917061      -0.00172008
C        2.45432652      -0.07591749       3.91823285       0.00744184       0.01153211      -0.00523052
C        1.29571662       2.02872203       3.61939547      -0.00734523      -0.00591567       0.00451796
C        0.00883400       4.35241348       3.44712862       0.00766928      -0.01467731       0.00323280
C       -1.22051327       6.42937034       3.66535631      -0.00337335       0.00086973      -0.00054409
C       -2.49020222       8.51533504       3.89182600      -0.00122843       0.01293994       0.00450656
C        4.93285206      -0.02341689       4.01067708       0.00089061      -0.00386149      -0.00781147
C        3.70826368       2.07282449       3.80459412       0.00176280      -0.00739990       0.01067287
C        1.29923903       6.52182031       3.47509344       0.00118460      -0.00295279      -0.00748651
C       -0.02336581       8.56686958       3.91400364       0.00512687       0.01185214      -0.00325594
C        7.40576543       0.03142613       3.98190714      -0.01035377       0.00363745      -0.00100529
C        6.18050115       2.12679951       3.87620966      -0.00055093      -0.00566966       0.00051755
C        4.88520223       4.19073526       3.54170400       0.00337375      -0.00035699       0.01465347
P        3.21484242       6.28041571       3.06090913      -0.01099028      -0.00577817       0.00575458
C        2.44202798       8.63324756       3.79476295      -0.00144020      -0.00218206      -0.00353857
C        9.88918674       0.03754138       3.83215375      -0.01108344      -0.00240870      -0.00409088
C        8.66219338       2.15745095       3.81194276       0.00672760      -0.00398288       0.00024882
C        7.39381952       4.25949941       3.68481424       0.00395181       0.00515299      -0.00539048
C        6.09877474       6.36496338       3.56635948      -0.00119442      -0.00080944      -0.00454633
C        4.89659159       8.53625503       3.65532644       0.00225315      -0.00222019       0.00236796
C        0.02876216       1.41783422       3.67873871      -0.00456467       0.00387549       0.00348317
C       -1.17884381       3.59200934       3.57658235      -0.00290110       0.00179091      -0.00271455
C       -2.45940373       5.70408992       3.66367259      -0.00692385      -0.00423984       0.00139507
C       -3.73097918       7.80300167       3.78906974       0.00290763      -0.00374756       0.00175979
C       -4.95971674       9.91830857       3.83208129       0.01289283      -0.00440653      -0.00124836
C        2.47989965       1.32833891       3.82128153      -0.00495017       0.00732381       0.00096182
S        1.59087480       3.67144652       3.17024530       0.01319774       0.01132961       0.00466527
C        0.05485889       5.76591807       3.49833397       0.00021717      -0.01293489       0.00721739
C       -1.24682680       7.83447895       3.84204620       0.00046206       0.01299666      -0.00028977
C       -2.47228711       9.92447239       3.97440783       0.00351358       0.01235222       0.00144718
C        4.95375677       1.39132847       3.93991413      -0.00049875      -0.01056970       0.00724193
C        3.69613750       3.42115626       3.57030184       0.00622563      -0.00941929       0.00619011
C        1.21677677       7.89437933       3.76418490       0.00133718       0.00179281       0.00111334
C        0.00029727       9.97928424       4.00660294      -0.00090812       0.00671055      -0.00415107
C        7.42443847       1.44146317       3.91668607       0.00130340      -0.00001199       0.00084160
C        6.16450429       3.52976548       3.70385012       0.00654139      -0.00212241       0.00314452
C        4.87644598       5.61884988       3.44445754       0.00639894      -0.00401119      -0.00813480
C        3.62261997       7.90086110       3.57560712       0.00373323       0.00284541      -0.00179918
C        2.47489944      10.03313498       3.91365726      -0.01543339      -0.00239090      -0.00516705
C        9.91158596       1.46161819       3.78148757       0.00606663       0.00130692      -0.00044266
C        8.65175243       3.57225086       3.71851184       0.00174705      -0.00401384      -0.00441326
C        7.36872724       5.67746353       3.63960011      -0.00458953       0.00516989      -0.00451257
C        6.11687242       7.79607181       3.64385939      -0.00238486      -0.00442357      -0.00086589
C        4.92691510       9.96904286       3.75924011      -0.00314947       0.00239129      -0.00443032
Tl       2.66493156       5.21139174       5.64241159      -0.01341917       0.01136378      -0.00243039
