49
Lattice="12.336457 0.0 0.0 -6.168228499999997 10.683685154694365 0.0 0.0 0.0 15.0" Properties=species:S:1:pos:R:3:forces:R:3 energy=-434.03905788271874 free_energy=-434.03905788271874 stress="-0.0051097343877265135 -0.0017238733230336943 3.685672301625548e-06 -0.0017238733230336943 0.0024178230932937004 -5.870223447313947e-07 3.685672301625548e-06 -5.870223447313947e-07 -3.0027128394964767e-06" pbc="T T T"
C        0.00364573       0.00342197       3.66532553       0.00650014      -0.00484199      -0.00707120
C       -1.25438075       2.11602143       3.62625140      -0.00471872      -0.00144004      -0.00079556
C       -2.47734021       4.27066779       3.58243111      -0.00783766      -0.00806078      -0.01137586
C       -3.69443332       6.41952168       3.56626994       0.00671210       0.01172088      -0.00137394
C       -4.91816709       8.56883416       3.61251772       0.00644659      -0.00367537       0.00198387
C        2.46142337       0.05265887       3.70713488      -0.00731063       0.00369125       0.00982259
C        1.18814355       2.13554963       3.71511280      -0.00056902       0.00057249      -0.01197089
C       -0.04862155       4.23049828       3.68229526       0.00054810       0.00539671      -0.01227334
C       -1.24218116       6.40613882       3.63784442      -0.00350977      -0.00919207      -0.00831419
C       -2.46921632       8.56889433       3.63841634      -0.00362865      -0.00080497       0.00373070
C        4.93291208       0.01390050       3.73002102      -0.00682281      -0.00340126       0.00215137
C        3.69823557       2.20949871       3.90689347       0.00040569       0.00287277       0.00149696
C        1.11671191       6.39581624       4.12056247      -0.00514933       0.00934853      -0.00860015
C       -0.00650746       8.53325529       3.76781529      -0.00909797      -0.00013832       0.00819164
C        7.40373467      -0.02612252       3.72251604       0.01090682       0.00158927       0.01090578
C        6.17404351       2.13173022       3.70770286       0.00290405      -0.00181757       0.00346157
C        4.93281119       4.27596436       3.85008286       0.00378078       0.00390675       0.00781279
N        3.82118603       6.45066104       3.91642299      -0.00219030       0.01266727       0.00792151
C        2.47879795       8.49597151       3.85427854       0.00304281      -0.00547629       0.00400412
C        9.86258419      -0.03067113       3.68795464      -0.00405518       0.00580509       0.00137813
C        8.62911822       2.11992703       3.62260532      -0.00437080      -0.00689081       0.00818411
C        7.40675953       4.27067529       3.60528959       0.00278624      -0.00597282       0.00136201
C        6.19891348       6.42877059       3.64129095       0.00074183      -0.00599539      -0.00448479
C        4.95866135       8.54508316       3.69531600       0.00635496       0.00807657      -0.00172926
C       -0.01598119       1.42500273       3.66699713      -0.00193656      -0.00450817      -0.01167059
C       -1.25026771       3.54126767       3.61339515       0.00428407       0.00343590      -0.00702847
C       -2.46509376       5.69758243       3.57494914      -0.00376372      -0.00215179      -0.00268865
C       -3.69146876       7.84968530       3.59141166       0.00393397       0.00507386       0.00964481
C       -4.92605203      10.00107418       3.65600506       0.00592965      -0.00909872       0.00148139
C        2.43803702       1.48476137       3.79351108      -0.00511185       0.00810971       0.00375062
O        1.12934196       3.51060276       3.65589428       0.00716453      -0.00586787      -0.00875187
C        0.00953384       5.66558278       3.76237263      -0.00081749       0.00252189      -0.00892593
C       -1.23774910       7.83469855       3.67241806      -0.00853592      -0.00795405       0.00137484
C       -2.47269938       9.99836008       3.69539953      -0.01169478      -0.00072979       0.00113400
C        4.93438053       1.44023496       3.77821361       0.00022995       0.00104919       0.00131979
C        3.81096906       3.56270004       4.15980081       0.00104358      -0.00239907      -0.00544425
C        1.22825444       7.75946941       3.91795375      -0.00379903       0.00195620      -0.00177430
C       -0.00153822       9.95860750       3.73527093       0.00362099       0.00412852       0.01111178
C        7.40590014       1.40083578       3.67161220       0.00237746      -0.00214955       0.00588594
C        6.18537576       3.55677861       3.69149654       0.00103277      -0.00121326      -0.00174104
C        4.95576105       5.74567758       3.78953053       0.00088177       0.00342482       0.00811927
C        3.74144660       7.79440215       3.81885303       0.00552893       0.00650829       0.00721200
C        2.46815463       9.91873373       3.74969223       0.00686939      -0.00443768       0.00465415
C        9.86156386       1.40083572       3.63470853      -0.00679490       0.00234331       0.00905348
C        8.63385335       3.55208701       3.58733226      -0.00403949      -0.01461599      -0.00303950
C        7.41686874       5.70268981       3.58984905       0.01043822       0.00151142      -0.00582299
C        6.19226904       7.84996837       3.63449433       0.00384338       0.00165693      -0.00977560
C        4.93622317       9.96088800       3.67896845      -0.00018434       0.01105985      -0.00387054
Tl       2.43347581       4.97935537       5.57223816      -0.00236984      -0.00559387       0.00137370
