50
Lattice="12.336457 0.0 0.0 -6.168228499999997 10.683685154694365 0.0 0.0 0.0 15.0" Properties=species:S:1:pos:R:3:forces:R:3 energy=-447.0881804141041 free_energy=-447.0881804141041 stress="-0.0021592313108695018 -2.5620924339838478e-05 -7.720277178626513e-06 -2.5620924339838478e-05 -0.00221172628608373 2.8618411393618996e-06 -7.720277178626513e-06 2.8618411393618996e-06 -5.253908914035224e-06" pbc="T T T"
C       -0.00067470      -0.00260429       3.67607377       0.00025749       0.00167662       0.00484592
C       -1.23349030       2.13446612       3.68946471       0.00207142       0.00516460      -0.00532613
C       -2.46749778       4.27221536       3.68744860       0.00173603       0.00308815      -0.00060943
C       -3.70172313       6.40830039       3.67841032       0.00430042      -0.00337658      -0.00115307
C       -4.93036709       8.54744499       3.67508660      -0.00399919      -0.00474181      -0.00756641
C        2.46650645      -0.00840502       3.67362567       0.00299083       0.00931482      -0.00441849
C        1.23814159       2.12894177       3.70094198      -0.00169393      -0.00211668       0.00117069
C        0.00227571       4.27266469       3.74699586      -0.00137743      -0.00191805       0.00534564
C       -1.23492140       6.41465117       3.70426251      -0.00764778       0.00505326      -0.00273303
C       -2.47230355       8.54706581       3.67945557       0.00153334      -0.00025588      -0.01489107
C        4.93359975      -0.00223353       3.67757028       0.00014364      -0.00547306       0.00152639
C        3.69397970       2.12961207       3.70017679       0.00700972      -0.00422541      -0.00125480
C        2.46564946       4.26926032       3.85598675       0.00426116       0.00865945       0.00544666
C        1.23404996       6.40781573       3.85408732      -0.01635437       0.00385402       0.00449169
C       -0.00723699       8.54210058       3.70499503      -0.00219113       0.00467469      -0.00253179
C        7.40062592      -0.00292977       3.68894664      -0.00544639      -0.00375379      -0.00125801
C        6.16579014       2.13500935       3.68406098      -0.00488911       0.00142363       0.00338624
C        4.92999396       4.27347485       3.74712966       0.00103252      -0.00295180       0.00103793
C        3.70048307       6.40943911       3.85708483       0.00342382      -0.00697191       0.00883911
C        2.46661350       8.54171965       3.74979614       0.00119858       0.00136842      -0.00085598
C        9.86858739      -0.00290985       3.69015457       0.00286823      -0.00457580      -0.00186441
C        8.63428576       2.13503849       3.67535259       0.00188789      -0.00419241       0.00666408
C        7.39970422       4.27236219       3.68436814       0.00102528       0.00595317       0.00230298
C        6.16856843       6.41551009       3.70301521       0.00258877      -0.00157278      -0.00466702
C        4.94097763       8.54272023       3.70317524      -0.00129394       0.00146567      -0.00040304
C        0.00281540       1.42246198       3.68562104      -0.00364948       0.00134099      -0.00239970
C       -1.22802354       3.56260104       3.70322756       0.00039447       0.00400952      -0.00426224
C       -2.46535250       5.69870783       3.68695323      -0.00070008      -0.00079624      -0.00215197
C       -3.70142606       7.83394208       3.67534503       0.00103545      -0.00511071       0.00288374
C       -4.93416608       9.96818544       3.67120244       0.00203889       0.00163262       0.00787294
C        2.46623015       1.41779730       3.68890069       0.00283483       0.00605469      -0.00452075
C        1.25141055       3.57344946       3.75437732      -0.00106706      -0.00632246      -0.00496630
C        0.02331968       5.70408990       3.75381424      -0.01661419       0.00104687       0.00063308
C       -1.23708706       7.83383127       3.69502609      -0.00023207       0.00469993      -0.00753858
C       -2.46907978       9.96808266       3.67432911       0.00030380       0.00151192       0.00348750
C        4.92951518       1.42320605       3.68333985       0.00347337      -0.00826059       0.00032231
C        3.68044006       3.57441060       3.75399015       0.00518917      -0.00818679      -0.00214431
C        1.23735397       7.80821641       3.75493279      -0.00578378       0.00670201       0.00441779
C       -0.00197732       9.96567246       3.68790529      -0.00322567      -0.00038540      -0.00457634
C        7.39928463       1.42184352       3.67693328      -0.00590884      -0.00270715       0.00987341
C        6.16003313       3.56315174       3.69893635       0.00050243       0.00352859       0.00200812
C        4.91032760       5.70512764       3.75666694       0.00878160      -0.00359797      -0.00880349
C        3.69654053       7.80915165       3.75669724       0.00360156       0.00251266      -0.00291486
C        2.46643772       9.96205181       3.70511625      -0.00143393       0.00005856      -0.00367910
C        9.86941694       1.42174303       3.68052015       0.00671556      -0.00362815       0.00456788
C        8.63427441       3.56112202       3.67608762       0.00111802       0.00207759       0.01255157
C        7.39824930       5.69886646       3.68453518       0.00513658       0.00273969       0.00282469
C        6.17091531       7.83459739       3.69074017      -0.00538990      -0.00248064       0.00069250
C        4.93498593       9.96583257       3.68685119       0.00179722       0.00072386      -0.00350734
Tl       2.46222333       5.69583318       5.94094432       0.00764616      -0.00273397       0.00380479
