49
Lattice="12.336457 0.0 0.0 -6.168228499999997 10.683685154694365 0.0 0.0 0.0 15.0" Properties=species:S:1:pos:R:3:forces:R:3 energy=-427.8543212813179 free_energy=-427.8543212813179 stress="-0.004290273281512409 0.0013872466994965507 2.0915391743816475e-05 0.0013872466994965507 -0.007005751631813208 1.3755338162381622e-06 2.0915391743816475e-05 1.3755338162381622e-06 2.079337837891381e-07" pbc="T T T"
C       -0.00267129       0.02458126       3.60062068      -0.00097547       0.00006810       0.00818790
C       -1.23605256       2.15594393       3.66058740       0.00636540       0.00621050       0.00613320
C       -2.46597866       4.29014587       3.70773907      -0.00105892      -0.00068344       0.00741813
C       -3.70563657       6.42327279       3.67141361       0.01417411      -0.00162649      -0.01247911
C       -4.95139701       8.55634957       3.57644708      -0.00083402      -0.00738132      -0.00311579
C        2.45966946       0.01702336       3.70446082       0.00189593       0.00214142       0.00546710
C        1.22999316       2.16997204       3.85358851      -0.00613250      -0.01734104      -0.00533104
C       -0.00229569       4.25398479       4.00436360       0.00359857      -0.00467298      -0.00120610
C       -1.24529413       6.42403797       3.95555288       0.00351516      -0.00158236      -0.00516128
C       -2.47430858       8.55956408       3.77035760       0.00502352       0.00148398       0.00414982
C        4.93059771       0.01530626       3.72962618       0.00291937      -0.00356178       0.00400298
C        3.70000295       2.16601490       3.73929517      -0.00276075      -0.00041102       0.00065881
P        1.37804806       6.39959568       4.85930836      -0.00091432       0.00214639       0.00190824
C       -0.00600719       8.57670311       3.91253145      -0.00368297      -0.00022851       0.01589145
C        7.39575690       0.03221251       3.68842526      -0.00863633       0.00999176       0.00580344
C        6.17625512       2.14088169       3.65918503      -0.00909686      -0.00091966      -0.00071134
C        4.93510612       4.24746279       3.58132546       0.00776060      -0.00431012      -0.00305440
S        3.45614411       6.30080205       2.89980718      -0.00216428      -0.00109178       0.00039775
C        2.46274878       8.61782969       3.70575794      -0.00358102       0.01049598       0.01283491
C        9.87194371       0.03599241       3.57250673       0.00354490      -0.00698916       0.00082758
C        8.63851529       2.15816703       3.61857410       0.01069597      -0.00082354      -0.00205209
C        7.40984004       4.28557259       3.60724664      -0.00475633       0.01125676      -0.00978186
C        6.15512923       6.41770796       3.45850333       0.00026357       0.00507515      -0.00689926
C        4.92358418       8.56694723       3.44996864      -0.00249849       0.00402067      -0.01156049
C       -0.01002603       1.44232240       3.69319380      -0.00290845      -0.00042087       0.00032820
C       -1.24357261       3.56826213       3.75689589       0.00044738       0.00299483       0.01708856
C       -2.47581092       5.71349882       3.77213319       0.00756207      -0.00534361       0.00737711
C       -3.71111122       7.84834472       3.67438960       0.00866266      -0.00301129      -0.00875032
C       -4.94286966       9.98477467       3.62381708      -0.00058019      -0.00323051       0.01535071
C        2.46194266       1.43458382       3.78077900      -0.00162072       0.00126471      -0.01073709
C        1.19699738       3.53661429       4.11087677       0.00122979      -0.01084929      -0.00788039
C       -0.05775590       5.67888574       4.17679238       0.00433467      -0.00203760      -0.00481372
C       -1.24190830       7.85384939       3.91153767       0.00065791      -0.00077202      -0.00089237
C       -2.47472856       9.98313084       3.73379032       0.00424966       0.00104066      -0.00476511
C        4.94596337       1.43224848       3.69390525      -0.00673393      -0.00491373      -0.01185137
C        3.73528763       3.55487513       3.78953334      -0.00278210       0.01236633       0.00716622
C        1.25322159       7.92098195       4.01295183      -0.00702400      -0.00895082       0.00447777
C       -0.00450108       9.99756724       3.76287614      -0.00127643      -0.00179443       0.00893187
C        7.40916620       1.44280362       3.64677097      -0.00253511       0.00949443      -0.00197685
C        6.19017997       3.55641474       3.61836917      -0.00038099      -0.00038490      -0.01946023
C        4.97285256       5.66067307       3.37407017       0.00351321      -0.00506634      -0.00261010
C        3.66742108       7.92745643       3.42568590      -0.00365087       0.00084988       0.00641474
C        2.46702347      10.02746853       3.64582978      -0.00856747       0.00786153      -0.00499784
C        9.86761362       1.45125609       3.59913642       0.01504120      -0.00605476       0.00907821
C        8.64213800       3.57895999       3.63457461      -0.00396300       0.00396213      -0.00296912
C        7.40236143       5.70838007       3.57994441       0.00416676       0.01130797      -0.00177714
C        6.15169611       7.84510701       3.46184075      -0.00570960       0.00005571      -0.00556940
C        4.93212511      10.00111583       3.53396550       0.00362099      -0.00263937       0.00364094
Tl       2.70999427       4.19290257       5.95386689      -0.01841828       0.00300384      -0.00313184
