50
Lattice="12.336457 0.0 0.0 -6.168228499999997 10.683685154694365 0.0 0.0 0.0 15.0" Properties=species:S:1:pos:R:3:forces:R:3 energy=-444.1086829769134 free_energy=-444.1086829769134 stress="0.0018131773304707213 0.006001166435842971 -1.4074562947901178e-05 0.006001166435842971 -0.001690478601217539 1.435687324283769e-05 -1.4074562947901178e-05 1.435687324283769e-05 4.392097030946319e-06" pbc="T T T"
C       -0.01569062      -0.00219503       3.65799783       0.00520419      -0.00194817       0.00516185
C       -1.20579064       2.15982760       3.69370194      -0.00345892       0.00206936       0.00277400
C       -2.43335467       4.28417919       3.74500681      -0.00199931       0.00112339      -0.00316177
C       -3.71910462       6.40186882       3.73129153      -0.00262938       0.00518737       0.00518950
C       -4.98168731       8.52479111       3.67421046      -0.00157100      -0.00058716       0.00317640
C        2.44067775      -0.01422425       3.76028510       0.00236654       0.00066117      -0.00128846
C        1.25639080       2.16825213       3.63733245      -0.00505332      -0.00200650       0.00333853
C        0.05510345       4.32191478       3.62159501       0.00045437      -0.00241091      -0.00128732
C       -1.22877748       6.42911406       3.74293660      -0.00509107      -0.00310112       0.00258915
C       -2.50437214       8.54232707       3.80326500      -0.00114002       0.00442690      -0.00028563
C        4.91785672      -0.00896927       3.89498210      -0.00030889       0.00042340      -0.00385691
C        3.70655541       2.09439832       3.79387352       0.00239253      -0.00378157      -0.00196827
C        2.59144885       4.28344851       3.45488673       0.00194988       0.00829365       0.00608456
N        1.20210340       6.49803185       3.70546801       0.00318683       0.00163170       0.00142957
C       -0.04123797       8.56155788       3.83223766      -0.00477421       0.00166330      -0.00152975
C        7.39745335       0.00594287       3.87607692       0.00302933       0.00088486       0.00180638
C        6.18761365       2.11246071       3.89896970       0.00481645       0.00421007      -0.00105834
C        4.98209941       4.20507809       3.70948162      -0.00545737       0.00320395      -0.00788747
P        3.22806251       6.04673538       3.08755882       0.00236033      -0.00780998      -0.00622817
C        2.42399668       8.57203656       3.67168914       0.00102148      -0.00335574       0.00305302
C        9.87121483       0.01127407       3.72971011      -0.00091537      -0.00080792      -0.00192618
C        8.66022231       2.14128201       3.82969536       0.00766737       0.00096486      -0.00128884
C        7.43017330       4.26266007       3.79623454       0.00008440      -0.00466544      -0.00339466
C        6.12064264       6.37199197       3.60655632       0.00080254      -0.00069075       0.00197655
C        4.86946774       8.50977891       3.56698827      -0.00113410       0.00451144      -0.00183789
C        0.01793941       1.44137759       3.65730893      -0.00501649      -0.00124466       0.00163838
C       -1.18219046       3.59423621       3.68843925      -0.00189940       0.00234208       0.00094560
C       -2.46078430       5.70548160       3.74262123      -0.00581724       0.00091843      -0.00079243
C       -3.73909689       7.82501484       3.73350310      -0.00132266       0.00608669       0.00855941
C       -4.96335701       9.95527317       3.69002604       0.00531122      -0.00250155       0.00849051
C        2.45896102       1.41186110       3.73324053      -0.00165905      -0.00059582       0.00474236
C        1.30918347       3.62418923       3.55366981      -0.00142332      -0.00324922       0.00238220
C        0.03350536       5.75939226       3.67235198      -0.00231121      -0.00109375       0.00133858
C       -1.26640747       7.84277238       3.80925553      -0.00486794      -0.00189614       0.00613577
C       -2.49549128       9.96475574       3.83265901       0.00070515       0.00257835      -0.00644691
C        4.94059786       1.40226334       3.88869956       0.00562724      -0.00032890      -0.00543272
C        3.74012687       3.50239576       3.67477051       0.00108989      -0.00383159      -0.00798621
C        1.17391734       7.86771903       3.72644775      -0.00414964       0.00243686      -0.00216676
C       -0.01631729       9.98010246       3.89166887      -0.00099621       0.00178842      -0.00414133
C        7.41943162       1.42150493       3.89076048       0.00795611       0.00408470      -0.00168686
C        6.21109371       3.52775914       3.83332528      -0.00680760       0.00589380       0.00143867
C        4.90829843       5.59852503       3.52836254      -0.00418868       0.00406213       0.00157016
C        3.59813475       7.81804541       3.49881750       0.00033476       0.00125705       0.00363293
C        2.45783661       9.98937714       3.77724117       0.00076096      -0.00544743       0.00069957
C        9.89289655       1.43958653       3.75826341       0.00195611      -0.00053490       0.00225876
C        8.66967667       3.56424170       3.80262664       0.00335437      -0.00240869      -0.00173518
C        7.38575251       5.68370177       3.71241704       0.00135515      -0.00376073      -0.00503169
C        6.11661766       7.80374946       3.59747729      -0.00307649      -0.00068975      -0.00174612
C        4.91375587       9.95760362       3.64485954       0.00140152       0.00358067      -0.00340408
Tl       2.98313084       6.01021310       5.84981473       0.01188017      -0.01553620      -0.00284243
