49
Lattice="12.336457 0.0 0.0 -6.168228499999997 10.683685154694365 0.0 0.0 0.0 15.0" Properties=species:S:1:pos:R:3:forces:R:3 energy=-436.4710852183125 free_energy=-436.4710852183125 stress="-0.005046704689547255 -0.0004936450472739022 -1.3615448178989686e-05 -0.0004936450472739022 0.00311839724642341 -3.4684470734244034e-06 -1.3615448178989686e-05 -3.4684470734244034e-06 -7.571361182131904e-07" pbc="T T T"
C        0.00497405       0.00545327       3.68587714      -0.00399738      -0.00163050       0.00461145
C       -1.24968277       2.11699066       3.68251810       0.00126349       0.00053440      -0.00515121
C       -2.47576865       4.26252757       3.60448634       0.00713306       0.00494158       0.00437058
C       -3.69881107       6.41555880       3.55080048       0.00626780       0.00005673       0.00914353
C       -4.92232825       8.56717563       3.60401991      -0.01236761      -0.00929397      -0.00163855
C        2.46965759       0.05693686       3.72804455       0.00489384       0.00290657      -0.01075403
C        1.20559173       2.18358601       3.87023708      -0.01086988      -0.00411464       0.00370709
C       -0.01770243       4.21745922       3.89672968      -0.00403258      -0.00142322       0.00622256
C       -1.25750188       6.41068462       3.72485048       0.00086162      -0.00188996      -0.00224852
C       -2.47498995       8.56645781       3.66650896       0.00859795       0.00305108      -0.00221552
C        4.93332037       0.00799019       3.72102332       0.00128739      -0.00192074       0.00430075
C        3.72377267       2.20241969       3.77588562       0.00849573      -0.00335505      -0.01011062
C        1.09527543       6.42424419       4.21936639      -0.00454988       0.00055168       0.00877354
C       -0.01204902       8.53432830       3.81185288      -0.00530438       0.00206445      -0.00713921
C        7.40869342      -0.03505744       3.72602804      -0.01167667      -0.00000124      -0.01452430
C        6.17972661       2.12265405       3.62752546      -0.00712953      -0.00791954       0.00423758
C        4.93466677       4.24278003       3.63376335       0.00246978       0.00708685       0.00118984
N        3.79857785       6.41547837       3.76524082      -0.00415007      -0.00179557      -0.00476193
C        2.48419863       8.48630253       3.85104035       0.00734150       0.00449596      -0.00527598
C        9.86691884      -0.03556488       3.69196391      -0.00144164      -0.00505096      -0.00466876
C        8.63387906       2.11387822       3.60486382       0.01143527       0.00161659       0.00900857
C        7.40879800       4.26650639       3.52464399      -0.00594781      -0.00399193      -0.00262165
C        6.18612261       6.41333468       3.53800341      -0.00067967      -0.00051948      -0.00341251
C        4.95466067       8.53409568       3.65960241      -0.00377861       0.00382388      -0.00324491
C       -0.01068715       1.42528599       3.73265400      -0.00642549       0.00077597       0.00335437
C       -1.25722526       3.53802039       3.69956833       0.00098526      -0.00101375       0.00176178
C       -2.47418701       5.69644505       3.60749152       0.00526919      -0.00302005       0.00176356
C       -3.69661536       7.84640650       3.59506181       0.00233448       0.00380062       0.00466056
C       -4.92472067       9.99775800       3.67554926      -0.00272898      -0.00468077       0.00069155
C        2.46831342       1.48473515       3.80733043       0.00018070       0.00272521      -0.00630512
N        1.11578094       3.52000907       4.08314696       0.00995287       0.01302985      -0.00211183
C       -0.01255203       5.68927078       3.92244769      -0.01063334      -0.00150460       0.00715619
C       -1.24659676       7.83736199       3.72629477       0.00227935      -0.00280976       0.00574356
C       -2.47151434       9.99643572       3.70764303       0.00874763       0.00190728      -0.00596961
C        4.94358476       1.43242198       3.70257928      -0.00154452      -0.01136186      -0.00418160
N        3.79377749       3.55725134       3.81107001       0.00783874       0.00650654       0.00309032
C        1.22663811       7.77394994       3.95835988      -0.00076115       0.01222865       0.00553492
C        0.00033065       9.95440760       3.75026112      -0.00951834      -0.00136402      -0.00778349
C        7.40765053       1.39396373       3.64264678       0.00162423       0.00255255      -0.00283417
C        6.18338805       3.54930657       3.56542316      -0.00890505      -0.00543691       0.00062883
C        4.94090158       5.71953458       3.61186890       0.00258318       0.00672451       0.00536482
C        3.73755383       7.77146543       3.75624248       0.00955276       0.00719037      -0.00681774
C        2.47382926       9.90981494       3.75281007      -0.00785575      -0.00125013      -0.00081412
C        9.86020215       1.39405344       3.64840779       0.00713263      -0.00606880      -0.00081097
C        8.63521310       3.54456121       3.55505229       0.00513611       0.00539249       0.01687951
C        7.41113135       5.69518601       3.51520551       0.00281041      -0.00303741       0.00034420
C        6.18637670       7.84104502       3.58264124      -0.01451599      -0.00751385       0.00576085
C        4.93748291       9.95452851       3.67759542      -0.00225314      -0.00003368      -0.00432094
Tl       2.46933679       5.15910972       5.70249136       0.01459249      -0.00196141       0.00141681
