50
Lattice="12.336457 0.0 0.0 -6.168228499999997 10.683685154694365 0.0 0.0 0.0 15.0" Properties=species:S:1:pos:R:3:forces:R:3 energy=-446.81773472400926 free_energy=-446.81773472400926 stress="-0.00458264208773359 -0.0015681973801825503 1.085961012101083e-05 -0.0015681973801825503 -0.002790455887532313 -2.7486943476994075e-05 1.085961012101083e-05 -2.7486943476994075e-05 1.3516917186907504e-06" pbc="T T T"
C        0.00318962       0.00087252       3.62450820       0.00005380      -0.00276544      -0.00293927
C       -1.24198423       2.12982862       3.71024539      -0.00011762      -0.00376415       0.00009032
C       -2.47655598       4.26887108       3.71148329       0.00457913      -0.01294006      -0.00641598
C       -3.69731719       6.41091213       3.62266872       0.00308456       0.00753589      -0.00770605
C       -4.92213630       8.55307335       3.57647933       0.00267447       0.00015258      -0.00385935
C        2.47112987      -0.00424765       3.63349737      -0.00176205      -0.00127792      -0.00769416
C        1.22954698       2.11461635       3.75255723       0.00270057       0.00601705      -0.00759210
C       -0.01383278       4.26334055       3.88892050      -0.00435945       0.01060489       0.01547805
C       -1.25162136       6.41556550       3.74629521      -0.00751785      -0.00359703       0.00694417
C       -2.46770424       8.55075149       3.62938539       0.00850725      -0.01077242      -0.00920611
C        4.93658703      -0.00007993       3.64815050      -0.00734081      -0.01493473       0.00809221
C        3.69405988       2.13331956       3.72767285       0.01300713       0.00530347       0.00010462
C        2.44782256       4.18281875       4.10568450      -0.00762998       0.00258132       0.00545430
C        1.14719478       6.43591854       4.11106061       0.00390391      -0.00516437      -0.00922737
C       -0.00376947       8.53963081       3.72298648      -0.00041796       0.01268192       0.00764065
C        7.40211281      -0.01043608       3.67345184       0.00611588       0.00690880       0.00027913
C        6.16141521       2.14038160       3.67557030      -0.00290594      -0.00959013       0.01184972
C        4.92251272       4.29878226       3.74802365       0.00654248       0.00202522      -0.00185941
N        3.80971634       6.47122331       3.76552425      -0.00752150       0.00029397       0.00596325
C        2.48508402       8.52136588       3.74543906      -0.00844666      -0.00040559       0.00738228
C        9.86740520      -0.00875112       3.64614256       0.00143008       0.00514546       0.01341167
C        8.62892993       2.13126395       3.67158583      -0.01402334       0.00358163      -0.00551199
C        7.39481405       4.27470146       3.65196033       0.00465345       0.00187148       0.00063260
C        6.19069187       6.42497101       3.59572038       0.00410058      -0.00802152       0.00330908
C        4.95917634       8.55776753       3.59598369       0.00756961      -0.00631143      -0.00077061
C       -0.00389067       1.41902327       3.69143749       0.00251888      -0.00216175      -0.00350133
C       -1.23981454       3.55686533       3.76787164       0.00874444      -0.00447742      -0.00604720
C       -2.47195469       5.69643366       3.68925463      -0.00510002      -0.00974236      -0.00538431
C       -3.69333269       7.83572192       3.60009142       0.00363071       0.00664961       0.00370311
C       -4.92893221       9.97555612       3.60549885      -0.00188088      -0.00042685      -0.01782934
C        2.46594458       1.41854510       3.70073211       0.01029757       0.00726946      -0.00370307
C        1.23309363       3.55074053       3.90274818      -0.00915177       0.00949791      -0.00909736
C       -0.00605527       5.69967002       3.90070751      -0.00840996       0.00587980      -0.00055317
C       -1.23723223       7.83449146       3.69546531       0.00849944      -0.00341434      -0.00970804
C       -2.46346406       9.97262898       3.62722339      -0.00754467      -0.01565194       0.00941977
C        4.93012081       1.42725846       3.67384536       0.00205916      -0.01499072      -0.00304189
C        3.66816269       3.58262326       3.84360691       0.00122613       0.01171933       0.00066893
C        1.23859211       7.79205780       3.84343203      -0.01082306       0.00260153       0.00376859
C        0.00094054       9.96331870       3.67001067       0.00463829       0.01099985       0.00636961
C        7.39510327       1.41888708       3.66568302      -0.00611925       0.00102471      -0.00052914
C        6.14718912       3.57699179       3.68345645       0.00578074      -0.00539772       0.00214215
C        4.94063399       5.73996164       3.68521808      -0.00307719       0.00082244      -0.00770965
C        3.74204472       7.81640742       3.68563956      -0.00510185       0.00107312      -0.01587919
C        2.47120180       9.94298911       3.67802544       0.00269218       0.00145726       0.01108585
C        9.86338500       1.41682280       3.66967467      -0.01149260       0.00766987       0.00052713
C        8.62727871       3.55802106       3.67244788      -0.00153462      -0.00300123       0.00296528
C        7.40693824       5.69812629       3.61453838       0.00720797       0.00238167       0.00811095
C        6.18584891       7.84432385       3.57101959       0.00852083      -0.01041930       0.00344857
C        4.93800429       9.97430421       3.61261548       0.00253204      -0.00370406       0.00807258
Tl       2.43200551       5.66647462       5.97941777      -0.00499226       0.01918220      -0.00114846
