49
Lattice="12.336457 0.0 0.0 -6.168228499999997 10.683685154694365 0.0 0.0 0.0 15.0" Properties=species:S:1:pos:R:3:forces:R:3 energy=-434.0443824017842 free_energy=-434.0443824017842 stress="-0.004110699461430257 0.0003456918799280252 -4.935897566885184e-06 0.0003456918799280252 0.003816402084802922 -7.84894850041791e-06 -4.935897566885184e-06 -7.84894850041791e-06 -1.6270486030852918e-06" pbc="T T T"
C        0.00610630       0.01316514       3.72441951       0.00448331       0.00024206      -0.00682594
C       -1.24567059       2.12232603       3.74732566      -0.00286690      -0.00048127       0.00400697
C       -2.48157272       4.26620307       3.65010005       0.00828958       0.00604267       0.00768197
C       -3.70430757       6.41947793       3.56456394      -0.00450037      -0.00631233      -0.00051008
C       -4.92704779       8.56919461       3.60563156      -0.00024899       0.00322067       0.00128936
C        2.48004508       0.05509748       3.71669745       0.00176716      -0.00584218      -0.00421469
C        1.23692603       2.19729207       3.94167321      -0.00127233       0.00746362      -0.00662639
C       -0.02726900       4.25022530       3.98490910      -0.00243898      -0.00569389       0.00559497
C       -1.26941192       6.42432198       3.76932297       0.01317139       0.00672302       0.00680233
C       -2.47733819       8.56805478       3.66694652      -0.00983686      -0.00072166       0.00463739
C        4.93517705       0.00480345       3.69425743       0.00373809       0.00952911      -0.00791715
C        3.74527109       2.15192940       3.68542603      -0.00656592      -0.00520431      -0.00007982
C        1.10153086       6.44165418       4.25149146      -0.00943054       0.00670561       0.00776243
C       -0.01220500       8.53904151       3.82803322       0.00250670      -0.00084021      -0.00203039
C        7.41047338      -0.03062283       3.72061250      -0.00539404      -0.00505927       0.00034750
C        6.18206685       2.12435523       3.58001263       0.00540059       0.00050105       0.00887159
C        4.97297472       4.25656315       3.50765324      -0.00035128      -0.00160643      -0.00276272
N        3.77987490       6.40658098       3.70437333       0.00778619      -0.00173725       0.00756935
C        2.48416842       8.49310679       3.85711491      -0.00055617       0.00264569      -0.01480320
C        9.86965049      -0.02973248       3.71697772       0.00097289       0.00251746      -0.00473105
C        8.63775390       2.11783935       3.62385587      -0.00887487      -0.00063202       0.00043684
C        7.40577595       4.27329426       3.51182388      -0.00412261      -0.00472074       0.00225140
C        6.17603869       6.40742651       3.50277990       0.00238044       0.00724135       0.00028642
C        4.95268151       8.53578387       3.65882648       0.00003139      -0.00521921       0.00376800
C       -0.00104246       1.43440808       3.80581515      -0.00125111       0.00136644      -0.00244469
C       -1.26532562       3.54387181       3.76925186       0.00419479      -0.00040965       0.00670890
C       -2.48452884       5.70209316       3.64551891       0.01134550       0.01014258       0.00171930
C       -3.70053226       7.85014134       3.59931809      -0.01050988      -0.00628522       0.00506414
C       -4.92198761      10.00118439       3.68697665       0.00345139      -0.00104998       0.00035861
C        2.50310729       1.48916805       3.79651582      -0.00786802      -0.00623907      -0.00243485
C        1.11820856       3.53516662       4.23069319      -0.00528738      -0.00463558      -0.00530883
C       -0.03358537       5.71613509       3.98969945       0.00131373      -0.00665560       0.01071994
C       -1.25105654       7.84618616       3.74842928      -0.00074789       0.00675684      -0.00042345
C       -2.46934390       9.99957555       3.68865965       0.00447800       0.00138770      -0.00089047
C        4.94708161       1.43316707       3.64516994       0.00304647       0.00959627       0.00027210
O        3.79656535       3.53139787       3.58901484       0.00028328      -0.00805209      -0.00733663
C        1.22777097       7.78767684       3.98448752       0.00389495      -0.00836971      -0.01119260
C        0.00144773       9.95724252       3.74148312      -0.00290096      -0.00119542       0.00079729
C        7.40396031       1.40229454       3.63048451      -0.00432536      -0.00795836       0.00232706
C        6.17115872       3.55560280       3.50760514      -0.00238417      -0.00306036       0.00850322
C        4.92899459       5.69477371       3.52601165       0.00628065       0.00312609      -0.00214322
C        3.73331392       7.75997124       3.73732006      -0.00203801      -0.00505034       0.00515012
C        2.47576268       9.91544167       3.76273272      -0.00134760       0.00536879      -0.01570459
C        9.86113365       1.39706388       3.68662226      -0.00604927       0.00307197       0.00154350
C        8.63125572       3.55019654       3.57875066       0.00207249       0.00210770      -0.00502140
C        7.40069545       5.69626262       3.50428255      -0.00605276      -0.00481328       0.00226348
C        6.17998050       7.83791924       3.57433474       0.00487043       0.00683413       0.00077141
C        4.93977012       9.95828891       3.70302407       0.00314673      -0.00354670      -0.00818932
Tl       2.45289630       5.00593767       5.60768920       0.00831613       0.00880129       0.00408588
