50
Lattice="12.336457 0.0 0.0 -6.168228499999997 10.683685154694365 0.0 0.0 0.0 15.0" Properties=species:S:1:pos:R:3:forces:R:3 energy=-440.45628173341254 free_energy=-440.45628173341254 stress="-0.0010839322553355488 0.0060904275748698625 -9.592247237394963e-06 0.0060904275748698625 -0.0008087141779057301 2.4135919305926395e-05 -9.592247237394963e-06 2.4135919305926395e-05 4.115259408413281e-06" pbc="T T T"
C       -0.01625956       0.00979706       3.72445554       0.00056671       0.00727906      -0.00500693
C       -1.21040119       2.16679894       3.79684078       0.00143343      -0.00892417      -0.00317829
C       -2.43893440       4.28785927       3.75887400       0.00112768      -0.00990326      -0.00854746
C       -3.72090174       6.40835871       3.63855072      -0.00588482      -0.00516908       0.01565486
C       -4.98614703       8.53355369       3.61955827       0.00030749       0.00520857      -0.00671590
C        2.43806582      -0.00391473       3.68296267       0.00296105       0.00757671       0.00573612
C        1.25016094       2.18205349       3.68674723      -0.00552571      -0.00688165      -0.00991834
C        0.04391401       4.35279756       3.79368226      -0.00949712       0.00375502      -0.00315946
C       -1.26114422       6.43562622       3.79904176      -0.00910069       0.00407909      -0.00112236
C       -2.50575624       8.54991166       3.71878154       0.01441418       0.00298947       0.00581488
C        4.91817431      -0.00340996       3.75277635      -0.00628645      -0.00230370       0.00238278
C        3.70878450       2.10441451       3.60742647       0.00188734       0.00281926      -0.00814626
C        2.57845929       4.26351563       3.48217888       0.00145207       0.00219452      -0.01713923
O        1.03794446       6.52480612       4.27658675       0.00838165      -0.00652871       0.00178290
C       -0.04558880       8.56111051       3.88174092       0.00280554      -0.00138317      -0.00127332
C        7.39465738      -0.00192097       3.88009058       0.00507652      -0.00904216      -0.00677699
C        6.19351192       2.10703206       3.69567175      -0.00434598       0.00612071       0.00716175
C        4.99620318       4.20353108       3.42678609       0.00610508       0.00639676      -0.00864488
S        3.35719897       6.15904495       3.13069368       0.00587684       0.01095740       0.00004951
C        2.40654995       8.53243394       3.91570554      -0.01003145      -0.00829383      -0.00370192
C        9.86470706       0.00268484       3.85534979       0.01036715       0.00535493      -0.01107855
C        8.65822293       2.13797408       3.80725201      -0.00009824       0.00626993      -0.00169011
C        7.43500822       4.25972718       3.62364370       0.00195749       0.00092701      -0.00844982
C        6.14415712       6.38492663       3.46249044      -0.00489060      -0.00640310      -0.00232371
C        4.87416949       8.51775296       3.64519843      -0.00764434       0.00324395      -0.00153949
C        0.01381532       1.45225706       3.74732811      -0.00231660      -0.00474687      -0.00302174
C       -1.18731038       3.60576596       3.79176772      -0.00137997      -0.01304575       0.00123206
C       -2.47902704       5.70461433       3.72153623      -0.00670890      -0.00875160       0.00856348
C       -3.74290466       7.83248725       3.64632314       0.00842390       0.00262614       0.01587016
C       -4.96659846       9.96711261       3.67279733       0.00138083       0.01237969       0.00288597
C        2.45567307       1.42683437       3.66259025       0.00016943       0.00359790      -0.00467494
C        1.31340606       3.64961891       3.65276955      -0.00249349      -0.00142297       0.01102612
C       -0.05258220       5.75604807       3.91607987      -0.00514843       0.00936619      -0.00314379
C       -1.28189144       7.85230299       3.80076972       0.00919538       0.00256099       0.00757639
C       -2.49805934       9.97526469       3.71593944       0.00019877       0.00056619       0.00324763
C        4.94398491       1.40705439       3.68477206      -0.00475709      -0.00029182       0.01168819
C        3.74053867       3.52086545       3.47157614       0.00947939       0.00489326      -0.00668171
C        1.14301134       7.87736803       3.99642792      -0.00272509      -0.00884420       0.00751406
C       -0.01737091       9.98466390       3.83900840      -0.00443942      -0.00278685       0.01562980
C        7.42018696       1.41757752       3.80670131      -0.00160903      -0.00010707      -0.00297453
C        6.22191990       3.51983601       3.58010429       0.00364424       0.00736530      -0.00866840
C        4.97954483       5.59399896       3.33126803      -0.00798422       0.00791953       0.00886484
C        3.62175244       7.84698933       3.66866391      -0.00734240      -0.00463197      -0.00260845
C        2.44998419       9.96798586       3.91702213       0.01122254      -0.00718934       0.00237233
C        9.88953199       1.43731757       3.83769341       0.00235600       0.00499857      -0.00900545
C        8.66747350       3.56004765       3.73571359       0.00061748       0.00292251      -0.00267310
C        7.39836227       5.68207664       3.56279764      -0.00525804      -0.00630585       0.01168654
C        6.11603396       7.81133843       3.55252796      -0.00834545      -0.00561290       0.00191634
C        4.91398455       9.96786591       3.75580107       0.00563015       0.00613396       0.00831626
Tl       3.14006332       5.68094864       5.97959386       0.00677519      -0.01193260      -0.00510784
