49
Lattice="12.336457 0.0 0.0 -6.168228499999997 10.683685154694365 0.0 0.0 0.0 15.0" Properties=species:S:1:pos:R:3:forces:R:3 energy=-430.61296235928063 free_energy=-430.61296235928063 stress="0.0009202907579064917 -0.0001381278488563737 -3.1392338981385503e-06 -0.0001381278488563737 0.009027181361078503 1.1655424281964236e-06 -3.1392338981385503e-06 1.1655424281964236e-06 1.0554669115460212e-06" pbc="T T T"
C        0.00286257       0.00407565       3.70389225      -0.00340842       0.00701216      -0.00356354
C       -1.23977429       2.12857695       3.69348121       0.00827907       0.00116615       0.00334292
C       -2.46758811       4.27076280       3.67961558       0.00314752       0.00123632      -0.00675468
C       -3.70265065       6.41311516       3.67333403       0.00039000      -0.00913090      -0.00238969
C       -4.93867954       8.55321099       3.69013679      -0.00107446       0.00945711      -0.00074389
C        2.46560728       0.06405201       3.70055409      -0.00095325      -0.00264281       0.00279953
C        1.19843171       2.16789041       3.72854571       0.00027052      -0.00503145       0.00558876
C       -0.02826606       4.25942645       3.72874449      -0.00339981      -0.00522718       0.00308199
C       -1.24142972       6.40344924       3.67387134      -0.00195327       0.00581669       0.00492681
C       -2.47522417       8.56116709       3.67332481       0.00387684       0.00793507       0.00894137
C        4.92793702       0.01078258       3.68983420       0.00136350       0.00722939       0.01016480
C        3.73095018       2.18079814       3.72989904      -0.00500436       0.00128441      -0.01216805
N        1.15810062       6.39735857       3.90325303       0.00237708      -0.00744031       0.00714466
C       -0.00451852       8.52419458       3.70266677       0.00696410       0.00189193       0.01191541
C        7.40893095      -0.03507681       3.70205932      -0.00336652      -0.01104779       0.00724713
C        6.17279562       2.13641268       3.69465879      -0.00227276      -0.00692179       0.00664421
C        4.96455126       4.27640973       3.70843233       0.00057750      -0.00372647      -0.01953596
O        3.77327008       6.40300323       3.74682873       0.00690010       0.00334072       0.00104066
C        2.48255415       8.45540038       3.74628287      -0.00157930       0.00667792       0.00567530
C        9.86334071      -0.03769400       3.70379690       0.00352609      -0.00620441       0.00971127
C        8.63550237       2.12016172       3.68783378       0.00270330      -0.00246888       0.00052061
C        7.40393370       4.27185099       3.68673455      -0.00433322      -0.00372243      -0.01307278
C        6.16738934       6.39651672       3.69155006       0.00086125       0.00671783      -0.00813568
C        4.93166751       8.51683438       3.71529398      -0.00697176       0.00609591      -0.00628215
C        0.00646179       1.44366742       3.70527437       0.00184638       0.00179205       0.00028319
C       -1.22698670       3.55841172       3.69242804      -0.00258697      -0.00173196       0.00640802
C       -2.46664478       5.69289038       3.66984146       0.00182172      -0.00291061      -0.00929283
C       -3.70285078       7.84267626       3.67538484       0.00062214       0.00228371       0.00378732
C       -4.92618884       9.99934055       3.69791377      -0.00801586       0.01193407       0.00919592
C        2.46514005       1.52224580       3.72003530       0.00016354      -0.00834176      -0.00100863
O        1.15505410       3.55291317       3.78195999      -0.01315597      -0.00465938       0.01198838
C        0.00506053       5.69627063       3.74227645      -0.00421299      -0.00217542      -0.00084177
C       -1.24455813       7.83223926       3.67651042       0.00402735       0.00664602       0.00456163
C       -2.47838084      10.00315617       3.68823433       0.00464199       0.00750969      -0.00891708
C        4.92417869       1.45028178       3.70106012      -0.00503986       0.00131032       0.00215878
O        3.77352644       3.56480586       3.77726944       0.00545325       0.00240196      -0.00520252
C        1.20848171       7.74517136       3.77892837       0.00523575      -0.00578370      -0.01005591
C       -0.00093403       9.95518062       3.69433407      -0.00163816      -0.00111201       0.00498524
C        7.39801248       1.40690978       3.69313521      -0.00115948      -0.00878174      -0.00193068
C        6.16724596       3.56496500       3.69407804      -0.00292974      -0.00701733      -0.01443320
C        4.96580884       5.68658103       3.69910046       0.00245544       0.00290244      -0.00160989
C        3.73043210       7.79105580       3.73555180      -0.00452111       0.00429615       0.00510255
C        2.47069064       9.90050574       3.71624026      -0.00184585      -0.00015571       0.00248179
C        9.87177089       1.40644312       3.69037234       0.00891706      -0.00886557       0.01291329
C        8.63863892       3.55094533       3.68226303      -0.00109192       0.00376810       0.00305508
C        7.40472828       5.69024513       3.68447074       0.00026997      -0.00389975      -0.01498870
C        6.17467373       7.82685955       3.70038619      -0.00285457       0.00938916      -0.01374873
C        4.93166833       9.95432546       3.70835679       0.00360019      -0.00109966       0.00067825
Tl       2.44266991       5.09778254       5.89468908       0.00307796       0.00000373      -0.00166852
