50
Lattice="12.336457 0.0 0.0 -6.168228499999997 10.683685154694365 0.0 0.0 0.0 15.0" Properties=species:S:1:pos:R:3:forces:R:3 energy=-447.13869191329616 free_energy=-447.13869191329616 stress="-0.0020246406215723217 -7.847215011875808e-06 1.6486316489517456e-05 -7.847215011875808e-06 -0.0020491864578366607 -1.481872846093669e-05 1.6486316489517456e-05 -1.481872846093669e-05 -1.074597606663976e-06" pbc="T T T"
C       -0.00244584      -0.00096758       3.63116366      -0.00333326      -0.00260526       0.00289310
C       -1.23190009       2.14076508       3.69528662       0.00130740      -0.00389039       0.00571608
C       -2.46228398       4.27257797       3.69309365      -0.00277752      -0.00846854       0.00674435
C       -3.70215778       6.40708979       3.62512473       0.00276356       0.00655650       0.00188898
C       -4.93378709       8.54656511       3.60022457       0.00162458       0.00085981      -0.00322891
C        2.46608459      -0.00436659       3.59810051      -0.00024965      -0.00106873       0.00071983
C        1.23189970       2.12449563       3.66914920       0.00134893       0.00500490       0.00018883
C        0.02732191       4.28846563       3.77946713      -0.00158421       0.00743252       0.00555459
C       -1.24288185       6.41362128       3.67404279      -0.00546030      -0.00362971       0.00081115
C       -2.47047024       8.54644321       3.59824762       0.00049176      -0.00172200      -0.00049904
C        4.93460653      -0.00105243       3.62822268       0.00039773      -0.00487280       0.00368222
C        3.69991135       2.12478523       3.66739085       0.00001636       0.00135001      -0.00411738
N        2.46582056       4.15521678       3.93785059       0.00254263      -0.00476663      -0.00193649
N        1.12641606       6.46907275       3.98911319       0.00612674      -0.00352552      -0.00086793
C       -0.00944195       8.54980926       3.67977879      -0.00286564       0.00532960       0.00174255
C        7.40308117      -0.00757617       3.70100488       0.01124430       0.00700864       0.00433011
C        6.16381345       2.14063564       3.69345787      -0.00256251      -0.00500437       0.00856894
C        4.90442767       4.28864266       3.77387856       0.00392465       0.00085637       0.00027068
N        3.80354351       6.46765802       3.96735660      -0.00070567       0.00324146       0.00346083
C        2.46596454       8.51245389       3.79539173      -0.00288896      -0.00819875       0.00066442
C        9.86495716      -0.00722579       3.70175836      -0.00629794       0.00327842       0.00412664
C        8.63416690       2.13511162       3.70488205      -0.00157200       0.00266313      -0.00284851
C        7.39407683       4.27220137       3.69267588       0.00570338      -0.00060247       0.00186367
C        6.17564112       6.41391640       3.67230091       0.00161605      -0.00538864      -0.00297701
C        4.94167549       8.55066439       3.68027935       0.00319818      -0.00055250       0.00202627
C       -0.00441255       1.42436356       3.65890714       0.00345772      -0.00214280       0.00301067
C       -1.20809799       3.57562136       3.72200561       0.00117423      -0.00308199      -0.00061707
C       -2.46803764       5.69368500       3.65621250      -0.00523889      -0.00686999       0.00359227
C       -3.70216144       7.83053021       3.59791035       0.00142275       0.00609210      -0.00314113
C       -4.93786964       9.97091382       3.60095362      -0.00151951      -0.00025945      -0.00554565
C        2.46594747       1.41541630       3.63471482       0.00067302       0.00327031      -0.00758058
C        1.26716855       3.55197058       3.78269806      -0.00415524       0.00951243      -0.00226033
C        0.01011556       5.73086188       3.80178829      -0.00163054       0.00208478      -0.00123200
C       -1.24050070       7.83652034       3.63963179      -0.00111436      -0.00265084      -0.00608042
C       -2.46633738       9.97091911       3.59806715      -0.00092116      -0.00482395       0.00047666
C        4.93632163       1.42443462       3.65681601      -0.00425708      -0.00547720       0.00036655
C        3.66434494       3.55247583       3.77865703       0.00782114       0.00311692       0.00232061
C        1.20812379       7.80592106       3.81002710      -0.00331659       0.00071267       0.00280966
C        0.00115015       9.97064330       3.66338931       0.00962188       0.00844347      -0.00020241
C        7.39973333       1.42218002       3.69911761       0.00254629       0.00544309      -0.00807191
C        6.13972810       3.57542946       3.71991065       0.00456184      -0.00274929      -0.00286868
C        4.92251757       5.73071154       3.79208827      -0.00520502      -0.00306123      -0.00917232
C        3.72383614       7.80651928       3.80430359      -0.00259653       0.00081648      -0.00839388
C        2.46580047       9.93869957       3.73195665       0.00172673      -0.00622903       0.00701143
C        9.86861539       1.42240723       3.69964616      -0.00450008       0.00371026      -0.00540150
C        8.63416822       3.56072217       3.69505739      -0.00067634      -0.00422382      -0.00279811
C        7.40037204       5.69335478       3.65543721       0.00693941       0.00075769       0.00703548
C        6.17272884       7.83704642       3.64002130       0.00352710      -0.00532202      -0.00233570
C        4.93072869       9.97138961       3.66551535      -0.00674317       0.00176613      -0.00045295
Tl       2.48625592       5.66296576       6.15658349      -0.01360620       0.01188024       0.00075333
