49
Lattice="12.336457 0.0 0.0 -6.168228499999997 10.683685154694365 0.0 0.0 0.0 15.0" Properties=species:S:1:pos:R:3:forces:R:3 energy=-427.3942844112568 free_energy=-427.3942844112568 stress="-0.0026495758100969387 -0.0011251754889262686 1.0814840312852849e-05 -0.0011251754889262686 -0.0006612330736440428 1.2612030240438147e-05 1.0814840312852849e-05 1.2612030240438147e-05 -2.6341149582409124e-07" pbc="T T T"
C        0.01558401       0.02888861       3.72003116      -0.00376110       0.00396754       0.00583060
C       -1.24278377       2.13622668       3.56316797       0.00766530      -0.00499063      -0.00305368
C       -2.47974092       4.28490326       3.52605622      -0.01424275      -0.00173226       0.00582381
C       -3.69474180       6.42735361       3.67534139      -0.00411691       0.00543298      -0.00221370
C       -4.92948691       8.56756940       3.80989597       0.00628797       0.00339509       0.00312299
C        2.47779486       0.06455099       3.70395964      -0.01140577       0.00524926       0.00091461
C        1.22246418       2.21020559       3.55299213       0.00539874      -0.00899075      -0.01128019
C       -0.03156889       4.21802132       3.30576280       0.01138680      -0.00310534       0.00024379
C       -1.22704820       6.41198063       3.40310772      -0.00555612       0.00540337      -0.00366726
C       -2.45103234       8.56539209       3.60530603       0.00229423      -0.00369569      -0.01349175
C        4.93673478       0.02758976       3.63886883      -0.00009303      -0.00759852       0.01674932
C        3.72810222       2.20841584       3.87873173      -0.00424624       0.00298500      -0.00364335
S        1.47650626       6.29287541       2.86887014      -0.00468398       0.00395563       0.01134115
C        0.01716837       8.55310651       3.49732391       0.01038031       0.00552941      -0.01521310
C        7.40276123       0.01939202       3.62519187       0.01033829       0.00249881       0.01543484
C        6.17808167       2.14784697       3.71012862       0.00176035       0.00149725       0.01524493
C        4.96974250       4.22592658       4.12161727       0.00145745      -0.00955195      -0.01297844
S        3.63306703       6.40295812       4.93913633       0.00011093      -0.00899461      -0.00897825
C        2.47985803       8.59026137       3.78163278      -0.00404115      -0.00898503       0.01044534
C        9.88039242       0.02010528       3.71872650      -0.00665966       0.00931702       0.01112761
C        8.63534620       2.15117083       3.62327842      -0.00288162      -0.00277036       0.00097955
C        7.40795406       4.28860583       3.74260290      -0.00004254       0.00509182       0.00050268
C        6.18328107       6.41626919       4.02119229       0.01288758      -0.00836042      -0.00064536
C        4.94676920       8.57166869       3.97949764       0.00163217       0.00026547       0.00211940
C        0.00114152       1.44756094       3.60212328       0.00778837      -0.00431819       0.00373390
C       -1.27016063       3.54561019       3.45351208      -0.00191878      -0.00215165      -0.00384642
C       -2.47262474       5.70792156       3.52968465      -0.01135136       0.00325700      -0.00587554
C       -3.69077800       7.85429377       3.70068033       0.00031983       0.00197445      -0.01303526
C       -4.92026759      10.00566262       3.74593569      -0.00727926       0.00590589      -0.00377804
C        2.47614622       1.49857228       3.71494715      -0.00416257       0.00333189       0.01093020
N        1.16194721       3.56527459       3.39373119       0.01294211      -0.00730368       0.00791496
C       -0.06007136       5.64354835       3.22461458       0.00107934       0.00734624      -0.01834619
C       -1.21890617       7.84360286       3.47549859       0.01030692       0.00582939      -0.00121910
C       -2.46101100      10.00379933       3.65603543      -0.00996386      -0.00373602      -0.00413038
C        4.94331758       1.45102845       3.72696862      -0.00417437       0.00084739      -0.00474393
N        3.80084499       3.53113690       4.21836510       0.00217806      -0.00342064       0.00470103
C        1.27283544       7.89473403       3.48366847      -0.00027817      -0.00204367      -0.01660600
C        0.00578981       9.99109273       3.58923957       0.01194550      -0.00044031       0.00803300
C        7.40550578       1.44048665       3.64067297       0.00116158      -0.00046211      -0.00295580
C        6.19358433       3.55911038       3.82723300       0.00961354      -0.00171148      -0.00311567
C        5.03018106       5.64862173       4.29334960      -0.01820643       0.00206024      -0.00290003
C        3.69864346       7.92329736       4.11873072      -0.00683763       0.00489149       0.01237922
C        2.47411147      10.00540765       3.70534083      -0.00059530       0.00425459       0.00492572
C        9.86707767       1.43595746       3.63079010       0.00103029      -0.00001236      -0.01116030
C        8.63141359       3.57310011       3.61995063      -0.01511774      -0.00186687       0.00136733
C        7.41470673       5.71106565       3.80493194       0.00926505       0.00116656       0.00066144
C        6.17824830       7.85062810       3.97376059       0.01048616      -0.00430625       0.00547448
C        4.94712238       9.99821432       3.79370315      -0.00298634       0.00769678       0.00623765
Tl       1.93339001       4.21753654       6.01883103      -0.00511420      -0.00260177       0.00063816
