49
Lattice="12.336457 0.0 0.0 -6.168228499999997 10.683685154694365 0.0 0.0 0.0 15.0" Properties=species:S:1:pos:R:3:forces:R:3 energy=-427.49573101205726 free_energy=-427.49573101205726 stress="-0.006937855354080637 0.005526779078753566 -1.6034647466527316e-06 0.005526779078753566 -0.004874297970887919 -2.067092724676535e-06 -1.6034647466527316e-06 -2.067092724676535e-06 1.0320708971382901e-05" pbc="T T T"
C        0.00347277      -0.00075508       3.67394122       0.00031794       0.01022566      -0.00539813
C       -1.20342028       2.15451861       3.62766220       0.00304303       0.00556784       0.00016490
C       -2.46381024       4.28647525       3.79634682      -0.00202714      -0.00579550       0.00400028
C       -3.72470058       6.41329995       3.86485533       0.00735493      -0.01298454       0.00657992
C       -4.96911383       8.53503238       3.76577192      -0.00117385      -0.00296128       0.00681733
C        2.46249705       0.00474936       3.79858453       0.00742407      -0.00028337       0.00892098
C        1.27395169       2.09462286       3.45954378       0.00994986       0.00249087      -0.00265469
C       -0.07708679       4.36882606       3.43680405      -0.00238559      -0.00059520      -0.00205574
C       -1.28664258       6.45151887       3.80783203      -0.00483173       0.01408812      -0.00263170
C       -2.50173502       8.56031580       3.90565698      -0.00613214       0.00478344      -0.00782010
C        4.93431997      -0.00435995       3.91415659       0.00084031       0.00265445      -0.00207942
C        3.74988064       2.14831144       3.75073609      -0.01295514       0.00991985       0.00405579
N        1.12401251       6.47038647       3.62885456       0.00020433      -0.00856227      -0.01101406
C       -0.02828877       8.55570992       3.85146206       0.01080729      -0.00122735       0.00190227
C        7.41596654      -0.01066310       3.88312295      -0.00410829      -0.00577041      -0.00398186
C        6.21028566       2.10520844       3.91034885      -0.00037208      -0.01400807      -0.00460281
C        4.99107609       4.18241330       3.68859580       0.00678762      -0.00156976      -0.00168085
S        3.51386309       6.21763247       2.99417996      -0.00571625      -0.00861684      -0.00247551
C        2.44433839       8.54530128       3.66208560      -0.00281779       0.00543794       0.00613383
C        9.88239896      -0.00215248       3.73269214      -0.00475192       0.00046525       0.00595067
C        8.67031522       2.13020534       3.84424827       0.00191690       0.00820345       0.01209666
C        7.42956071       4.25947224       3.86834934      -0.00713593       0.00741247       0.00064416
C        6.15819572       6.37993081       3.67654140       0.00651584      -0.00164345       0.00577344
C        4.91407397       8.52676525       3.59924574      -0.00151920      -0.01114591      -0.00659244
C        0.02233154       1.43863883       3.58122573       0.00494328       0.01248744      -0.00431216
C       -1.22209270       3.58727905       3.62995937      -0.00477549      -0.00167042       0.00129974
C       -2.49095459       5.70752290       3.84496509       0.00774376      -0.00832958      -0.00050966
C       -3.73270042       7.83716941       3.85522434      -0.00287920      -0.01024454       0.01358374
C       -4.94566403       9.96946797       3.74657265       0.00360651       0.00609719       0.00535192
C        2.49106455       1.42439348       3.68101084       0.00080584      -0.00508634       0.00754568
S        1.41315001       3.73050808       2.91248967       0.00078818       0.00134492      -0.00470407
C       -0.05710487       5.78543105       3.60391704      -0.00295519       0.00403774      -0.00457443
C       -1.27287226       7.86140340       3.88713080       0.00008175       0.01565036      -0.01166517
C       -2.47963365       9.97873468       3.89444433       0.00444996       0.00301584      -0.00284195
C        4.96440872       1.41245577       3.87676038      -0.01293339       0.00143504       0.00169715
N        3.80778299       3.50130931       3.72520501       0.00469797       0.01000164      -0.01185209
C        1.18546819       7.82115416       3.70480102       0.00850139      -0.00871411      -0.00151074
C        0.00213388       9.97221174       3.90619535      -0.00016537      -0.00401489      -0.00721127
C        7.43936453       1.40706816       3.90496469       0.00542606      -0.00811374      -0.00733170
C        6.22444042       3.51533593       3.85491371       0.00588128      -0.01068740      -0.00237529
C        5.01047343       5.59657774       3.51377438       0.00130190       0.00113731       0.00332729
C        3.66307332       7.87081140       3.47832775      -0.01102431      -0.00381415       0.00192945
C        2.47342114       9.96409554       3.78181827      -0.00777050       0.00227399       0.00137547
C        9.90600325       1.43229683       3.74486353       0.00280366       0.00741516       0.00888757
C        8.66350632       3.55389524       3.85797978      -0.00852445       0.01026208       0.01351479
C        7.40211604       5.68069170       3.82449747       0.00152162       0.00182425       0.00307737
C        6.13988000       7.81219146       3.65836343       0.00151476      -0.00865217       0.00282696
C        4.93322604       9.96727343       3.67296065      -0.00250561      -0.00402100      -0.00118763
Tl       2.41316060       4.97786638       5.67073608       0.00023050       0.00027996      -0.01439386
