49
Lattice="12.336457 0.0 0.0 -6.168228499999997 10.683685154694365 0.0 0.0 0.0 15.0" Properties=species:S:1:pos:R:3:forces:R:3 energy=-427.8361012354654 free_energy=-427.8361012354654 stress="-0.0017405698560858532 -1.4628397230003665e-06 -9.495593209172854e-06 -1.4628397230003665e-06 -0.00024010062445141596 -3.587425540310115e-06 -9.495593209172854e-06 -3.587425540310115e-06 5.791927930115052e-06" pbc="T T T"
C       -0.01984173      -0.00068057       3.86936238      -0.00175468      -0.00280372       0.00125055
C       -1.25288631       2.13423954       3.95208700       0.00319382       0.00435538       0.00058408
C       -2.46192737       4.27157987       3.92271133      -0.00695122       0.00098304      -0.00768822
C       -3.69487542       6.40947779       3.81365871      -0.00182243       0.00337393      -0.00280181
C       -4.95861000       8.54319272       3.76873755      -0.00049615       0.00043810       0.00749408
C        2.44195602       0.01013574       3.86016345       0.00218331      -0.00041097       0.00617747
C        1.19424428       2.17612050       3.89860248       0.00543453       0.00301077       0.00009006
C        0.02179283       4.24422878       4.03722969      -0.00173521      -0.00160465      -0.00677222
C       -1.23436448       6.40872387       3.98443546      -0.00125858      -0.00341864       0.00115797
C       -2.48760783       8.54755359       3.90834418      -0.00068038      -0.00346005       0.00154004
C        4.91221118       0.00028152       3.80871113      -0.00368567      -0.00338269      -0.00373883
C        3.66231153       2.06935004       3.42281429       0.00383031      -0.00826756       0.00236141
N        1.17437087       6.43772067       4.04778714       0.00225494      -0.00514486      -0.00019289
C       -0.02345544       8.53762859       3.92572471       0.00143617      -0.00029797      -0.00244861
C        7.37833879      -0.00421505       3.85561988      -0.00070734       0.00109124       0.00083148
C        6.15728367       2.12717010       3.57147478      -0.00240164       0.00165802      -0.00392348
C        5.08930249       4.28059274       2.99067881      -0.00453708      -0.00039307      -0.00146684
S        3.57220452       6.41199265       2.54469064      -0.00061898      -0.00961267       0.00390676
C        2.43718448       8.53175095       3.75886760       0.00400887      -0.00105114      -0.00071285
C        9.84769072      -0.01081926       3.86757609      -0.00388069       0.00807602       0.00401700
C        8.62061722       2.13311975       3.83711777      -0.00197242      -0.00115933       0.00449603
C        7.42784582       4.27062890       3.62600020       0.00403100      -0.00015862      -0.01219237
C        6.21061442       6.42390926       3.40276600      -0.00347941      -0.00263518       0.00170073
C        4.91514843       8.54575007       3.60019808       0.00086189       0.00271336       0.00557422
C       -0.02350821       1.42894460       3.92556847       0.00362566      -0.00065717      -0.00041657
C       -1.23423923       3.55774911       3.98460139      -0.00431118       0.00394117       0.00109340
C       -2.46200401       5.69472442       3.92290775      -0.00470315       0.00109005      -0.01031461
C       -3.71595367       7.83323184       3.83763573      -0.00123957       0.00129446       0.00049830
C       -4.95818882       9.97063908       3.85573045       0.00101820      -0.00008846       0.00241997
C        2.43714740       1.43492437       3.75837373       0.00357424      -0.00051316       0.00341182
N        1.17428743       3.52894907       4.04811050       0.00266407       0.00319835      -0.00303103
C        0.02179449       5.72258024       4.03715991      -0.00078096      -0.00293892      -0.00702084
C       -1.25281998       7.83216075       3.95152288       0.00014094      -0.00230767       0.00529520
C       -2.48897449       9.97716375       3.86846337      -0.00136375      -0.00471461      -0.00003809
C        4.91518212       1.42066619       3.60002614      -0.00164741      -0.00165408       0.00804075
S        3.57192831       3.55500836       2.54492420       0.00090012       0.00589634       0.00511563
C        1.19433574       7.79058720       3.89917661       0.00416748      -0.00478267      -0.00248945
C       -0.01990854       9.96718941       3.86900002      -0.00122343       0.00225204       0.00428764
C        7.37798807       1.42316199       3.76884853      -0.00349713       0.00118653       0.00499570
C        6.21035152       3.54253502       3.40350233       0.00028064       0.00187748      -0.00107339
C        5.08911778       5.68585656       2.99125600      -0.00269981       0.00102960      -0.00704354
C        3.66215746       7.89765779       3.42224130       0.00736151       0.00272449       0.00632381
C        2.44207959       9.95643044       3.85964897       0.00042978       0.00087252       0.00874182
C        9.84888922       1.41872360       3.90799916       0.00129205       0.00726750       0.00152832
C        8.64154586       3.55688123       3.81382874      -0.00157420      -0.00375169      -0.00364658
C        7.42804422       5.69573535       3.62519259       0.00170258       0.00024515      -0.00702785
C        6.15719526       7.83914472       3.57118762       0.00054109       0.00081681      -0.00352663
C        4.91243015       9.96609576       3.80875694      -0.00660645       0.00467553      -0.00423282
Tl       3.01896697       4.98237553       5.40369691       0.01069573       0.00114168      -0.00113473
