49
Lattice="12.336457 0.0 0.0 -6.168228499999997 10.683685154694365 0.0 0.0 0.0 15.0" Properties=species:S:1:pos:R:3:forces:R:3 energy=-420.8708577431752 free_energy=-420.8708577431752 stress="-0.001181089244130479 0.0035902176859603585 2.1083309205051575e-05 0.0035902176859603585 -0.0038980385543641157 -1.466687134866827e-06 2.1083309205051575e-05 -1.466687134866827e-06 -4.01041671828165e-06" pbc="T T T"
C       -0.02387460      -0.02246887       3.81101065      -0.00573792      -0.00335528       0.00122257
C       -1.22103927       2.14582177       4.00699186       0.00060256       0.00330629       0.00824726
C       -2.47856073       4.27110096       3.94692611      -0.00426726       0.00181187       0.00589312
C       -3.73385410       6.39050894       3.77219277      -0.01230688      -0.00843136      -0.00713797
C       -4.98826647       8.50981397       3.68079260       0.00763812      -0.00253597      -0.00411767
C        2.43946803      -0.05478755       3.65665278      -0.01059084      -0.00375201       0.01107890
C        1.26412885       2.06363571       3.89092533      -0.00184621      -0.00299888       0.00997444
C       -0.06459225       4.36668430       4.24914170      -0.00179277       0.00757697       0.00545351
C       -1.29244546       6.43052275       4.03622398      -0.00460924      -0.00503760       0.00574703
C       -2.50618019       8.52270606       3.80451196       0.00631945       0.00019769       0.00235681
C        4.91478727      -0.03079785       3.67498036       0.00433857       0.00562988       0.00221657
C        3.68938181       2.01842184       3.23604114      -0.00631982       0.01459724       0.00810266
O        1.09962524       6.48401205       4.30095822       0.00072111      -0.00779400      -0.00061004
C       -0.03906009       8.53530640       3.94430855       0.00404025      -0.00100069      -0.00148329
C        7.37936687      -0.01491423       3.84480114       0.01053461      -0.00307790       0.00326843
C        6.17457444       2.09805175       3.46682820       0.00176967      -0.00267575       0.00887017
C        5.06920076       4.23652650       2.93917764       0.01341713       0.01035360      -0.00297945
S        3.48058333       6.33904013       2.70309079       0.00052110      -0.01070332      -0.00700980
C        2.40707039       8.51933769       3.86306305      -0.00159522       0.00307007       0.01048907
C        9.85079619      -0.01272769       3.89965949       0.00334265       0.00143719      -0.01620747
C        8.63378300       2.12470508       3.82722374      -0.00594795       0.00391120       0.00289301
C        7.41401346       4.24679045       3.58042328       0.00212695      -0.00364102       0.00595761
C        6.16416478       6.38778588       3.40347176       0.00699521       0.00272089      -0.01131794
C        4.88295761       8.52123696       3.61339046       0.00236493       0.00027889       0.00056210
C        0.00381544       1.41780232       3.92744959      -0.00168685      -0.00412378       0.01384678
C       -1.23091402       3.57860094       4.07805868      -0.00162938       0.00462518       0.00437549
C       -2.50445699       5.68642252       3.92866081      -0.01197668      -0.00146947      -0.00370224
C       -3.74623799       7.80957583       3.75268554       0.00565907      -0.00590304       0.00016530
C       -4.97451371       9.93572266       3.72628985      -0.01075422      -0.00358224       0.00406992
C        2.45918490       1.35845496       3.57089199       0.00059392      -0.00446530       0.00949307
S        1.48273967       3.66791966       4.46917962      -0.00211402       0.00395531      -0.00623074
C       -0.09479441       5.76701068       4.21181693       0.00086045      -0.00127414       0.00235261
C       -1.28517466       7.83802629       3.93681692       0.00514046      -0.00564068      -0.00131506
C       -2.49149226       9.93836059       3.69743856      -0.00227709       0.00388354       0.00431665
C        4.93154812       1.38500992       3.44551743      -0.00295132       0.00860850      -0.00094402
S        3.63318517       3.47309764       2.31418914      -0.00161471      -0.00702000      -0.00697151
C        1.15695947       7.84514120       4.00224011      -0.00243980      -0.00264164      -0.00527924
C       -0.02107062       9.96021980       3.82462854       0.01042589      -0.00069452      -0.00355690
C        7.39097290       1.41115261       3.72259331       0.00083128      -0.00412984       0.00346306
C        6.20889311       3.51151924       3.32624992       0.00445333       0.00243235       0.00155823
C        5.03778794       5.63971081       3.01883569       0.00509647       0.00881051      -0.01534135
C        3.63172272       7.86552444       3.51135148      -0.00593651       0.00867615       0.00116668
C        2.43703999       9.95189516       3.91024836       0.00756437       0.00297515      -0.00689103
C        9.87541177       1.42515689       3.93433432      -0.00420927       0.00350287      -0.00642208
C        8.63513915       3.54483378       3.79443892       0.00066236       0.00305801      -0.00188200
C        7.39206299       5.66958198       3.59408849      -0.00422882      -0.00943545      -0.01563206
C        6.11787751       7.80473132       3.55061104       0.01115172      -0.00020158       0.00227159
C        4.90416903       9.95292516       3.80592590       0.00164411      -0.00281516      -0.00403025
Tl       3.41150925       5.66383972       5.74739084      -0.01198293       0.00298127      -0.01035051
