50
Lattice="12.336457 0.0 0.0 -6.168228499999997 10.683685154694365 0.0 0.0 0.0 15.0" Properties=species:S:1:pos:R:3:forces:R:3 energy=-441.40637297043475 free_energy=-441.40637297043475 stress="0.002407940103504852 1.9371005819776854e-07 -7.271660309341358e-06 1.9371005819776854e-07 0.002407069659814089 1.8317567289868424e-06 -7.271660309341358e-06 1.8317567289868424e-06 2.190846820889112e-07" pbc="T T T"
C       -0.00522332       0.00076322       3.70929848       0.00148574      -0.00204358      -0.00603395
C       -1.22930074       2.14718042       3.70406476      -0.00110320      -0.00120543       0.00378843
C       -2.45552904       4.27133776       3.70419629      -0.00505731      -0.00769900       0.00106210
C       -3.70229943       6.40415299       3.70572694      -0.00143906       0.00246192       0.00032965
C       -4.94194549       8.54179138       3.70874261       0.00028158       0.00403238      -0.00301487
C        2.46624283       0.00553030       3.70645793      -0.00564109      -0.00322325       0.00028167
C        1.23731332       2.14498370       3.69454859      -0.00045271       0.00282078      -0.00401080
C        0.05494317       4.30477645       3.69685735       0.00555759       0.00531781      -0.00090193
C       -1.22396268       6.40811274       3.70631962       0.00594896      -0.00287950      -0.00130042
C       -2.46231184       8.54166138       3.71118985      -0.00349645       0.00228349      -0.00341777
C        4.93717136       0.00046381       3.70689837      -0.00233028       0.00259236      -0.00445651
C        3.69467740       2.14488174       3.68601918      -0.00440460       0.00598605      -0.00067281
O        2.46575510       4.18571907       3.73042142       0.00176028      -0.00858794       0.01295587
O        1.15525713       6.45285622       3.79431086      -0.00803929       0.00610723      -0.01121618
C        0.00471719       8.53584785       3.71091182       0.00437286      -0.00274867      -0.00213481
C        7.40748592      -0.01271076       3.70861645       0.00711132       0.00764164       0.00094156
C        6.16068547       2.14723562       3.69792785       0.00497521      -0.00008179      -0.00063548
C        4.87613832       4.30509261       3.67397005       0.00343728      -0.00314424       0.00256465
O        3.77457160       6.45213227       3.74733366       0.00752152       0.00269970       0.00868056
C        2.46573543       8.48013006       3.70637480      -0.00264272      -0.00828210       0.00207827
C        9.86037211      -0.01255929       3.70800971      -0.00203439       0.00260972       0.00448148
C        8.63393855       2.13524580       3.70455338      -0.00093053       0.00081800      -0.00173731
C        7.38702401       4.27127664       3.69787268       0.00115207      -0.00462447       0.00250754
C        6.15583313       6.40825616       3.69020299      -0.00639510      -0.00072647      -0.00099749
C        4.92716836       8.53604910       3.70217965      -0.00264908       0.00054160      -0.00726053
C       -0.00398163       1.42883700       3.70413788      -0.00016239      -0.00229645      -0.00062264
C       -1.20288463       3.57850122       3.70170487       0.00162181      -0.00005695       0.00769520
C       -2.46499125       5.69149362       3.70488963      -0.00091357      -0.00456153       0.00236931
C       -3.70215547       7.82997211       3.71008839      -0.00258230       0.00516867      -0.00442517
C       -4.93838586       9.97144633       3.70924110      -0.00154982      -0.00074397       0.00434056
C        2.46610308       1.42307538       3.69793141      -0.00334460      -0.00202661      -0.01132276
C        1.25020843       3.53450733       3.69286645       0.00325258       0.00445211       0.00619215
C       -0.01473678       5.72457629       3.71859092       0.01081143       0.00449882      -0.01075197
C       -1.23479565       7.83296033       3.71026830      -0.00053740      -0.00018928       0.00216460
C       -2.46578816       9.97123385       3.70932322      -0.00564692       0.00027190      -0.00011610
C        4.93577176       1.42850342       3.69679830       0.00007296       0.00513941       0.00319330
C        3.68126480       3.53447832       3.67945619      -0.00185414       0.00513058       0.00323076
C        1.20129032       7.83040450       3.72517258       0.00022046      -0.01090593      -0.01343942
C        0.00470179       9.96890856       3.70936281       0.00600615       0.00508601      -0.00056290
C        7.40099091       1.42337555       3.70391109       0.00435851       0.00625279       0.00655657
C        6.13401400       3.57872776       3.69051503       0.00441977      -0.00343567       0.00103211
C        4.94587772       5.72511559       3.68588402      -0.00607635      -0.00188076       0.00375063
C        3.73035994       7.83012622       3.70470724      -0.00248137      -0.00430595       0.00766285
C        2.46570629       9.93262612       3.70852856       0.00139632      -0.00301313       0.00358568
C        9.86686750       1.42345128       3.70562535      -0.00364228       0.00206487       0.00825989
C        8.63401834       3.55894229       3.70279043      -0.00395096      -0.00632609       0.00185817
C        7.39675022       5.69146304       3.69835618      -0.00197738      -0.00291539      -0.00383536
C        6.16678366       7.83309701       3.70219046       0.00056816       0.00271998      -0.00602827
C        4.92693685       9.96916992       3.70846214      -0.00100269       0.00279552      -0.00288519
Tl       2.49389517       5.65950567       6.11685142       0.00600549      -0.00158915       0.00021706
