50
Lattice="12.336457 0.0 0.0 -6.168228499999997 10.683685154694365 0.0 0.0 0.0 15.0" Properties=species:S:1:pos:R:3:forces:R:3 energy=-435.82355625793065 free_energy=-435.82355625793065 stress="-0.0050910228572310255 -5.045225705449604e-05 8.133293119022723e-06 -5.045225705449604e-05 -0.005093977222104168 6.089933851973868e-06 8.133293119022723e-06 6.089933851973868e-06 -1.9140928785999973e-06" pbc="T T T"
C       -0.00001868      -0.00317404       3.98289914      -0.01270049       0.00055439       0.00021307
C       -1.23937463       2.12772245       4.03030988       0.00502533      -0.00545597       0.00118163
C       -2.47675932       4.27124557       4.03510870       0.00783830      -0.00334321      -0.00433381
C       -3.70224711       6.40979152       3.98832654      -0.00535125      -0.00979179       0.00655192
C       -4.93846484       8.54343476       3.92377526       0.00410881       0.00150736      -0.00350437
C        2.46587534       0.00032493       3.92476923      -0.00113973      -0.00583002      -0.00097267
C        1.21590147       2.11209496       3.68906926      -0.00064477       0.00693988       0.00280100
C       -0.07692886       4.22774521       3.52521750      -0.00736508       0.00049273       0.00314806
C       -1.26164217       6.40491230       3.69720258       0.00123676      -0.00233188       0.00168741
C       -2.46710422       8.54409704       3.93091983       0.00679286      -0.00753791      -0.00646744
C        4.93191388      -0.00295133       3.98790653       0.01072263       0.00242732      -0.00298485
C        3.71632069       2.11238386       3.68673625      -0.00101188       0.00782696      -0.00012412
P        2.46272354       4.18712819       2.38557270       0.01094977      -0.00088979      -0.00995200
P        1.15589571       6.44951144       2.38553696      -0.00473865       0.00676750       0.00276592
C       -0.01160630       8.56876667       3.69625434      -0.00104619       0.00020822      -0.00865900
C        7.39686632       0.00461448       4.02707734       0.00631007      -0.00336427       0.00893967
C        6.17197420       2.12743438       4.02424811      -0.00529768       0.00513639       0.00199216
C        5.01063909       4.22695341       3.50825838       0.00207954       0.00137806       0.00569410
P        3.77724877       6.45406102       2.36725340       0.00584332      -0.00807018       0.00829227
C        2.46607706       8.63205328       3.51442878      -0.00020953       0.00091057       0.00357629
C        9.87176610       0.00431124       4.02519355      -0.00037717       0.00277081       0.00166711
C        8.63472104       2.13393316       4.16296940      -0.00557437       0.00388806      -0.00327375
C        7.40922496       4.27061759       4.02540247      -0.00667864       0.00121156       0.00301652
C        6.19478041       6.40416989       3.68150146      -0.00338505       0.00177771      -0.00266202
C        4.94389704       8.56955023       3.68242557       0.00481208       0.00007780      -0.00566987
C       -0.00662284       1.41585416       3.94048940       0.00003067      -0.00098072       0.00527493
C       -1.25872625       3.54578564       3.91691458       0.00733474      -0.00710748      -0.00141747
C       -2.47630847       5.69488886       3.94845822      -0.00029901      -0.00567678      -0.00254705
C       -3.70273715       7.83428452       3.96248680       0.00276366      -0.00816459      -0.01337138
C       -4.93465684       9.96842735       3.95768593      -0.01073619       0.00248953      -0.00885990
C        2.46612457       1.41375239       3.75264696       0.00049617       0.00156981       0.00795777
C        1.13102130       3.48424878       3.32647472       0.00272154       0.01105796       0.00094617
C       -0.11587813       5.64599350       3.33032833      -0.00209133       0.00589176       0.00164821
C       -1.24238268       7.83679336       3.76214544       0.00668841      -0.00499415       0.00352357
C       -2.47015720       9.96897781       3.96173872       0.00903726      -0.00390980      -0.00481265
C        4.93872559       1.41588011       3.93933952       0.00088762       0.00581136       0.00019802
C        3.80049889       3.48388693       3.31986489      -0.00136809       0.00934093      -0.01044145
C        1.21781992       7.95548805       3.32692536      -0.00652550      -0.00134767      -0.00759053
C       -0.00428672       9.97619695       3.94493377       0.00946891       0.00082570      -0.00472181
C        7.40055454       1.42161158       4.12454922      -0.00612066       0.00056759       0.00469340
C        6.19165898       3.54491313       3.90328631      -0.00577891       0.00416563       0.00038327
C        5.05080567       5.64538336       3.30908738      -0.00872655       0.00569285       0.00452246
C        3.71422123       7.95806074       3.31285937       0.00341112      -0.01155898       0.00474807
C        2.46597813       9.99616834       3.90764185       0.00541448      -0.00279165      -0.00227674
C        9.86874077       1.42122743       4.12669181      -0.00173534       0.00311931       0.00290579
C        8.63433455       3.55926723       4.12886540      -0.00014340       0.00499261       0.00074493
C        7.40887665       5.69441338       3.93913726      -0.00842575      -0.00517328      -0.00472502
C        6.17420463       7.83634759       3.74811326       0.00343915      -0.00004029       0.00994782
C        4.93629530       9.97625266       3.93659017      -0.00714122       0.00031955       0.00425436
Tl       2.47849527       5.69986992       4.99504144      -0.00280078      -0.00135949       0.00609199
