49
Lattice="12.336457 0.0 0.0 -6.168228499999997 10.683685154694365 0.0 0.0 0.0 15.0" Properties=species:S:1:pos:R:3:forces:R:3 energy=-429.7169387276295 free_energy=-429.7169387276295 stress="-0.0013551695334887836 -0.0037175919298121918 8.105093498631105e-06 -0.0037175919298121918 -0.0004078275290678796 -5.377979890168188e-06 8.105093498631105e-06 -5.377979890168188e-06 -3.564290179973244e-06" pbc="T T T"
C        0.00124809      -0.01931245       3.66184997      -0.00094299       0.00960504       0.00876298
C       -1.26329819       2.10369608       3.85744310       0.00193156       0.00039503       0.00041125
C       -2.49110316       4.25576265       3.64372347       0.01075960       0.00022258       0.01180257
C       -3.67865457       6.40325162       3.42672175       0.00158398      -0.00194997      -0.01452390
C       -4.90707157       8.54781463       3.42020806      -0.00353758       0.00146418      -0.00020884
C        2.47747076      -0.03007294       3.77057960       0.00104517       0.00431599       0.00342365
C        1.19798959       1.98999739       4.32528023       0.00354506      -0.01625993       0.00084778
C       -0.14673682       4.27212015       4.28828803      -0.00598006       0.00313983       0.00399033
C       -1.23957220       6.39697667       3.78859551       0.00712473      -0.00352603      -0.01141593
C       -2.43791425       8.53290357       3.59666504      -0.00066750       0.00316311      -0.00137935
C        4.94942110      -0.01248920       3.72177991       0.00283423       0.00405892       0.01255896
C        3.69522872       2.08171402       4.09435184      -0.00280600       0.00459498      -0.01468891
B        1.23816444       6.40368833       4.40199016      -0.00658150      -0.00889521       0.00262969
C        0.03712774       8.51544913       3.75542006      -0.00760375       0.00341170       0.01667351
C        7.40985688      -0.01678784       3.61243201      -0.00260596      -0.00208762      -0.00953317
C        6.14923573       2.15438416       3.64209488      -0.00123567      -0.01322127      -0.00405042
C        4.94957327       4.38526515       3.50825979       0.01453417       0.01075189       0.00389439
O        3.79359809       6.48781902       3.19687887       0.00173021      -0.00645066       0.00169645
C        2.50973511       8.50025425       3.60517175       0.00582801       0.00398089      -0.00270219
C        9.86912991      -0.02047335       3.55530652       0.00083848      -0.00268434       0.00964434
C        8.62133861       2.12448525       3.56435506       0.00334788       0.00135292      -0.00739481
C        7.39653473       4.27595234       3.40245730      -0.01236895      -0.00302117      -0.00313239
C        6.20432609       6.44002840       3.20140034      -0.00512483       0.00259320      -0.00374011
C        4.96272209       8.54902988       3.36797702       0.00313819       0.00018583      -0.00481137
C       -0.02438157       1.37835576       3.95280577      -0.00054381       0.00359571       0.00871011
C       -1.29253294       3.52817576       3.91832658       0.01209136      -0.00238927       0.00186882
C       -2.46625339       5.68371695       3.60073473       0.00707983      -0.00002094      -0.00109796
C       -3.66902139       7.82984472       3.46141838      -0.00204260      -0.00116931      -0.00570871
C       -4.92084937       9.95986403       3.60941189      -0.00233286       0.00632790      -0.00614284
C        2.45807998       1.35986312       4.07974917       0.00168584       0.00095874       0.00994408
P        1.10382422       3.48503712       5.24760223      -0.00786148       0.00486273      -0.01187589
C       -0.06151924       5.68259622       4.15401870      -0.00361201      -0.00027556      -0.00009967
C       -1.20654505       7.81393892       3.71357620      -0.00564542      -0.00246432       0.00080273
C       -2.44831668       9.95381286       3.68282562       0.00295416       0.00647012       0.00998809
C        4.93437663       1.42326564       3.81475647      -0.00280557       0.00082517      -0.00492360
P        3.64384003       3.78434794       4.46934166      -0.00024588      -0.01563649       0.00163697
C        1.28548747       7.80928783       3.86706835      -0.00254384       0.01121892      -0.01233784
C        0.01452240       9.95261726       3.67282231      -0.00159150       0.00141399       0.01155828
C        7.38611028       1.42046160       3.58325506       0.00243068      -0.00572205      -0.00274191
C        6.15209364       3.58800726       3.49957810      -0.00693524      -0.01268297      -0.00116403
C        4.98009935       5.77810782       3.26189999      -0.00078700      -0.00385951      -0.00587422
C        3.75922802       7.83840268       3.40931810       0.00814118      -0.00917031      -0.00167230
C        2.48237978       9.93855232       3.56169894      -0.00119556       0.00342433      -0.00390421
C        9.85776949       1.40775152       3.63811627       0.00258819      -0.00203201       0.00748622
C        8.62194555       3.55034100       3.51400175       0.00279768       0.00515371      -0.00557842
C        7.42358129       5.69754821       3.31505205      -0.00987261       0.00216827      -0.00542331
C        6.20559063       7.85353157       3.28798674      -0.00227261       0.00031344       0.00292410
C        4.94061869       9.96533456       3.51293136       0.00250526       0.00368088       0.01044852
V        2.41891530       5.17432956       5.71719289      -0.00077265       0.00986893       0.00442248
