50
Lattice="12.336457 0.0 0.0 -6.168228499999997 10.683685154694365 0.0 0.0 0.0 15.0" Properties=species:S:1:pos:R:3:forces:R:3 energy=-448.14647771690954 free_energy=-448.14647771690954 stress="-0.002332708514735355 0.0034352940389111375 1.72795985625461e-06 0.0034352940389111375 -0.002077462046199454 1.2447681053486427e-06 1.72795985625461e-06 1.2447681053486427e-06 7.337992526353645e-06" pbc="T T T"
C        0.00156277       0.02590710       3.63223554       0.00561218       0.00422734       0.00077516
C       -1.21662849       2.16624015       3.67535418      -0.00844446       0.00566009       0.00387097
C       -2.44828941       4.30007677       3.77200533      -0.00176856      -0.00116460       0.00863603
C       -3.70499378       6.43156638       3.78211379       0.00293986       0.00378280      -0.00326258
C       -4.95436531       8.56207804       3.67516288      -0.00511795      -0.00915917       0.00938510
C        2.46068185       0.02307238       3.74908026       0.00507452      -0.00363681       0.00081537
C        1.25524437       2.18284523       3.57398442       0.00229907      -0.00244430      -0.00411947
C       -0.00206970       4.32385852       3.61603218       0.00499277      -0.00284991       0.00592104
C       -1.24513347       6.44605080       3.82030549      -0.00722016       0.00401286      -0.00076713
C       -2.48544035       8.57332463       3.85744935      -0.00534638       0.00796847       0.00922021
C        4.93503633       0.01512518       3.94505824      -0.00459865      -0.00432685      -0.00554609
C        3.72079220       2.13489434       3.77466327      -0.00414947       0.00802751       0.00073394
B        2.61556208       4.31161663       2.94811296       0.00608063       0.00752416       0.00775974
C        1.21455636       6.44660312       3.92691039       0.00535562      -0.00448788       0.00457311
C       -0.01125556       8.57043821       3.97511868       0.00378035      -0.00244323       0.00553327
C        7.41095864       0.01778915       3.95666103      -0.00223682       0.00208568      -0.00392852
C        6.19830512       2.13296443       3.95454077       0.00505818      -0.01003932      -0.01096154
C        5.01320961       4.23693540       3.73428040      -0.00110444      -0.00403190      -0.00796784
P        3.34998292       6.14528918       3.10970498       0.00351821      -0.00472719       0.00270307
C        2.45028776       8.58972893       3.77477343       0.00281484       0.00315974       0.00750536
C        9.87942957       0.02494760       3.74066497      -0.00807842      -0.00398539       0.00841771
C        8.66039874       2.15446615       3.86780432       0.01536532       0.00375357       0.00290279
C        7.43774002       4.28729167       3.85476298      -0.00570906      -0.00089489      -0.00690972
C        6.16725607       6.41319119       3.63391924       0.00135447      -0.00345990      -0.00789641
C        4.90744059       8.55383516       3.53285691      -0.00628137       0.00455140      -0.00469690
C        0.02130895       1.46061484       3.62234543      -0.00527887       0.00862309       0.00229309
C       -1.21573916       3.59455752       3.67853704       0.00102804       0.00433359       0.00424144
C       -2.46538441       5.72622683       3.79285084      -0.00390847      -0.00274277      -0.00182702
C       -3.71657641       7.85772892       3.76983476       0.00172748       0.00252461      -0.00540765
C       -4.94017221       9.99196777       3.67388923       0.00645523      -0.00797077       0.00649507
C        2.47244555       1.45393767       3.69213332       0.00168248      -0.00258532       0.00462309
C        1.26014497       3.63836151       3.44191207       0.00633578      -0.00637200      -0.00242266
C       -0.00658336       5.73825640       3.77506249      -0.00527582       0.00086794       0.00790652
C       -1.25160835       7.86414207       3.90912056      -0.00622546       0.00665338       0.00388624
C       -2.47847000       9.99602793       3.86288073      -0.00124157       0.00162656      -0.00244969
C        4.94995634       1.42876151       3.91917876      -0.00507561      -0.00299608      -0.00247271
C        3.76977244       3.54187544       3.64598108       0.00170057       0.00442273      -0.01724236
C        1.22024810       7.85753946       3.93318181       0.00891007       0.00564644      -0.00337726
C        0.00046577       9.99004325       3.98528177      -0.00328374      -0.00291917      -0.00637624
C        7.42592165       1.43507920       3.95099181       0.01737092       0.00273131      -0.00029698
C        6.22437755       3.55131264       3.88974609      -0.00640822      -0.00834339      -0.01318378
C        4.98528299       5.63187598       3.55888162       0.00109161       0.00140295      -0.01060044
C        3.63646950       7.89122296       3.45498373       0.00194224      -0.00528820       0.00490484
C        2.47343454      10.00266872       3.84622848      -0.00818932       0.00010223       0.00481032
C        9.89063817       1.45012814       3.76699728       0.00159884      -0.00456543       0.00637452
C        8.66611360       3.58005888       3.84530325      -0.00193934       0.00268187       0.00196715
C        7.40938206       5.71223214       3.76274496       0.00271129       0.00236608       0.00178140
C        6.14959903       7.84339583       3.58716408      -0.00980900      -0.00384811      -0.00391865
C        4.93283275       9.98742767       3.62548270      -0.00218270       0.00670111       0.00217348
V        2.29415017       4.87912632       4.83638937       0.00207333      -0.00015495      -0.00457837
