49
Lattice="12.336457 0.0 0.0 -6.168228499999997 10.683685154694365 0.0 0.0 0.0 15.0" Properties=species:S:1:pos:R:3:forces:R:3 energy=-438.0415319546099 free_energy=-438.0415319546099 stress="-0.004358012893008617 -0.0026611200942484358 -6.0452611932528975e-06 -0.0026611200942484358 -0.003355953851802734 2.3717111177579153e-07 -6.0452611932528975e-06 2.3717111177579153e-07 1.4213084986620755e-07" pbc="T T T"
C       -0.00892551       0.00059342       3.80855766       0.01201223       0.00263845       0.00269152
C       -1.25812705       2.12015618       3.80976333      -0.00272285       0.00067475       0.00415466
C       -2.47765469       4.26434342       3.82612547       0.00819555       0.00206440      -0.00277980
C       -3.68796243       6.40959304       3.83439593       0.00693766       0.00291067      -0.00607232
C       -4.92370626       8.55803286       3.83487461      -0.00724975      -0.00085857      -0.00465142
C        2.45865324       0.00825114       3.74947244       0.01003616      -0.00496333       0.00285431
C        1.19715758       2.15402944       3.76210037      -0.00070030      -0.00451807       0.00901206
C       -0.02637835       4.21695140       3.89574044       0.00119444      -0.00595409       0.00508131
C       -1.21878357       6.39255709       3.87538843       0.00234332       0.00002116       0.00331241
C       -2.46012461       8.54499100       3.81819651      -0.00434590       0.00669589      -0.00022658
C        4.92515588       0.00482730       3.68063525       0.00206022      -0.00156187       0.00180225
C        3.66856361       2.10516019       3.39236351      -0.00799359      -0.00576322       0.00997300
B        1.32483167       6.36358886       3.94869909      -0.00735578       0.00338132       0.00574808
C       -0.00186002       8.54757140       3.81785278       0.00232999       0.00142248      -0.00169222
C        7.39023903       0.00608882       3.73715442      -0.00491832      -0.00318551      -0.00743284
C        6.15431460       2.14343804       3.57581312      -0.00185581      -0.00349375       0.00180096
C        4.97206263       4.32259259       3.52473724       0.00108034       0.01071060      -0.00285806
C        3.72128586       6.40960761       3.70355429      -0.00844797      -0.00457813      -0.00622872
C        2.47028794       8.56393205       3.81757680       0.00085875      -0.00930341       0.00178007
C        9.86028069      -0.00214358       3.79437537      -0.00945389      -0.00241369      -0.00633611
C        8.61852215       2.13502318       3.74673429      -0.00087482       0.01277673       0.00078126
C        7.40222139       4.27741851       3.73166929       0.00447745       0.00225312      -0.00471641
C        6.20029997       6.43692003       3.76614230       0.00866397       0.00005473      -0.00000721
C        4.93595570       8.54679008       3.80901508      -0.00532433      -0.00203696       0.00295596
C       -0.02085670       1.42250206       3.79472826       0.00078305       0.00380713       0.00701751
C       -1.25943959       3.53206573       3.83784219       0.00196233      -0.00232455       0.00524496
C       -2.46145919       5.69035022       3.84941683       0.00542877      -0.00104539      -0.00249312
C       -3.69197595       7.83705255       3.83843594      -0.00581850       0.00537966      -0.00158334
C       -4.93490609       9.97981244       3.81358796       0.01090623      -0.00173040      -0.00121555
C        2.44120962       1.43609283       3.63858041      -0.00253419      -0.00898156       0.00391449
N        1.17128525       3.53151727       3.89201593      -0.00048871      -0.00420909       0.00305426
C        0.00625558       5.64394870       3.91973184       0.00095382      -0.00534106       0.00650750
C       -1.22743206       7.82450384       3.84146671      -0.00111073       0.00437572      -0.00174746
C       -2.47272221       9.97373739       3.75016262       0.00650613       0.00209058       0.00259437
C        4.91767227       1.42692740       3.53184784      -0.00541589      -0.00676201       0.00520548
P        3.63386396       3.68519822       2.56561308      -0.00789167       0.00339139      -0.00299592
C        1.24338820       7.85977931       3.85246124       0.00082292      -0.00174770       0.00390927
C       -0.01006945       9.97722425       3.74530079      -0.00164287      -0.00052965       0.00078921
C        7.38208309       1.43032810       3.68439573       0.00167135       0.00183744       0.00217009
C        6.17293680       3.56738273       3.60198312      -0.00128494       0.00206908      -0.00509258
C        4.96974618       5.75016343       3.66524209       0.00356367       0.00914282      -0.00202894
C        3.69460845       7.81958243       3.78742349      -0.00319336      -0.00470818      -0.00050393
C        2.46019668       9.98115063       3.78749577      -0.00900377      -0.01098807      -0.01038365
C        9.84974084       1.41748438       3.78640401      -0.00683538       0.00358820      -0.00141854
C        8.62316742       3.55895300       3.77065094       0.00695774       0.01111108       0.00019794
C        7.41656058       5.70546836       3.78450652       0.01197996       0.00006957      -0.00823277
C        6.18286719       7.85172717       3.81699222      -0.00498041      -0.00297483      -0.00486520
C        4.92717550       9.96579197       3.81327789       0.00318718       0.00209887      -0.00248703
V        2.62718749       4.77949066       4.32421813      -0.00346951       0.00540728      -0.00450320
