49
Lattice="12.336457 0.0 0.0 -6.168228499999997 10.683685154694365 0.0 0.0 0.0 15.0" Properties=species:S:1:pos:R:3:forces:R:3 energy=-426.76502298511224 free_energy=-426.76502298511224 stress="-0.0019568012701001833 0.001659604344732367 4.04798375258233e-06 0.001659604344732367 -0.008584602941537558 -2.190550455702745e-05 4.04798375258233e-06 -2.190550455702745e-05 5.388057931488853e-06" pbc="T T T"
C        0.01227182       0.00078661       3.59847009      -0.00214162       0.00006092       0.01086646
C       -1.21003435       2.15583278       3.47092257       0.00116650       0.00334308      -0.00222629
C       -2.44858594       4.28774025       3.61120800       0.00167302      -0.00446312      -0.00136050
C       -3.68180091       6.41495286       3.73083579       0.00782082      -0.00886404      -0.00656269
C       -4.94073674       8.53043464       3.66894442       0.00244659      -0.00130720       0.00447268
C        2.47720345      -0.02469076       3.75354293       0.00856402       0.00507429      -0.00905045
C        1.27734687       2.09438379       3.42935938      -0.00270955      -0.00351999      -0.00907203
C       -0.04689519       4.30891950       3.13488288      -0.00331445      -0.00366260       0.01087950
C       -1.21633694       6.42711603       3.61712237      -0.00296002       0.00087975       0.00231848
C       -2.45397504       8.54487147       3.75523125      -0.00192120       0.00542337       0.01104094
C        4.94182111       0.01213049       3.92886478       0.00975767      -0.00269645      -0.00951156
C        3.68591397       2.06612314       4.21761194      -0.00545054       0.01056287      -0.00445414
B        1.33195411       6.45878538       3.80825230       0.00303269      -0.00654398      -0.00565079
C        0.00518815       8.58521503       3.80147541      -0.00189584      -0.00211128      -0.00624084
C        7.40852642       0.04702735       3.87295045       0.00122479       0.00516071      -0.01018890
C        6.18940571       2.15110895       4.14710730      -0.01199715      -0.00617920      -0.01065743
C        5.03931789       4.31199650       4.41888235      -0.00100361       0.00584294       0.01099933
S        3.45007058       6.19749614       3.32523459      -0.00131722      -0.01192915       0.00395409
C        2.47209705       8.63672263       3.70299316      -0.00327333       0.00135894      -0.00852406
C        9.89326308       0.04030746       3.67912331       0.00226416      -0.00172383      -0.00490827
C        8.66049149       2.16421293       3.80927675       0.00466304       0.00430670       0.00134835
C        7.44016382       4.28551347       3.96008798       0.00162769       0.00339151      -0.00260721
C        6.17476678       6.40524372       3.80435334      -0.00478636       0.00326109       0.01614736
C        4.92905094       8.54460494       3.60214125       0.00606460      -0.00315870       0.00534392
C        0.01917321       1.42873763       3.49409541      -0.00557099      -0.00036172      -0.00135156
C       -1.23893512       3.56523856       3.37932032      -0.00430203      -0.00027681       0.01105668
C       -2.44704730       5.71044313       3.65185880       0.00632090      -0.01008303      -0.01122252
C       -3.69265882       7.83347127       3.71144231       0.00205611      -0.00531837       0.00243981
C       -4.92881078       9.95762420       3.65279663       0.00399326       0.00300285      -0.00384477
C        2.48655615       1.40896214       3.79848678      -0.00302620       0.00514725       0.00476765
S        1.29467270       3.46883465       2.30548531       0.00222799      -0.00982120       0.00916183
C        0.02384966       5.70176842       3.47312487      -0.00926368       0.00162987       0.00399704
C       -1.21896616       7.84505064       3.74386456      -0.00479609       0.00243248       0.00088860
C       -2.45535987       9.96648161       3.82404251       0.00909321       0.00615592       0.00534196
C        4.94902041       1.43006942       4.11060019      -0.00961049      -0.00663863      -0.00406358
S        3.65132470       3.52673764       5.16275522       0.00008513       0.00948678       0.01104611
C        1.25554497       7.93938402       3.77430584      -0.00287166      -0.00491255      -0.00282582
C        0.00793360      10.01009486       3.87753215       0.00757626      -0.00127461      -0.01657194
C        7.41525308       1.46220402       3.95111769      -0.00049715       0.00341400       0.00697048
C        6.22558047       3.56816278       4.21666259      -0.00189857      -0.00179377      -0.00002846
C        4.98172937       5.63439594       3.97057840      -0.01585851       0.01077759      -0.00320861
C        3.67060679       7.90852592       3.55877918       0.00219007       0.00774656      -0.00736567
C        2.48305298      10.04889248       3.76029552      -0.00201630       0.00373487      -0.00798757
C        9.89630273       1.46034073       3.65667317       0.00493191       0.00124922      -0.00879464
C        8.66512284       3.57832639       3.79948734       0.00399495       0.00322181       0.00265669
C        7.42315535       5.70396995       3.83630883      -0.00076908       0.00297233       0.00809313
C        6.15965140       7.81967909       3.65624932       0.00371230      -0.00528382      -0.00025618
C        4.94167208       9.98427840       3.61597163       0.00209266      -0.00453658       0.01319414
V        1.91848074       4.57003995       4.12401039       0.00467131      -0.00317708       0.00155124
