49
Lattice="12.336457 0.0 0.0 -6.168228499999997 10.683685154694365 0.0 0.0 0.0 15.0" Properties=species:S:1:pos:R:3:forces:R:3 energy=-430.7557137335465 free_energy=-430.7557137335465 stress="0.0013177243946676097 -0.0033771563987603256 -6.773231570525271e-06 -0.0033771563987603256 -0.0008717571709667646 2.8824281225944707e-07 -6.773231570525271e-06 2.8824281225944707e-07 1.9610893484539835e-06" pbc="T T T"
C       -0.03652081       0.00169941       3.99225595       0.00983684       0.00069408      -0.00520327
C       -1.29033193       2.13231673       4.06416571      -0.00305516       0.00486740      -0.00302101
C       -2.51060140       4.28534101       3.94721828      -0.00099914       0.00053596      -0.00200420
C       -3.71887098       6.42109230       3.81646271       0.00221944      -0.00161998      -0.00063072
C       -4.95899916       8.55583812       3.87897130       0.00018118      -0.01061598       0.00029997
C        2.42347247       0.03752529       3.87518790       0.00082589       0.00671314      -0.00391955
C        1.15122322       2.12762800       3.98468848       0.00119294       0.00274829       0.00560146
C       -0.07662446       4.20842903       4.03648657       0.00002395      -0.00676588       0.00093046
C       -1.21625475       6.38399848       3.82806693      -0.00175000      -0.00706839      -0.00399107
C       -2.47948710       8.55363194       3.80991569      -0.00361269       0.00638126      -0.00596249
C        4.89012924       0.03495473       3.69622516       0.00244148      -0.00198007      -0.00186662
C        3.62366300       2.19137779       3.52383178       0.00222473      -0.00254087       0.00503707
P        1.56760695       6.21638511       3.26803305      -0.00906266       0.00518859      -0.00795488
C       -0.02409189       8.55986235       3.67161744       0.00421564       0.00606515       0.00154582
C        7.35169302       0.03878433       3.75506283      -0.00147210      -0.00345279      -0.00157602
C        6.11811288       2.16147134       3.53872734       0.00514821       0.00194702       0.00504105
C        5.07979598       4.32275423       2.84032786      -0.01543549      -0.00598845      -0.00482772
B        3.53886042       6.35875607       3.69214574       0.00320653      -0.00408601      -0.00826638
C        2.45036118       8.62105548       3.73735550       0.00003531      -0.00194407      -0.00198035
C        9.83167556       0.02573681       3.93262983      -0.00986483      -0.00165865       0.00242620
C        8.58266191       2.15778672       3.84981062      -0.00029332      -0.00424211      -0.00260706
C        7.37604128       4.29324467       3.64514262       0.01003437       0.00543366       0.01430576
C        6.14856014       6.43403825       3.61839596       0.00131402       0.00212748      -0.00354852
C        4.90375023       8.55880274       3.86222818      -0.00883271       0.00429905       0.00839958
C       -0.05165011       1.42599194       4.04602727       0.00233053       0.00681587      -0.00212375
C       -1.29188516       3.54704417       4.07019746      -0.00260111       0.00379584       0.00004216
C       -2.47810324       5.70303987       3.87815629      -0.00430279      -0.00406111      -0.00909683
C       -3.71723904       7.84528821       3.84248903       0.00064166      -0.00265976      -0.00197900
C       -4.96467260       9.98680124       3.93728496       0.00902764      -0.00734205       0.00213627
C        2.39368038       1.46722755       3.82287713       0.00620318       0.00719994       0.00534902
O        1.10623848       3.49838084       4.13068361      -0.00185508      -0.00407621      -0.00152207
C       -0.00253384       5.59740282       3.83635874      -0.00100123      -0.00736738       0.00644069
C       -1.24075123       7.82331098       3.75208018       0.00069262       0.00290248       0.00073099
C       -2.50139412       9.99043575       3.79426985      -0.00380184       0.00827118      -0.00526896
C        4.87451590       1.47143914       3.57206418       0.00504541      -0.00847313      -0.00108113
P        3.47128133       3.62712757       2.39559252       0.00149622      -0.00031695       0.00278167
C        1.23254753       7.90309825       3.58275737       0.00276433       0.00522822      -0.00503858
C       -0.04445189      10.00155041       3.70241187       0.00249380       0.00062128      -0.00063413
C        7.34758806       1.45634937       3.72034373       0.00039088      -0.00305000       0.00199209
C        6.17512363       3.57615401       3.38414407      -0.00062713       0.01193448       0.01503944
C        4.93748844       5.73614501       3.29952055      -0.00158010       0.00033920      -0.00382092
C        3.66395941       7.88792539       3.77437672      -0.00419683      -0.00306858      -0.00499349
C        2.42703639      10.02847349       3.82844161      -0.00772373      -0.00544286      -0.00038201
C        9.82046621       1.44486126       3.97099347      -0.00517806      -0.00317731       0.00206304
C        8.58961249       3.58141710       3.83317646       0.00608343      -0.00346050       0.00383597
C        7.37602259       5.71733816       3.69647223       0.00820168       0.00286904       0.00369417
C        6.14784439       7.84417450       3.81341208      -0.00680429      -0.00061547       0.00432353
C        4.89747047       9.98436114       3.95202361      -0.00003804       0.00514698       0.00380966
V        3.98337385       4.35070002       4.45361119       0.00581643       0.00294899      -0.00252531
