49
Lattice="12.336457 0.0 0.0 -6.168228499999997 10.683685154694365 0.0 0.0 0.0 15.0" Properties=species:S:1:pos:R:3:forces:R:3 energy=-440.0070554848583 free_energy=-440.0070554848583 stress="-0.0053645042482982136 2.1003354255321236e-06 8.153358620073297e-06 2.1003354255321236e-06 -0.0035660114795576536 -2.708638315456597e-07 8.153358620073297e-06 -2.708638315456597e-07 -1.80861409014261e-07" pbc="T T T"
C        0.00539688       0.01319292       3.70575165       0.00401213       0.00424485       0.00148305
C       -1.23523489       2.13249122       3.67188248       0.00718161       0.00674341      -0.00586137
C       -2.46552251       4.26966193       3.60129870      -0.00541990      -0.00075311      -0.00666032
C       -3.69400544       6.41107064       3.59275724       0.00204332      -0.00664080       0.00378919
C       -4.93003215       8.55184696       3.65661025      -0.00545052       0.00289991       0.00001125
C        2.46549946      -0.00264037       3.72344151       0.00090282      -0.00408976       0.00474491
C        1.24231025       2.17224479       3.83178495       0.00184375      -0.00509289       0.00199909
C       -0.01189968       4.26720994       3.78144275      -0.00166105      -0.00009198      -0.00662169
C       -1.24221338       6.41306144       3.65559687      -0.00335022      -0.00237384      -0.00745430
C       -2.46749140       8.54732517       3.64650129      -0.00095171      -0.00115184      -0.00008886
C        4.94114536      -0.01382614       3.70765977       0.00697491       0.00217462       0.00745412
C        3.70202965       2.10228765       3.85964751      -0.00814426      -0.00736546       0.00558780
C        1.21381999       6.38158410       3.92227481      -0.00767471       0.00482706      -0.01163480
C        0.00404279       8.53031323       3.73142365       0.00961363      -0.00217230      -0.00120720
C        7.40439469      -0.00901088       3.69235114      -0.00480865      -0.00103153       0.00199990
C        6.17809163       2.12415765       3.69976833       0.00425983       0.00130740      -0.00208374
C        4.98093589       4.27901256       3.82981619       0.00825077      -0.00265376      -0.00224144
B        3.65520225       6.38121287       4.05001451      -0.01575069       0.00451472       0.00388241
C        2.46445461       8.54955208       3.81881972      -0.00037034       0.00631296       0.00655649
C        9.86985914      -0.00143908       3.69050092      -0.00138498      -0.00528864       0.00405807
C        8.63847404       2.12917230       3.61995367      -0.00317214       0.00670532       0.00593737
C        7.41898474       4.26882882       3.61472096       0.00253464       0.00681448      -0.00400421
C        6.18777045       6.41782744       3.69280759       0.00999067      -0.00032289      -0.00437092
C        4.94400334       8.55634511       3.75402259       0.00170215      -0.00685537       0.00651829
C        0.00422625       1.43604728       3.73074076       0.00672876       0.00739283      -0.00010273
C       -1.24213844       3.55341203       3.65555399      -0.00376888       0.00467379      -0.00762442
C       -2.46571190       5.69711375       3.60053309      -0.00100380      -0.00804047      -0.00072965
C       -3.69788435       7.83710339       3.62048664      -0.00715087      -0.00106981       0.00264262
C       -4.93216645       9.97528703       3.69268768      -0.00147277       0.00506147       0.00058501
C        2.46454046       1.41712822       3.81814372      -0.00366336      -0.00980453       0.00561094
C        1.21378163       3.58496146       3.92069420      -0.00220426      -0.00242560      -0.00789497
C       -0.01192386       5.69937397       3.78241358      -0.00293045      -0.00005967      -0.01219384
C       -1.23530933       7.83390664       3.67175602       0.00562617      -0.00209021      -0.00340328
C       -2.46688535       9.96817526       3.69026320       0.00466129       0.00089785       0.00619255
C        4.94413217       1.41028653       3.75398174       0.00073974       0.00092203       0.00241676
B        3.65556162       3.58488853       4.04968023      -0.01900417       0.00348561       0.00330180
C        1.24214702       7.79436909       3.83295948       0.00563257       0.00412391       0.00181530
C        0.00531111       9.95322051       3.70607147       0.00428011      -0.00355664       0.00000004
C        7.40628579       1.41443261       3.65595219      -0.00129633       0.00087151      -0.00011468
C        6.18766105       3.54863817       3.69136841       0.01383217       0.00142212       0.00110868
C        4.98095439       5.68756245       3.83000390       0.00384856       0.00030772       0.00240890
C        3.70186149       7.86418457       3.86054195      -0.00512993       0.00679323       0.00235286
C        2.46586219       9.96931605       3.72338326      -0.00826100      -0.00088034       0.00668883
C        9.86896236       1.41926413       3.64656717       0.00174333       0.00008540      -0.00041960
C        8.64281309       3.55530829       3.59312419      -0.00630006       0.00685598      -0.00024407
C        7.41881658       5.69730138       3.61551256       0.00688423      -0.00133077      -0.00867074
C        6.17810063       7.84242456       3.70041802       0.00299109      -0.00545852      -0.00097754
C        4.94121502       9.98049193       3.70767378       0.00675386      -0.00784725       0.00715406
V        2.33716444       4.98286897       4.85335929      -0.00270708      -0.00099023      -0.00169591
