49
Lattice="12.336457 0.0 0.0 -6.168228499999997 10.683685154694365 0.0 0.0 0.0 15.0" Properties=species:S:1:pos:R:3:forces:R:3 energy=-440.22837759647473 free_energy=-440.22837759647473 stress="-0.0031862357467537916 9.29872054075369e-06 4.130785611344359e-06 9.29872054075369e-06 -0.0043169887053879485 5.2661431808374765e-06 4.130785611344359e-06 5.2661431808374765e-06 -7.244909458698949e-07" pbc="T T T"
C       -0.00050681       0.00651086       3.69453781      -0.00837324       0.00144183      -0.00597325
C       -1.23943917       2.13518742       3.66091941       0.00677990      -0.00025764       0.00064468
C       -2.47302016       4.27733450       3.66263376       0.00144506       0.00015838      -0.00074248
C       -3.70124465       6.41083067       3.69655270      -0.00236763      -0.00239742      -0.00852600
C       -4.93800658       8.54723588       3.70564716       0.00787064       0.00750222       0.01065633
C        2.46700099       0.00525774       3.73145620      -0.00300655      -0.00627803       0.00884407
C        1.23331002       2.15714833       3.80019996       0.00469252      -0.00581787      -0.00008391
C       -0.01905678       4.25735806       3.80781490      -0.00077385      -0.00219838      -0.00894893
C       -1.21937846       6.40794748       3.75262138       0.00417280       0.00610420       0.00296250
C       -2.46486352       8.54742650       3.70656197      -0.00306800       0.00446691       0.01148654
C        4.93448816       0.00663535       3.69886649       0.00468525       0.00293554      -0.01002771
C        3.70031154       2.15711629       3.80321644      -0.00219616      -0.00638749      -0.00085022
B        1.38720523       6.35881120       3.94727650      -0.00061222      -0.01123439       0.00058580
C        0.00492051       8.54992271       3.73021468      -0.00229089       0.00946877       0.00328377
C        7.39774366       0.01437988       3.64915118       0.00876247      -0.00386497      -0.00361117
C        6.17331528       2.13537277       3.66558726      -0.00276556      -0.00337807      -0.00302126
C        4.95260108       4.25758532       3.81025062       0.00676148      -0.00834000      -0.00118634
B        3.54592922       6.35805476       3.94794985       0.01045056       0.00405915      -0.00506152
C        2.46711444       8.59177807       3.73569093      -0.00395864      -0.00369981      -0.00385071
C        9.87205464       0.01420986       3.64668538      -0.00060104       0.00121301      -0.00249730
C        8.63548114       2.14338116       3.61488429      -0.00884064       0.00184892      -0.00363779
C        7.40699901       4.27691676       3.66479376      -0.00172602       0.00810560      -0.00378920
C        6.15336471       6.40785669       3.75311319      -0.00883819       0.00819157       0.00498073
C        4.92869841       8.55021716       3.72795673       0.00373819      -0.00298301       0.00319835
C       -0.00517037       1.42579568       3.70712370       0.00496408       0.00437460      -0.00077253
C       -1.25344446       3.55477836       3.68153471       0.00077233      -0.00246425      -0.00510301
C       -2.46492088       5.70199941       3.70056235       0.00332319      -0.00178624      -0.00233734
C       -3.70137425       7.83597609       3.70294219      -0.00009611       0.00410974       0.00126962
C       -4.93425670       9.97330158       3.70885010      -0.01029504       0.00910236       0.01200766
C        2.46678345       1.42686812       3.79575819       0.00183241      -0.00906192       0.00059978
C        1.19709916       3.55254215       3.89116145       0.00447331       0.00045278       0.00132748
C        0.01423422       5.67710735       3.84498598      -0.00029043      -0.00066261       0.00171979
C       -1.23159160       7.83442467       3.73231073      -0.00346194       0.00815372       0.01122802
C       -2.46811204       9.97360499       3.71094581       0.00177096       0.00092191       0.01192313
C        4.93901178       1.42605386       3.71158713      -0.00235936      -0.00332741       0.00039976
C        3.73655882       3.55244363       3.89439407       0.00243067      -0.00119596      -0.00839675
C        1.25018656       7.86673952       3.78219161      -0.00627937      -0.00722430       0.00250004
C       -0.00046032       9.97884899       3.68515138       0.00819741       0.00785363      -0.00754569
C        7.40375563       1.43187224       3.62722067      -0.00587538      -0.00393273       0.00303376
C        6.18709343       3.55485757       3.68537890       0.00568776      -0.00285798      -0.00803674
C        4.91972916       5.67722396       3.84686007      -0.00464136      -0.00215338      -0.00235829
C        3.68387834       7.86608190       3.78058646      -0.00186102       0.00277434       0.00710043
C        2.46668867      10.00342636       3.66064941       0.00316052      -0.00292624      -0.00415725
C        9.86679583       1.43162427       3.62480236      -0.00079544      -0.00060330       0.00005214
C        8.63538775       3.56640572       3.63240562      -0.00542905       0.00487093      -0.00296736
C        7.39891895       5.70162419       3.70109599      -0.00459157       0.00615526       0.00044492
C        6.16508864       7.83452666       3.73146470       0.01069927       0.00382183       0.00890699
C        4.93395074       9.97924366       3.68151242      -0.00045906      -0.00798270      -0.00664049
V        2.46654088       4.77670280       4.81866103      -0.01081700      -0.00507109       0.00096695
