49
Lattice="12.336457 0.0 0.0 -6.168228499999997 10.683685154694365 0.0 0.0 0.0 15.0" Properties=species:S:1:pos:R:3:forces:R:3 energy=-431.05872615675366 free_energy=-431.05872615675366 stress="-0.0028065212945446094 -0.0023621138623532603 -2.6261653679867894e-06 -0.0023621138623532603 -0.005914285493643514 1.1323019536109748e-05 -2.6261653679867894e-06 1.1323019536109748e-05 -2.7261198950797036e-06" pbc="T T T"
C       -0.01609331      -0.00097914       3.94188322       0.00484124       0.00198876       0.00882464
C       -1.26704433       2.13355394       4.17227890       0.00201272      -0.00572186      -0.00254980
C       -2.51711829       4.27152279       3.98073522       0.00673944      -0.00418591       0.00410731
C       -3.71754329       6.40711996       3.73286154       0.00088781       0.00368097       0.00040766
C       -4.93866945       8.54899627       3.74044523      -0.00317448      -0.00009975       0.00195769
C        2.45580307      -0.02889831       3.84295815      -0.00373646       0.00079252       0.00020828
C        1.23436023       2.04649967       4.30460602      -0.00743822       0.00048100      -0.00580193
C       -0.12159521       4.31149832       4.41129289       0.00888533      -0.00617559       0.00387556
C       -1.25494443       6.39540512       3.78940574      -0.00188465       0.00105819       0.00498322
C       -2.46644191       8.52947674       3.69501335      -0.00169838       0.00770349      -0.00022905
C        4.91965852      -0.00891417       3.65535501       0.00112754       0.00392530       0.00080580
C        3.64278800       2.09270293       3.58544814      -0.00496444      -0.00522582      -0.00755662
P        1.47403888       6.14766948       3.20424164      -0.00234220       0.00027688      -0.00588272
C        0.00022624       8.53479627       3.57860982      -0.00388771      -0.00093847       0.00010738
C        7.37878175       0.01801324       3.68511900      -0.00304161      -0.00218272      -0.01099424
C        6.13385994       2.14899338       3.57525119       0.00658155       0.00024395       0.00385693
C        4.94206460       4.31859862       3.27907500       0.00847431       0.00762485       0.00906288
C        3.72424984       6.48988406       3.30948282      -0.00604363      -0.00660415      -0.00296077
C        2.46881784       8.60069772       3.55513056      -0.00265215      -0.00475854      -0.00089514
C        9.85496377       0.02224995       3.83232072      -0.00644304       0.00463294       0.01124114
C        8.60130171       2.14515435       3.85042127      -0.00048156       0.00481696       0.00669074
C        7.36832203       4.27722695       3.66652105      -0.00301754      -0.00534274      -0.00254910
C        6.17761460       6.44330880       3.51990762       0.00880562      -0.00851375      -0.00293620
C        4.93380595       8.57743470       3.64643784       0.00576424       0.00647120      -0.00083240
C       -0.02314793       1.41367079       4.15994218      -0.00061689      -0.00296595      -0.00286045
C       -1.29994754       3.55386696       4.23248608       0.01386645      -0.00961092      -0.00594231
C       -2.49560974       5.69184416       3.84487973      -0.00049620       0.00031467       0.00032538
C       -3.70708465       7.83011778       3.71970345      -0.00205565       0.00627742      -0.00196412
C       -4.94792636       9.96314851       3.85622198      -0.00016283      -0.00076790       0.00344883
C        2.44275665       1.39008694       3.91754540      -0.00987042       0.00190885      -0.00438199
S        1.29825948       3.57862857       5.10556930       0.00214585      -0.00567415      -0.00069782
C       -0.05551797       5.63772917       3.93958226      -0.00943267      -0.00768236       0.00490306
C       -1.23359261       7.81557810       3.65025433      -0.00255181       0.00432957       0.00994988
C       -2.47493546       9.95173095       3.71725058      -0.00119442       0.00695453      -0.00681620
C        4.90082579       1.42105410       3.58438819       0.00429746       0.00446544       0.00822633
P        3.47228652       3.54910154       2.57119477      -0.00070854       0.00680255      -0.00296714
C        1.25576386       7.87534871       3.46867943      -0.00488393      -0.00200464      -0.00605375
C       -0.01240664       9.96952083       3.63098130      -0.00338956      -0.00127073      -0.00166240
C        7.36859767       1.44071072       3.70817374       0.00544281      -0.00109051      -0.00488190
C        6.14539980       3.56550990       3.50584846      -0.00385408      -0.00004429       0.00044521
C        4.95608001       5.76353392       3.34123732       0.00574335       0.00037774       0.00188737
C        3.70417955       7.88604450       3.49361277       0.00405862       0.00037855      -0.00358668
C        2.45381484      10.00858207       3.69801876      -0.00486429      -0.00267592      -0.00113451
C        9.84696993       1.43829666       3.96515793      -0.00445124       0.00433414       0.00514209
C        8.59133388       3.56476942       3.84528233       0.00077686       0.00238682      -0.00191353
C        7.38596920       5.70640868       3.64372684       0.00620158      -0.00780342       0.00460210
C        6.16622721       7.85627335       3.64104210       0.00340893      -0.00530258      -0.00657272
C        4.92184759       9.98832424       3.81511249       0.00160875       0.01151118       0.00006030
V        3.20604348       4.89665695       4.34402588      -0.00233186       0.00290416      -0.00049624
