49
Lattice="12.336457 0.0 0.0 -6.168228499999997 10.683685154694365 0.0 0.0 0.0 15.0" Properties=species:S:1:pos:R:3:forces:R:3 energy=-429.1360893252976 free_energy=-429.1360893252976 stress="-0.005694512321823105 0.0011171449371362666 -8.94565414990034e-06 0.0011171449371362666 -0.00644579348478364 -7.866326297721875e-06 -8.94565414990034e-06 -7.866326297721875e-06 1.0170671686091721e-07" pbc="T T T"
C        0.00636712      -0.00037025       3.66745535       0.00220147      -0.00406752       0.00465572
C       -1.21794199       2.14946383       3.57918147      -0.00443533       0.00450468       0.00042809
C       -2.45196245       4.28141819       3.73480976       0.00173237      -0.00554366      -0.00331712
C       -3.69236016       6.41783661       3.82246434       0.00712618       0.00243529       0.00544303
C       -4.94267966       8.54027075       3.73603554       0.00426180      -0.01061070      -0.00215854
C        2.46976489      -0.01412938       3.81343079       0.00020953      -0.00349968       0.00653608
C        1.26602072       2.08653152       3.46505973      -0.00465109      -0.00503654      -0.00933727
C       -0.05056277       4.31682443       3.26611040      -0.00529352       0.00968469      -0.00386482
C       -1.26932931       6.44275062       3.64030812      -0.00180072      -0.00172539      -0.00150851
C       -2.47227231       8.55728331       3.80941757       0.00135570       0.00086162      -0.00850749
C        4.94030983       0.00558489       3.94877783      -0.00159584      -0.00375352      -0.00421861
C        3.68589053       2.07718670       4.22522622       0.00146047       0.00195244      -0.00807959
C        1.15930518       6.48141770       3.52383947       0.00477982      -0.00376461      -0.00318238
C       -0.00638711       8.57071539       3.72882469      -0.00553250       0.00748307      -0.01094858
C        7.41004352       0.01339258       3.85756901       0.00209391       0.01071316      -0.00345373
C        6.18906729       2.13526407       4.15760722      -0.00896962      -0.00126168       0.00840287
C        5.02507788       4.31242485       4.32874167       0.00174764       0.00131623       0.00262861
S        3.68220533       6.22113986       2.90440616      -0.01019382      -0.00832355       0.00811024
C        2.47090900       8.57673591       3.55518340       0.00062642      -0.00328115       0.00668851
C        9.88023671       0.01302704       3.69247344       0.00004847      -0.00052111       0.00865791
C        8.65669217       2.14522935       3.87635922      -0.00147251      -0.00394066       0.00083645
C        7.44029293       4.27571125       4.01615838       0.00005091       0.00234654       0.00212468
C        6.19856453       6.41526723       3.82536780      -0.00111267       0.00504654       0.00174108
C        4.93687873       8.54392950       3.56617249      -0.00012652       0.00516919       0.00942986
C        0.01193432       1.42636765       3.57442265      -0.00635459      -0.00207084       0.00265676
C       -1.23061157       3.56777393       3.53386177       0.00129593       0.00758270      -0.00754437
C       -2.46789377       5.70847562       3.73957055       0.00193862      -0.00574502      -0.00277735
C       -3.70193651       7.83925184       3.79158716       0.00771447      -0.00234274      -0.00187349
C       -4.93314157       9.96696117       3.72293591       0.00352901      -0.01069953      -0.00341685
C        2.47795625       1.41950354       3.83122271       0.00196610       0.00185509      -0.00141804
S        1.24383795       3.47313070       2.37125929       0.00332708      -0.00539532      -0.00510240
C       -0.03525462       5.74178008       3.46557153      -0.00206600       0.00697786      -0.00197857
C       -1.24197692       7.85647493       3.74101379      -0.00355943       0.00060388      -0.01336622
C       -2.46376458       9.97504642       3.87140779      -0.00052620      -0.00140245      -0.00180341
C        4.94500171       1.42409154       4.12750567      -0.00436641      -0.00598030      -0.00628792
S        3.63859268       3.57254061       5.12135779       0.00841553       0.00314008      -0.00219546
C        1.22987705       7.85754138       3.58467009      -0.00364673       0.00043164       0.00698687
C        0.00566934       9.98495504       3.85332163       0.00318441       0.00879222      -0.00146835
C        7.41447165       1.43351814       3.97833399      -0.00516534       0.00680113       0.00152263
C        6.22004004       3.55626797       4.20686520       0.00170811      -0.00321595       0.01449246
C        5.00658335       5.64330633       3.86988137       0.00081336      -0.01014330       0.00123080
C        3.69406345       7.89347180       3.38574637       0.00403339      -0.00521229       0.00866584
C        2.47454798       9.99407462       3.71055038       0.00002482       0.00132056       0.00538187
C        9.89031317       1.44157471       3.72600195       0.00056678      -0.00169786       0.00031804
C        8.66563713       3.56494978       3.89316574      -0.00158423      -0.00537252      -0.00136920
C        7.42806441       5.70007229       3.91236365       0.00207704       0.00945990      -0.00098576
C        6.16721891       7.82666720       3.67047438      -0.00168282       0.00344967       0.00361254
C        4.93725906       9.97585427       3.64202313       0.00007043       0.00416115       0.00415551
V        2.18677379       4.76999162       3.88862500       0.00577614       0.00851858      -0.00454246
