49
Lattice="12.336457 0.0 0.0 -6.168228499999997 10.683685154694365 0.0 0.0 0.0 15.0" Properties=species:S:1:pos:R:3:forces:R:3 energy=-432.2473670816138 free_energy=-432.2473670816138 stress="-0.0037084045915908555 0.0007415041505361123 1.2961511140054107e-06 0.0007415041505361123 -0.0036968200340719484 3.9786114512419715e-06 1.2961511140054107e-06 3.9786114512419715e-06 -7.064645884210454e-06" pbc="T T T"
C        0.00401331      -0.00884345       3.67244889      -0.01042896       0.00328031       0.00131810
C       -1.22882165       2.12911935       3.54635563       0.00809146      -0.00240600      -0.00071417
C       -2.48388476       4.26056550       3.55846903      -0.00149161       0.00197151      -0.00382241
C       -3.71679920       6.39689952       3.64235755      -0.00159574       0.00055001       0.00181855
C       -4.94249290       8.52965487       3.69962885       0.00030234       0.00514762       0.00502220
C        2.47133697      -0.04130394       3.79247707       0.00416615      -0.00180512       0.00269459
C        1.27544092       2.07785570       3.57832576       0.01271915      -0.00767623      -0.00128819
C       -0.06098585       4.31212598       3.29803318      -0.00108221       0.00596978       0.00837600
C       -1.28705322       6.42496632       3.44238460       0.00360759       0.00161169      -0.01168353
C       -2.47277135       8.53567064       3.65636982       0.00107351      -0.01175876      -0.00481615
C        4.94948922      -0.03122135       3.84702029      -0.00303628       0.00194498       0.00268416
C        3.70106232       2.02458924       4.22116111      -0.01140927       0.00632250      -0.00699502
C        1.16958318       6.43458184       3.20658358      -0.00100833       0.00405535       0.00095298
C        0.00697156       8.53296378       3.58743150       0.00029339       0.00669700      -0.00460364
C        7.41527917      -0.02098350       3.77770474       0.00341439      -0.00893288      -0.00734506
C        6.17971056       2.12566140       4.01547811      -0.00078353      -0.00942853      -0.00880334
C        4.98287984       4.33825160       4.26913907      -0.00957714      -0.00982367      -0.00310064
O        3.76942331       6.45278261       4.12885717       0.00785071      -0.00109487       0.00948962
C        2.49437233       8.50235707       3.70837746      -0.00291270       0.00023264       0.00542106
C        9.87390001      -0.01663899       3.70795371      -0.00636317      -0.00183231      -0.00128700
C        8.64005587       2.12330465       3.73964027      -0.00132939      -0.00129967      -0.00285784
C        7.39711497       4.26156154       3.82402228       0.00462772       0.00701151       0.00959490
C        6.17491914       6.41514511       3.84355408      -0.00098235      -0.00156427       0.00279422
C        4.93695120       8.53354254       3.76245937       0.00246101      -0.00463507       0.00365537
C        0.01646296       1.42120792       3.58408098       0.00791805      -0.00155795      -0.00890745
C       -1.24609839       3.55230583       3.45577068      -0.00166374      -0.00273510      -0.00104523
C       -2.49475500       5.68845213       3.54023319       0.00034538       0.00231797      -0.00921285
C       -3.70661836       7.82089335       3.65916310      -0.00276132      -0.00278593       0.00140708
C       -4.93616765       9.95222966       3.70938844      -0.00327539       0.00958647      -0.00018127
C        2.47567562       1.36589780       3.88254613       0.00312207       0.00062674       0.00445333
P        1.53574206       3.69954733       2.89378990      -0.00988948       0.01179141       0.00045021
C       -0.06661000       5.73687995       3.30721947       0.00771909       0.00684611       0.00010523
C       -1.24644986       7.83639245       3.55270790       0.00597597      -0.00196913      -0.00334736
C       -2.45895378       9.94570218       3.77541818       0.00127115      -0.00995792      -0.00131022
C        4.95181991       1.38542779       4.04904878      -0.00844996      -0.00090626       0.00837782
P        3.61220498       3.55678200       5.08362272      -0.00184487       0.00604774       0.00638049
C        1.24237259       7.79981053       3.51743552      -0.00356062       0.00347631       0.00944224
C        0.01170941       9.94719356       3.74206527      -0.00004585       0.00440456       0.00849690
C        7.40729746       1.41023621       3.85069267       0.00194780      -0.01227703      -0.00965057
C        6.17836807       3.56013100       4.04125844       0.00680035      -0.00647991      -0.00056197
C        4.99513137       5.72438730       4.09418385      -0.00152181       0.00127604       0.01019859
C        3.72560943       7.84433929       3.83708053       0.00032480       0.00171482      -0.00493519
C        2.48263326       9.94181735       3.73335182      -0.00119184      -0.00579068      -0.01218434
C        9.87824427       1.41668826       3.66073988       0.00127274       0.00037631      -0.00699629
C        8.63197767       3.54859415       3.70355978       0.00065906       0.00451034       0.00721933
C        7.39771505       5.68257923       3.76162721      -0.00121597       0.00479121       0.00051785
C        6.17186634       7.82985934       3.75560145       0.00537852      -0.00439627       0.00475504
C        4.93681388       9.96250991       3.70279556      -0.01083664      -0.00347700       0.00011145
V        2.13170707       5.25607661       4.53510500       0.00691578       0.01202965      -0.00008758
