49
Lattice="12.336457 0.0 0.0 -6.168228499999997 10.683685154694365 0.0 0.0 0.0 15.0" Properties=species:S:1:pos:R:3:forces:R:3 energy=-433.04826255445937 free_energy=-433.04826255445937 stress="-0.0007225647681020591 0.001648311686785273 -3.4129887353515133e-06 0.001648311686785273 0.001152226328316045 2.3113665751303994e-06 -3.4129887353515133e-06 2.3113665751303994e-06 -1.2820559956618424e-06" pbc="T T T"
C        0.03024043      -0.01153893       3.80708069      -0.00363155      -0.00294418       0.00293652
C       -1.20981101       2.11682155       3.59616224       0.00108480       0.00876703       0.00039163
C       -2.47921930       4.25415847       3.65888745       0.00191828       0.00063348       0.00307553
C       -3.70867708       6.39097595       3.87320005       0.00849777       0.00048195      -0.00560674
C       -4.92126985       8.52853819       3.95126063      -0.00535478       0.00190119      -0.00953212
C        2.49922857      -0.00207642       3.94552528       0.01320679      -0.00048898       0.00757918
C        1.29944500       2.08499299       3.50470401       0.00006890       0.00585018       0.01202632
C       -0.10857907       4.26651225       3.07463735      -0.00448667      -0.00215710      -0.00123898
C       -1.28688286       6.42346759       3.48602113      -0.00317115      -0.00008632      -0.00235022
C       -2.45934931       8.53016230       3.88482455      -0.00336570      -0.01301111      -0.00038642
C        4.95999546      -0.03753501       3.97691328      -0.00730587      -0.00011561      -0.01002847
C        3.77233781       2.09814373       3.98434660       0.00511379      -0.00297477       0.00414113
P        1.19383992       6.61074963       2.12030561      -0.00031950       0.00250517      -0.00891119
C        0.00500373       8.52029251       3.70187613       0.00114606       0.00808898       0.00598099
C        7.43083761      -0.03247385       3.88918184       0.00043871       0.00200179       0.00649098
C        6.20282442       2.10269261       4.02127473       0.00106893      -0.00108982      -0.00044651
C        4.96605742       4.20763905       4.06058337      -0.00439512      -0.00719543      -0.00588444
C        3.69650237       6.37203261       3.86826491       0.00068607       0.00597664      -0.00217843
C        2.50957007       8.52616936       3.72729011       0.00009366       0.00103353       0.00135832
C        9.90080465      -0.02163140       3.81460266       0.00261983      -0.00442665       0.00508154
C        8.66332213       2.11217904       3.84987379       0.00384584      -0.00292136      -0.00587293
C        7.40916010       4.25169859       3.94850566       0.00209811       0.00642222       0.00029177
C        6.15224462       6.36638493       3.97950159       0.00070173       0.00129885      -0.00588729
C        4.96201801       8.52221175       3.87923591      -0.00820836      -0.00212407       0.00593051
C        0.04326424       1.41379504       3.62434403      -0.00438964       0.00308452       0.00253894
C       -1.25641579       3.53604172       3.43872132      -0.00123235       0.00623459      -0.00536843
C       -2.48952264       5.68828801       3.68813446       0.00388808      -0.00256612       0.00265584
C       -3.69456622       7.81693506       3.92061656      -0.00586271      -0.00432221      -0.00284410
C       -4.91026567       9.95973743       3.91056197       0.00456973       0.00498091       0.00693690
C        2.52261049       1.42482055       3.84779440       0.00989615       0.00396802       0.00236319
P        1.45330396       3.64030555       2.67379315       0.00216999      -0.00397449       0.00204132
C       -0.14042574       5.72919937       3.00704018      -0.00812814      -0.00709946       0.00563919
C       -1.23443949       7.82521909       3.69349902      -0.00094021       0.00301126      -0.00812881
C       -2.44761593       9.95322661       3.96712719       0.00266879      -0.01435391      -0.00446951
C        4.96956055       1.39400472       4.02990280       0.00176541      -0.00194173      -0.00664482
O        3.80495297       3.46814876       4.14697044      -0.00754249      -0.00141341       0.00309561
C        1.26143421       7.81946088       3.49569241       0.00213561       0.00167809       0.00374401
C        0.02344468       9.92736000       3.88619981      -0.00497531       0.01084850      -0.00586409
C        7.42865132       1.39485055       3.93887763       0.00151276      -0.00005119       0.00352498
C        6.18334084       3.52645633       4.03146912      -0.00028413      -0.00016599       0.00214481
C        4.89299314       5.63953232       3.98639327      -0.00350466      -0.00451911       0.00270021
C        3.72290729       7.78174339       3.82124162      -0.00203943       0.00378115       0.00211443
C        2.50078355       9.94127989       3.82406945       0.00096469      -0.00034477      -0.00200757
C        9.90316457       1.40432188       3.76399492       0.00575112      -0.00310699      -0.00708712
C        8.64612408       3.54085290       3.83531358       0.00065221       0.00018262      -0.00059046
C        7.38895558       5.67258908       3.94938202       0.00888203       0.00902349      -0.00222958
C        6.17898518       7.80268372       3.94617652      -0.00777359       0.00156656      -0.00592244
C        4.96580721       9.94873025       3.83142440      -0.00266082      -0.00811961       0.01296673
V        1.68071712       5.74839854       4.09191973       0.00212636      -0.00180633       0.00173007
