49
Lattice="12.336457 0.0 0.0 -6.168228499999997 10.683685154694365 0.0 0.0 0.0 15.0" Properties=species:S:1:pos:R:3:forces:R:3 energy=-436.92133266032306 free_energy=-436.92133266032306 stress="-0.0028752349518545274 0.004007416715452074 -5.44525845991078e-06 0.004007416715452074 0.00026620513908483663 -2.012082226966787e-06 -5.44525845991078e-06 -2.012082226966787e-06 2.228157820615472e-06" pbc="T T T"
C       -0.01684364       0.02042802       3.75875752       0.00475439      -0.00411533      -0.00221863
C       -1.22736218       2.15843239       3.90072661      -0.00163618      -0.00000391      -0.00076374
C       -2.44961266       4.28600834       3.90946502      -0.00487927       0.00329822      -0.00595468
C       -3.71703563       6.41733354       3.78640819      -0.00214318       0.00454091      -0.00286223
C       -4.96944527       8.55638836       3.68328635      -0.00232308      -0.00828986       0.00856138
C        2.44439772       0.02675969       3.71024900      -0.00153079      -0.00103879       0.00263917
C        1.24056095       2.20630635       3.80662142       0.00134458       0.00081839      -0.00280842
C        0.03634073       4.32794904       4.01600600       0.00014502      -0.00450347       0.00260579
C       -1.26615947       6.44122200       3.98066582       0.00146353      -0.00897303       0.00082311
C       -2.49965520       8.56548081       3.83012308      -0.00278806       0.00335153      -0.00623365
C        4.91801811       0.01397137       3.76470345       0.00096886       0.00678710      -0.00342565
C        3.70805241       2.13110443       3.46569942      -0.00448641      -0.00372133       0.01026516
O        1.08751115       6.51848781       4.24788972       0.00466051      -0.00419443      -0.00115131
C       -0.04229445       8.56482457       3.93312505      -0.00200109       0.00425360       0.00839237
C        7.39420365      -0.00658506       3.88294046       0.00090926       0.00637629       0.00057145
C        6.19106643       2.11427370       3.67177821      -0.00311761      -0.00197803       0.00565881
C        5.02612185       4.19792872       3.32447748       0.00247059       0.00222413      -0.00876225
P        3.47429725       6.24840195       2.74561877      -0.00820462      -0.00867650       0.00033626
C        2.41395791       8.52669291       3.82090623       0.00564905      -0.00700158       0.00654202
C        9.85738683      -0.00391921       3.85236832      -0.00811574      -0.00420483      -0.00177379
C        8.64679768       2.13535217       3.86463738      -0.00101688       0.00103110      -0.00419704
C        7.43508957       4.26505513       3.69263770       0.00277396       0.00188758       0.00480375
C        6.17690150       6.40587986       3.50252637       0.00307835       0.00554671      -0.00557838
C        4.89090742       8.54008551       3.59382062       0.00815741       0.00684810       0.00251688
C       -0.00091340       1.45094054       3.83012975       0.00229527      -0.00061697      -0.00215143
C       -1.21412932       3.59282820       3.95420377      -0.00471265       0.00262148       0.00094416
C       -2.48182799       5.70848092       3.89900467      -0.00523093       0.00054976      -0.00413823
C       -3.73403209       7.84692759       3.76681430      -0.00223891       0.00089475      -0.00323006
C       -4.95719135       9.98867167       3.71668515       0.00241921      -0.01095775       0.00946701
C        2.45898151       1.45277670       3.65923525      -0.00196597      -0.00158330       0.00319787
C        1.24841012       3.61157471       3.94470096      -0.00053672      -0.00114065       0.00223072
C       -0.05583248       5.75869174       4.07907982       0.00624091      -0.00707397       0.00337026
C       -1.27887994       7.86081863       3.93027118      -0.00286847      -0.00364266      -0.00168893
C       -2.49435484       9.99256374       3.76315625       0.00123717       0.00575905      -0.01275492
C        4.93968324       1.42030366       3.62488476      -0.00402897       0.00239768       0.00102228
C        3.80740082       3.48724689       3.07786074      -0.00267633      -0.00405761       0.00930915
C        1.15340631       7.86740688       3.95722468      -0.00007155      -0.00287488       0.00076128
C       -0.01896800       9.98718145       3.86604012       0.00146775       0.00889573      -0.00186569
C        7.41296979       1.41547264       3.82189511       0.00008961       0.00402484      -0.00416240
C        6.23127408       3.52369252       3.55804526       0.00258210      -0.00160977       0.00348718
C        5.00607275       5.63826419       3.30438049      -0.00099982       0.00926709      -0.00985640
C        3.63479094       7.85584395       3.50787787       0.01318156       0.00096175       0.00330761
C        2.44651895       9.95523241       3.88819562      -0.00571960      -0.00499397      -0.00574884
C        9.87356127       1.42736059       3.89177442      -0.00483255      -0.00303753      -0.00293230
C        8.65623008       3.56247431       3.83401999      -0.00030583       0.00064208      -0.00130487
C        7.40844962       5.69687594       3.66466480       0.00067780       0.00322936       0.00024555
C        6.14065752       7.83375786       3.57345075       0.00190394      -0.00003002      -0.00100536
C        4.91577960       9.97134055       3.74770066      -0.00015097       0.00423905       0.00403605
V        3.02613347       4.61395843       4.34798500       0.01011136       0.00787389       0.00147389
