49
Lattice="12.336457 0.0 0.0 -6.168228499999997 10.683685154694365 0.0 0.0 0.0 15.0" Properties=species:S:1:pos:R:3:forces:R:3 energy=-437.23936632879673 free_energy=-437.23936632879673 stress="-0.001769859895902682 -0.0012717115529710086 -7.3491376897039745e-06 -0.0012717115529710086 0.0015386801970404818 -1.3857254345929318e-06 -7.3491376897039745e-06 -1.3857254345929318e-06 -1.492412923536182e-06" pbc="T T T"
C        0.01700726       0.01302985       3.70325544       0.00631332      -0.00559405       0.00896353
C       -1.22866404       2.13667328       3.58611457      -0.00206058      -0.00044657       0.00024873
C       -2.47631994       4.26717319       3.69991963       0.00211514       0.00016466       0.00368697
C       -3.70222593       6.41255346       3.80557471       0.00270572       0.00303833       0.00078345
C       -4.91918864       8.55588118       3.81770273      -0.00228010      -0.00007070       0.00090465
C        2.48955065       0.00997955       3.75323806      -0.00498418       0.00379219       0.00353847
C        1.26235500       2.10605236       3.43225161       0.00078645      -0.00838224       0.01163806
C       -0.03818667       4.30582382       3.41196678      -0.00659048       0.01012346      -0.00691815
C       -1.26298513       6.43038274       3.70753040       0.00343341      -0.00077358       0.00299928
C       -2.45264703       8.56035856       3.82114918      -0.00222113      -0.00369084      -0.01256928
C        4.95719935       0.00874596       3.82732606      -0.00647013      -0.00314482      -0.00179902
C        3.71156729       2.18528112       3.74230791       0.01006732       0.00564910       0.00356685
C        1.20504475       6.38708093       3.69115505      -0.00422835      -0.01187391      -0.00376201
C        0.03286642       8.53102580       3.81777122       0.00763797      -0.00000113      -0.00303653
C        7.42491621      -0.01421100       3.84055019       0.00387150       0.00543279      -0.01122373
C        6.17763044       2.14742525       3.83388565       0.00326271      -0.00487466       0.00119928
C        4.89089332       4.31166935       3.85527320      -0.00343224      -0.00248275       0.00549319
O        3.80657618       6.47693456       4.03883372       0.00326018      -0.00259255       0.00542354
C        2.51738004       8.50814170       3.86590223      -0.00526009      -0.00095263       0.00220916
C        9.88263962      -0.00918784       3.78049503       0.00584186       0.00120247       0.00218110
C        8.64218616       2.13127789       3.77515273      -0.00472869       0.00019911      -0.00469352
C        7.38940258       4.27517653       3.82290218      -0.00301653      -0.00045339       0.00203367
C        6.17765235       6.42368353       3.86816547       0.00289852       0.00685719      -0.00658337
C        4.96353224       8.55273355       3.85062333      -0.00457161       0.00543714       0.00536692
C        0.01126555       1.42736084       3.55554607      -0.00010003      -0.00754667       0.00370766
C       -1.24845626       3.55437492       3.55930472       0.00200449       0.00199107      -0.00104750
C       -2.48093992       5.70045605       3.73857988       0.00281144       0.00216468      -0.00007458
C       -3.68529293       7.84236625       3.82046381      -0.00240178      -0.00026772      -0.00298507
C       -4.91460423       9.98346184       3.75898638       0.00121457      -0.00454754       0.00496614
C        2.49622584       1.42750129       3.64811309       0.00923940       0.00411393      -0.00073048
P        1.33714748       3.59490704       2.45041820      -0.01012011      -0.00025240      -0.00275337
C       -0.04267102       5.74237078       3.60513787      -0.00158980       0.00054017      -0.00446071
C       -1.22387531       7.84694248       3.79373521       0.00501662      -0.00059613      -0.00184066
C       -2.44731580       9.98198995       3.81457789      -0.01127478      -0.00169796       0.00435509
C        4.95062871       1.43716311       3.81316482       0.00511564      -0.00183569      -0.00201539
C        3.67935469       3.59436430       3.77056491      -0.00842926       0.00275487       0.00737144
C        1.27429734       7.77258394       3.79831304       0.00157033      -0.01338527      -0.00450827
C        0.02392388       9.95875859       3.84222126       0.00263202       0.00486906      -0.00604736
C        7.41436718       1.41725862       3.82643884      -0.00038115       0.00075218      -0.00262056
C        6.15424132       3.58161061       3.84108079      -0.00337855      -0.00515383      -0.00463943
C        4.96537836       5.74046423       3.90824960       0.00591745      -0.00145658       0.00126520
C        3.76463978       7.84660014       3.90877342      -0.00424140       0.00236249      -0.00549738
C        2.49487035       9.93889772       3.83838551       0.00347555       0.00421804      -0.00185247
C        9.87908882       1.42157357       3.71611819      -0.00372333       0.00106089       0.00010079
C        8.63209510       3.55811611       3.77088371      -0.00066801      -0.00038389      -0.00139537
C        7.40334672       5.69680863       3.83232929       0.00222662       0.00382350       0.00420113
C        6.19298804       7.84627331       3.85068013      -0.00400808       0.00767431      -0.00015138
C        4.95132991       9.98012698       3.77860832       0.00628576       0.00291719       0.00262656
V        1.82717726       4.57253251       4.36499756       0.00045637       0.00131870       0.00437471
