49
Lattice="12.336457 0.0 0.0 -6.168228499999997 10.683685154694365 0.0 0.0 0.0 15.0" Properties=species:S:1:pos:R:3:forces:R:3 energy=-437.2079200548242 free_energy=-437.2079200548242 stress="-0.0020447094444291723 -0.0026902918255821847 -3.876306655317352e-06 -0.0026902918255821847 0.0022618765716135546 4.4049394502859796e-07 -3.876306655317352e-06 4.4049394502859796e-07 9.573336272498398e-07" pbc="T T T"
C       -0.00256848       0.01670374       3.83797632      -0.00738198      -0.00223187       0.00598254
C       -1.25834256       2.12601663       3.85854044      -0.00475987      -0.00682132      -0.00146504
C       -2.48517416       4.26485655       3.87082636       0.00736162       0.00725826      -0.00416666
C       -3.69633889       6.41117494       3.86412310      -0.00448848       0.00309569      -0.00257955
C       -4.92876992       8.56273933       3.85513037       0.00080076       0.00567604      -0.00331487
C        2.46218657       0.02076528       3.75968304       0.00519757      -0.00408149      -0.00278315
C        1.20157439       2.17127165       3.77757247       0.00210475      -0.00024798       0.00524801
C       -0.03021797       4.25009920       3.90920643      -0.00081068       0.00286440       0.01332254
C       -1.23703961       6.40361158       3.87453914       0.00388153       0.01627835       0.00269291
C       -2.46180265       8.54951621       3.81939081      -0.00517001      -0.00673170       0.00571065
C        4.93645314      -0.01025321       3.68027964       0.00079049      -0.00023957       0.00350130
C        3.67969351       2.10167874       3.36458293       0.00406756       0.00350641      -0.00432924
N        1.19691601       6.36086199       3.89290850       0.00018907      -0.00939786      -0.00118483
C        0.01558073       8.50672385       3.79887383      -0.00042583      -0.00607519       0.00072863
C        7.40018250      -0.02749305       3.74233180       0.00085810      -0.00800726       0.00427804
C        6.15612635       2.14083035       3.60314054       0.00044007       0.00539848      -0.00136281
C        4.93062655       4.35044120       3.51751741      -0.00218367      -0.00232859       0.00034395
O        3.81160807       6.48350518       3.52241118       0.00158922      -0.00861112       0.01074741
C        2.47987820       8.47349906       3.80461452       0.00208721       0.00466578      -0.01371438
C        9.85195508      -0.02388424       3.82059684       0.00660469       0.00589780       0.00338225
C        8.61483034       2.12654763       3.78995987      -0.00735139      -0.01081559       0.00747214
C        7.38397233       4.27462915       3.77609687       0.00460323      -0.00052950      -0.00705035
C        6.19642415       6.44453226       3.79572077      -0.00451194       0.00006568      -0.00054783
C        4.94573719       8.55749402       3.83042076       0.00137836      -0.00173897       0.00119628
C       -0.01511604       1.44151641       3.83104729      -0.00388748      -0.00466673      -0.00097840
C       -1.25704087       3.54638168       3.88357776       0.00305931      -0.00393564       0.00173919
C       -2.46867749       5.68956231       3.87639012       0.00558660       0.01612333      -0.00139093
C       -3.69357872       7.83983785       3.85450527      -0.00502066      -0.00204366      -0.00079794
C       -4.93116884       9.99340283       3.83339013      -0.00117870       0.00466637      -0.00334624
C        2.44531827       1.45059375       3.63946545       0.00608453      -0.00133100       0.00104110
N        1.16646845       3.55309324       3.89364364       0.00228320       0.00188111       0.00423568
C       -0.01199347       5.69105113       3.90244551      -0.00514184       0.00388257       0.00386257
C       -1.23086153       7.82422521       3.83101050      -0.00393415       0.00854149       0.00107497
C       -2.46964301       9.97771208       3.75127095       0.00370793      -0.00902682       0.00637106
C        4.92674213       1.41498120       3.53815862       0.00323094       0.00864966       0.00022172
P        3.70262722       3.62680086       2.44138535      -0.00914423       0.00473960       0.00031802
C        1.23073476       7.74954484       3.83004495       0.00206104      -0.00755084      -0.00684396
C        0.00441844       9.94307726       3.73691689      -0.00143975      -0.00669604       0.00450216
C        7.38519548       1.41254911       3.71316817      -0.00786443      -0.00991194       0.00481852
C        6.15943799       3.57086359       3.63566540       0.00246534       0.00394461      -0.00616601
C        5.00493521       5.75716516       3.63444914      -0.00051999      -0.00514527       0.00031154
C        3.74096437       7.86568430       3.77760365       0.00131696       0.00009783      -0.01796023
C        2.46161712       9.92229908       3.79349654       0.01023853       0.00770452      -0.00306794
C        9.84779584       1.41034260       3.82957099      -0.00361866      -0.00123310      -0.00082962
C        8.61570239       3.55415492       3.81961017       0.00603249      -0.00521514      -0.00353538
C        7.41230285       5.70095065       3.82576180      -0.00536471       0.00071353      -0.00714748
C        6.18817502       7.85933973       3.83800022       0.00246887       0.00183966       0.00754758
C        4.92935424       9.98013943       3.84257552      -0.00309702      -0.00158836       0.00182328
V        2.57019263       4.86741189       4.03512161      -0.00319450       0.00871137      -0.00791117
