49
Lattice="12.336457 0.0 0.0 -6.168228499999997 10.683685154694365 0.0 0.0 0.0 15.0" Properties=species:S:1:pos:R:3:forces:R:3 energy=-436.35366299164536 free_energy=-436.35366299164536 stress="-0.0051979587265686775 0.004236129104357421 -7.81669689914576e-06 0.004236129104357421 -0.0008486763251477344 -9.489565167340253e-06 -7.81669689914576e-06 -9.489565167340253e-06 -2.1616330617453748e-06" pbc="T T T"
C       -0.00018916       0.02021569       3.74884927       0.00467082       0.00397946       0.00352761
C       -1.22163513       2.15128459       3.85799465      -0.00045099       0.00586884      -0.00552000
C       -2.44875988       4.28280010       3.81973853       0.00219236       0.00105069      -0.00251695
C       -3.70694806       6.41585762       3.69823109      -0.00598874      -0.00315646       0.00500449
C       -4.96284662       8.55302613       3.63696838       0.00513325      -0.00169139      -0.00645330
C        2.45476106       0.03789270       3.75182306      -0.00758447       0.00340470       0.00059974
C        1.23154692       2.20059265       3.85054040      -0.00651421      -0.00650667       0.01039088
C       -0.00347562       4.30607837       3.94996508       0.01389738       0.00639284       0.00040674
C       -1.25866126       6.43228772       3.84283977      -0.00224940      -0.00723057      -0.00122045
C       -2.48934320       8.56239015       3.75914760       0.01362187      -0.00357863       0.00147360
C        4.92955785       0.00209098       3.80200277       0.00120721      -0.00148289       0.00770887
C        3.73976960       2.13838303       3.75884471       0.01000154      -0.01355108      -0.00559226
O        1.07935159       6.50322552       4.17370578      -0.00158853       0.00081155       0.00452268
C       -0.02796465       8.55265416       3.84838382       0.00578641       0.00341134       0.00281946
C        7.40684465      -0.01470880       3.87625860      -0.00472220       0.00550345      -0.01047273
C        6.20231531       2.10730550       3.78219497       0.00489564       0.00797595      -0.00408687
C        5.02648498       4.20250579       3.56428337      -0.00615485      -0.00591254      -0.00945632
S        3.53723642       6.29346271       2.72130867      -0.01228482      -0.00718176      -0.00062437
C        2.42836953       8.52076444       3.78060193      -0.00897575      -0.00155620       0.00633445
C        9.87050534      -0.00817936       3.82617325      -0.00310962      -0.00169651      -0.00137200
C        8.65763256       2.13156748       3.84552455      -0.00530751       0.00473551      -0.00456171
C        7.44003042       4.26326672       3.69758148      -0.00600366      -0.00048372      -0.00700175
C        6.17532280       6.39542593       3.48885748      -0.00214393      -0.00381375       0.01260605
C        4.90603547       8.54108734       3.55881223      -0.00400118       0.00836072       0.00434150
C        0.01063630       1.45371749       3.82346120      -0.00489870       0.00034987       0.00515015
C       -1.22137111       3.57722989       3.87870623       0.00988012       0.00780350       0.00837413
C       -2.47410334       5.70286700       3.78457326      -0.00761095      -0.00152532      -0.00168876
C       -3.72453117       7.84343142       3.69243365       0.00853156      -0.00165699      -0.01108123
C       -4.94489717       9.99233928       3.70679110      -0.00342273       0.00059696      -0.00063336
C        2.46889633       1.47667093       3.79377126      -0.00096890       0.00017783       0.00721281
N        1.20046648       3.59101083       3.95105288       0.00192377      -0.00622499      -0.00010164
C       -0.06338683       5.72643020       3.96060787      -0.00003865       0.00260304      -0.00293458
C       -1.26930848       7.85259204       3.81984738       0.01391470      -0.00755221       0.00213027
C       -2.48548138       9.99501529       3.76587165      -0.00317200       0.00130632       0.00266437
C        4.95715177       1.41687562       3.77997531       0.01501928      -0.00426436       0.00679163
N        3.82300309       3.50776386       3.67426754       0.00178762      -0.01453742      -0.01131172
C        1.16723414       7.86698150       3.87958038      -0.00291673      -0.00376931      -0.00406454
C       -0.00317894       9.97684318       3.84209227       0.00097118       0.00434583      -0.00489075
C        7.42553753       1.40964424       3.84790865      -0.00369691       0.00672689      -0.00711712
C        6.23288901       3.51705317       3.68569798      -0.00359243       0.00334187      -0.00913473
C        5.01163845       5.60491080       3.35935771       0.00992604      -0.01205278      -0.00829575
C        3.65516567       7.87931058       3.45436927      -0.00647752       0.01027958       0.01032439
C        2.46235951       9.95479927       3.85838634      -0.00842691       0.00045416      -0.00302086
C        9.88617118       1.42489002       3.85751279      -0.00400335      -0.00236037      -0.00506922
C        8.66397414       3.55566012       3.79247075      -0.00504408       0.00539278       0.00515672
C        7.41365665       5.68920455       3.62717945      -0.00268776      -0.00379416       0.00466991
C        6.14800792       7.82811682       3.52432824       0.00073522       0.00148702       0.00974850
C        4.92956976       9.97459517       3.72563824       0.00650186       0.00801772      -0.00497682
V        2.64135288       4.76931866       4.22820672       0.00343968       0.01120166       0.01124084
