49
Lattice="12.336457 0.0 0.0 -6.168228499999997 10.683685154694365 0.0 0.0 0.0 15.0" Properties=species:S:1:pos:R:3:forces:R:3 energy=-437.0654706587054 free_energy=-437.0654706587054 stress="-0.004752038646409309 0.004312925565859155 -7.647814549646891e-06 0.004312925565859155 -4.643662384565781e-05 -1.0470812153296508e-05 -7.647814549646891e-06 -1.0470812153296508e-05 7.84168566797228e-07" pbc="T T T"
C        0.00061572       0.02209940       3.73247798       0.00433443       0.00777575       0.00680933
C       -1.22116113       2.15183334       3.84208859       0.00252501       0.00942316       0.00005590
C       -2.45204418       4.28290472       3.82948751      -0.00164089      -0.00080727      -0.00845511
C       -3.71513946       6.41581261       3.71989433      -0.00069619      -0.00607721      -0.00008647
C       -4.95775979       8.55646838       3.64581789       0.00403641      -0.00320180      -0.00583591
C        2.45562340       0.03919708       3.74807577      -0.01116969       0.00424734      -0.00258663
C        1.23513449       2.20960545       3.83251120      -0.00211676      -0.01062271       0.00229646
C       -0.00325011       4.30931947       3.94669269       0.01219907       0.00483106       0.00091087
C       -1.26428335       6.43190122       3.86535153       0.00117652      -0.01033195      -0.00124606
C       -2.48929921       8.56245751       3.77261115       0.01087295      -0.00086331       0.00082211
C        4.93190355      -0.00114062       3.80213403      -0.00361970       0.00586867       0.00789507
C        3.74279310       2.13332198       3.73898624       0.01416911      -0.00693330      -0.00570713
O        1.07496356       6.49891159       4.20253823      -0.00442004       0.00634263       0.00347133
C       -0.02811514       8.55133826       3.85816642      -0.00401039       0.00345142       0.00473683
C        7.40931314      -0.01825027       3.86816539      -0.00495296       0.00065241      -0.00562073
C        6.20271684       2.10682866       3.78256994       0.00837501       0.00571443      -0.00444179
C        5.02326417       4.19294529       3.57991631      -0.00626630      -0.00009102      -0.00526995
P        3.54672740       6.29464972       2.63274329      -0.00818481      -0.01311801       0.00202379
C        2.42827826       8.51768633       3.76933458      -0.00871553      -0.00623831      -0.00284382
C        9.87006090      -0.01028968       3.80892179       0.00069708      -0.00417140      -0.00740172
C        8.65682036       2.13044216       3.84070538      -0.00027316      -0.00001511      -0.00550135
C        7.43573867       4.26362332       3.71367417      -0.01199730      -0.00090153      -0.00295295
C        6.17262948       6.39645428       3.51724979      -0.00625379       0.00055078       0.01533768
C        4.91136874       8.54435150       3.55502118      -0.00110082       0.01301782       0.00433244
C        0.01405757       1.45802629       3.80367324      -0.00298963       0.00213348       0.01158747
C       -1.22117300       3.57895486       3.87498410       0.00676940       0.01097371       0.00667299
C       -2.48089600       5.70364343       3.80450554      -0.00147959      -0.00568161      -0.00695593
C       -3.72563613       7.84502604       3.70921200       0.00910857      -0.00326361      -0.00765143
C       -4.94280641       9.99361152       3.70250469      -0.00695473      -0.00046713       0.00475812
C        2.46973844       1.47745812       3.78036151       0.00526252       0.00052484      -0.00108000
N        1.20900343       3.60395305       3.92824400      -0.00237092      -0.01411287       0.00675466
C       -0.07042894       5.72669514       3.98259117       0.00441720       0.00238584       0.00043493
C       -1.26923331       7.85371863       3.83798120       0.00824719      -0.01055572       0.00310127
C       -2.48446193       9.99455139       3.76939516      -0.00702026       0.00597320       0.00395789
C        4.95840084       1.41293041       3.77523364       0.01641312       0.00203232       0.00323464
N        3.82427757       3.49982587       3.64500807       0.00346583      -0.01030664      -0.01085213
C        1.16996280       7.86043521       3.89125126      -0.00987019      -0.00171915      -0.00679279
C       -0.00165983       9.97314610       3.84259726      -0.00621089       0.00486265       0.00098491
C        7.42547720       1.40735364       3.84346556       0.00108683       0.00195908      -0.00703519
C        6.22634313       3.51762302       3.69547887      -0.00782307       0.00186998      -0.00990211
C        4.97720692       5.61573885       3.41554796       0.00599927      -0.00848674      -0.01080704
C        3.65823645       7.86030002       3.45727886      -0.00245104       0.00565849       0.01083882
C        2.46171626       9.94803438       3.84660461      -0.00645994      -0.00426225      -0.00949310
C        9.88586151       1.42216352       3.84261537       0.00274940      -0.00411042      -0.00084676
C        8.65958590       3.55614039       3.79917719      -0.00935732       0.00198876       0.00576277
C        7.40416153       5.69197790       3.64969986      -0.00487312      -0.00192023       0.00566785
C        6.15207809       7.82953628       3.53989073      -0.00038713       0.00372194       0.00628485
C        4.93211410       9.97334558       3.70786479       0.01022001       0.00991701       0.00483781
V        2.67856770       4.79188778       4.20441754       0.01154120       0.01238250       0.00579533
