49
Lattice="12.336457 0.0 0.0 -6.168228499999997 10.683685154694365 0.0 0.0 0.0 15.0" Properties=species:S:1:pos:R:3:forces:R:3 energy=-436.2644521873708 free_energy=-436.2644521873708 stress="-0.0018752878014399708 0.0007608210688894819 3.385506610392393e-07 0.0007608210688894819 0.0044424557305052315 -1.8491603899599437e-06 3.385506610392393e-07 -1.8491603899599437e-06 2.9432717859054637e-06" pbc="T T T"
C        0.01605408       0.01650782       3.73991346      -0.00497647       0.00605469       0.01290588
C       -1.22395990       2.14435423       3.60063447      -0.00206180      -0.00342941       0.00524708
C       -2.46966262       4.28319569       3.75518519       0.00330271      -0.00859457       0.00009937
C       -3.70594438       6.42506936       3.87385583       0.01225944      -0.00342454       0.00549410
C       -4.92744266       8.56462194       3.87322536      -0.00521506      -0.00761359       0.00118263
C        2.48733686       0.03598079       3.74648190      -0.01037193      -0.00084353       0.00243446
C        1.25179197       2.10881945       3.32059087       0.00979286       0.01136038       0.00743267
C       -0.06748717       4.32913641       3.30302211       0.01357163      -0.00097632      -0.00261587
C       -1.27045178       6.45248665       3.69789780       0.00066144       0.00290456      -0.01202580
C       -2.46114279       8.57661040       3.83306519      -0.00820958       0.00007277       0.00572044
C        4.95544512       0.01728500       3.82041638       0.00088604      -0.00818125       0.00188940
C        3.74063328       2.19374520       3.74825320       0.00523295       0.01006504       0.00876270
N        1.16500217       6.39094568       3.62876773      -0.00219483      -0.00387362      -0.00743888
C        0.01969339       8.53207258       3.79379487      -0.00049144      -0.00941729      -0.00111516
C        7.42979362      -0.02518656       3.84562637       0.00095988       0.00894426       0.00564177
C        6.19344057       2.14212143       3.88366850       0.00143396      -0.00348608      -0.00021266
C        4.93999045       4.28699050       3.94159332       0.00559095      -0.00093000       0.00956797
O        3.80393329       6.44832645       4.03861567       0.00648103       0.00191628       0.00799340
C        2.49861126       8.47018908       3.84870166      -0.00735027       0.01114696      -0.00218664
C        9.88100967      -0.02007948       3.80852104       0.00330256       0.00022827      -0.00490923
C        8.65343654       2.13330127       3.82759701      -0.00273368       0.00580645       0.00603842
C        7.40664694       4.27780141       3.91570235      -0.00591172       0.00880190      -0.00857172
C        6.17891376       6.42138219       3.95858898       0.00340028      -0.00368500       0.01445089
C        4.95055808       8.54310790       3.90034815      -0.00135297      -0.00266851      -0.00459308
C        0.01386690       1.43633011       3.56404540       0.00092716       0.00456820       0.00657306
C       -1.24575908       3.57024227       3.57247449       0.00519532      -0.00373799       0.00499787
C       -2.48161708       5.71418437       3.78200504       0.00796420      -0.00714584      -0.01144193
C       -3.69335784       7.85482469       3.86789459      -0.00167693      -0.00538708      -0.00651473
C       -4.91465508       9.99798119       3.78726708      -0.01120426      -0.00630207      -0.00368898
C        2.49580444       1.46973955       3.59818754       0.00878768       0.00093914       0.00934264
S        1.06861934       3.45973491       2.13697441      -0.00707760      -0.00456361       0.00075598
C       -0.05952532       5.77120223       3.50197765       0.00767339       0.00289114      -0.00051104
C       -1.23555416       7.86223266       3.78446555      -0.00658316       0.00141948      -0.00425213
C       -2.45224964      10.00359763       3.81404397      -0.00887575      -0.00050100      -0.00809842
C        4.95880806       1.44767454       3.82699303       0.00373682      -0.00285107       0.00066986
N        3.75002078       3.57435876       3.86552566      -0.01287238       0.01262457      -0.00609852
C        1.23396193       7.76366076       3.77122285      -0.00185182      -0.00023581      -0.01186844
C        0.02337097       9.96210792       3.83075289       0.00602989      -0.00757279       0.00124744
C        7.42442509       1.41279472       3.86528980       0.00130340       0.00588913      -0.00939642
C        6.18106818       3.56678896       3.92657137      -0.00015709      -0.00160447      -0.00533903
C        4.97772613       5.71152734       3.97974288       0.01059895      -0.00416006      -0.00484236
C        3.75116116       7.83256799       3.91713703      -0.00524856       0.00288798       0.00471811
C        2.48997571       9.91836230       3.84231125      -0.00093414       0.01061034      -0.01102543
C        9.88977756       1.42225593       3.75540546      -0.00696908      -0.00166747      -0.00894210
C        8.64478207       3.56123392       3.84547960      -0.00662567       0.00520157      -0.00007190
C        7.40623932       5.70063278       3.92557564       0.00508825       0.00625721       0.00059698
C        6.18674815       7.84620839       3.92346460      -0.00217324      -0.00691142      -0.00393038
C        4.94706465       9.97433987       3.82026534       0.00139426      -0.00104938       0.00185715
V        2.07049131       4.59517992       3.74557904      -0.00245557      -0.00977648       0.01407055
