49
Lattice="12.336457 0.0 0.0 -6.168228499999997 10.683685154694365 0.0 0.0 0.0 15.0" Properties=species:S:1:pos:R:3:forces:R:3 energy=-436.4316827752816 free_energy=-436.4316827752816 stress="-0.00188628532977603 -0.0026784462132815315 -1.649422239287344e-06 -0.0026784462132815315 0.0022595590981411284 -4.641852635520583e-06 -1.649422239287344e-06 -4.641852635520583e-06 1.4158269199824528e-06" pbc="T T T"
C       -0.00252597       0.01538703       3.82955612       0.00401285      -0.00031445       0.00829031
C       -1.25870238       2.12681112       3.86624796      -0.00139316       0.00355490       0.00115163
C       -2.48115367       4.26599488       3.89045197      -0.01130304      -0.00426692      -0.00015647
C       -3.69370474       6.41150455       3.88591133       0.00733337       0.00541720       0.00250957
C       -4.92867785       8.56224928       3.86244177      -0.00022970       0.00120540      -0.00109915
C        2.46444113       0.01769276       3.75407561      -0.00413852       0.00837916      -0.00065094
C        1.20235997       2.17284855       3.77946033       0.00589521      -0.00285084       0.00331394
C       -0.02967752       4.25035264       3.93573918       0.00059121      -0.00135169       0.00636913
C       -1.23505388       6.40502373       3.89670914      -0.00658325      -0.01315496      -0.00116869
C       -2.46178248       8.54631845       3.83274876       0.00152406       0.01242441      -0.00401441
C        4.93384938      -0.01304001       3.67101017       0.00210748      -0.00069074       0.00194481
C        3.67710071       2.08237765       3.30609197      -0.00171709       0.00723828       0.00287842
N        1.19725471       6.36080479       3.88173830      -0.00356772       0.00796942      -0.01474257
C        0.01477847       8.50574380       3.79739543      -0.00151215      -0.00310353      -0.00272282
C        7.39754303      -0.02849345       3.73382533       0.00780252       0.00669216      -0.01217515
C        6.15135938       2.14194568       3.58846708      -0.00486601      -0.00790175      -0.00158378
C        4.95754617       4.35427511       3.52690845       0.00297681      -0.00111435      -0.01107136
O        3.81648742       6.47977121       3.47214653      -0.00606816       0.00594992      -0.00339133
C        2.47971978       8.47390912       3.77271028       0.00008212      -0.00852189       0.00191166
C        9.85150828      -0.02268278       3.80862945      -0.00078903      -0.00865358      -0.00192484
C        8.61315355       2.12729817       3.79596407       0.00217433       0.00632060      -0.00880496
C        7.38951129       4.27604119       3.79443686       0.00036965       0.00013162       0.00914855
C        6.19904738       6.44347330       3.82838695       0.00451713       0.00319642       0.00518354
C        4.94475356       8.55577513       3.81306761      -0.00136610       0.00020323      -0.00423915
C       -0.01355493       1.44211563       3.83144412       0.00238002       0.00069324       0.00332473
C       -1.25581144       3.54515984       3.90423257      -0.00801732       0.00466887      -0.00177714
C       -2.46555416       5.69091387       3.89935184      -0.00572581      -0.01041965       0.00045120
C       -3.69343041       7.83875433       3.87088626       0.00495415       0.00925226      -0.00057906
C       -4.93189305       9.99273771       3.83070157       0.00096288      -0.00083081      -0.00346281
C        2.45005102       1.45443966       3.62406091       0.00365676       0.00629227       0.00894149
N        1.16408405       3.54785609       3.92998893       0.00221294      -0.00451119       0.00477064
C       -0.01091539       5.68993525       3.91937562       0.00245453      -0.00047131       0.00408969
C       -1.23061224       7.82412412       3.84488268      -0.00341313      -0.00788656      -0.00195132
C       -2.46972832       9.97534444       3.75117363      -0.00423631       0.01343335      -0.00207505
C        4.92064903       1.41704825       3.51092967      -0.00661612      -0.00602241       0.00522193
S        3.70340841       3.64227069       2.45692337      -0.00108570      -0.01096910       0.00347682
C        1.23017647       7.74938539       3.81293858      -0.00106552       0.00148644      -0.00107688
C        0.00378744       9.94117206       3.73158268       0.00842363       0.00102713      -0.00353682
C        7.37816697       1.41459788       3.70983546       0.00387649       0.00798794      -0.00493024
C        6.15876163       3.57080691       3.64780963       0.00163236      -0.00794773       0.00329226
C        5.00672828       5.75059869       3.66611955      -0.00070581       0.00273804       0.00663553
C        3.73954889       7.86472792       3.73789714      -0.00074673      -0.00164179      -0.00999545
C        2.46133031       9.92416139       3.77570858       0.00018868      -0.01014354      -0.00172762
C        9.84695354       1.41123001       3.83110511      -0.00151731      -0.00206388      -0.00484780
C        8.61993726       3.55360824       3.83345079      -0.00545807       0.00144063       0.00339109
C        7.41324969       5.70044633       3.85127498       0.00841323       0.00398228       0.00724281
C        6.18831127       7.85958608       3.84708764      -0.00178392       0.00293013       0.00220163
C        4.92841230       9.97964561       3.82762741       0.00291402      -0.00273810       0.00820981
V        2.53620098       4.88650080       3.98421016       0.00244924      -0.00704450      -0.00024539
