50
Lattice="12.336457 0.0 0.0 -6.168228499999997 10.683685154694365 0.0 0.0 0.0 15.0" Properties=species:S:1:pos:R:3:forces:R:3 energy=-440.1933815963504 free_energy=-440.1933815963504 stress="-0.0012759901078857434 0.00026311462796560286 -1.0970471762100403e-05 0.00026311462796560286 -0.004379284042944252 4.809256314223796e-06 -1.0970471762100403e-05 4.809256314223796e-06 -6.853157435006382e-06" pbc="T T T"
C       -0.01813380      -0.01602603       3.93255248       0.00496992       0.00466895       0.00095393
C       -1.24492405       2.12711455       4.02043500       0.00414245      -0.00166378       0.00062893
C       -2.47767278       4.26102044       4.00135817       0.00552009      -0.00085813       0.00619512
C       -3.72059814       6.39722454       3.92982229       0.00727124       0.00085774       0.00773944
C       -4.95489805       8.52828023       3.86182902      -0.01146102      -0.00194253       0.00170148
C        2.45180156      -0.01959140       3.95581237       0.00524592       0.00569364       0.00679479
C        1.22350568       2.11573678       4.02915117      -0.00202316       0.00006026      -0.00029082
C        0.01757542       4.25064202       3.90474786       0.00010198       0.00388351       0.00093187
C       -1.25275088       6.39206022       3.73701112      -0.00400316       0.00174986       0.00382465
C       -2.47218501       8.52531570       3.82734966      -0.00072695      -0.00246710       0.00438017
C        4.91947986      -0.01399867       3.86314464      -0.00648692       0.00435258       0.00049832
C        3.67947613       2.10457125       3.96504756      -0.00250900       0.00227225      -0.01036331
O        2.46299741       4.16005093       4.11955926       0.00234699       0.00068290       0.00515996
S        1.10937447       6.33427937       2.46879256      -0.01216155      -0.00919469      -0.00965850
C       -0.02961949       8.55818200       3.52304209       0.00221733       0.00605020      -0.00187635
C        7.38284415       0.00778178       3.75273850      -0.00560346      -0.00132361      -0.00009356
C        6.14551580       2.12598559       3.93525298      -0.00319713      -0.00960302      -0.00119549
C        4.89795717       4.23737182       3.76613001       0.00642555      -0.00267574       0.00099515
S        4.04249823       6.49790596       2.00051435      -0.00326089       0.01463871      -0.00317377
C        2.44795600       8.62573520       3.24446682       0.00456240      -0.00213309       0.00950079
C        9.85388573       0.00869675       3.79312618       0.00103130      -0.00911295       0.00126424
C        8.61799677       2.12961980       3.96781878       0.00386899       0.00289762       0.00422873
C        7.38137806       4.25821728       3.95393937      -0.00286784       0.00708004       0.00708702
C        6.15483954       6.40271032       3.72782074       0.00159836      -0.00402464      -0.00300977
C        4.93179426       8.55565594       3.57609434      -0.00038378      -0.00126467      -0.00085554
C       -0.01936617       1.40746717       4.00794601       0.00201477       0.00270144      -0.00233436
C       -1.23876472       3.54702799       4.01608204       0.00523359      -0.00150920      -0.00400635
C       -2.48679408       5.68340694       3.93023277       0.00386857      -0.00305294       0.00079069
C       -3.71692435       7.81742123       3.88458239      -0.00610105      -0.00036230      -0.00562471
C       -4.95483260       9.95067301       3.92424608       0.00318878       0.00406594      -0.00023614
C        2.45210237       1.39170161       4.00139976      -0.00052787       0.00560605       0.00317722
C        1.21168067       3.50214206       3.99709524      -0.00549965      -0.00275772       0.00446068
C       -0.06887730       5.64064244       3.56338890      -0.00296396       0.00701220       0.00167277
C       -1.24428882       7.82142271       3.66730450       0.00084303       0.00129641      -0.00068050
C       -2.47841991       9.95194021       3.88290689       0.00085440      -0.00024158       0.00095327
C        4.92136489       1.40755438       3.92672742      -0.00756166      -0.00020903      -0.00369981
C        3.70055169       3.49585214       3.91285767       0.00753418      -0.00183210       0.00731635
C        1.19882793       7.94404027       3.16479166       0.00446758       0.00213984       0.00124988
C       -0.01725266       9.97335226       3.72082113      -0.00762754       0.00635436      -0.00398399
C        7.38359525       1.41941073       3.90725425       0.00116454      -0.00161022      -0.00782599
C        6.14746821       3.54128900       3.91244486       0.00234658      -0.00849589      -0.00685046
C        4.96103515       5.65868275       3.43377974       0.00076897      -0.00148816      -0.00111140
C        3.72094119       7.93183167       3.10994400       0.00268578      -0.00693038       0.00789684
C        2.45224238      10.00696570       3.60946634      -0.00378213      -0.00019045      -0.00913001
C        9.85264805       1.41955902       3.95152318       0.00442896      -0.00545506      -0.00628847
C        8.61844482       3.55108389       4.00373780      -0.00027835       0.00774060       0.00688143
C        7.37760162       5.68704736       3.91347163       0.00680444       0.00554106      -0.00635867
C        6.14354557       7.82108776       3.71001752      -0.00814364      -0.00585223       0.00080721
C        4.91692337       9.96540139       3.78917071       0.00643716      -0.00080116      -0.00775640
V        2.93473253       6.08315991       3.91190946      -0.00477314      -0.01029379      -0.00068654
