49
Lattice="12.336457 0.0 0.0 -6.168228499999997 10.683685154694365 0.0 0.0 0.0 15.0" Properties=species:S:1:pos:R:3:forces:R:3 energy=-432.3367335441285 free_energy=-432.3367335441285 stress="0.0008021989439649379 3.381192365082985e-06 1.4610791202109745e-06 3.381192365082985e-06 0.00666980061229367 -1.9743714196311525e-06 1.4610791202109745e-06 -1.9743714196311525e-06 9.224468240986855e-08" pbc="T T T"
C        0.00266402       0.00674494       3.70941035      -0.00343269      -0.00892303       0.00753165
C       -1.24116697       2.13690725       3.73559045       0.00417242      -0.00602116       0.00086448
C       -2.46721920       4.27431196       3.76877699       0.00279831       0.00281812       0.01610218
C       -3.70095655       6.41047281       3.75411153       0.00154350       0.00902980       0.00676616
C       -4.93883024       8.55116475       3.72996687      -0.00235460       0.00071500      -0.00061351
C        2.46763509       0.04529472       3.71694776      -0.00351756       0.00501679      -0.00864269
C        1.20786752       2.14758780       3.71955314      -0.00192228      -0.00176238      -0.00667297
C       -0.04111430       4.28413443       3.84337414       0.01195229      -0.00585291       0.00555444
C       -1.23738527       6.40620753       3.78557328       0.01438032       0.00241715      -0.00118466
C       -2.46292671       8.55098001       3.72704989       0.00024734       0.00501319      -0.01362070
C        4.93186564       0.00691228       3.71036040       0.00240887      -0.00322657      -0.00440138
C        3.72667574       2.14877575       3.72858775       0.00231198      -0.00422483      -0.00018101
O        1.16634730       6.40316995       3.64968286       0.00746595      -0.00159434      -0.00991733
C        0.00943829       8.52037532       3.71301514      -0.00272301       0.00906957      -0.01347468
C        7.40939366      -0.02896740       3.71309367       0.00302562      -0.00383602       0.00480274
C        6.17582954       2.13696397       3.74293418      -0.00516688      -0.00501522      -0.01526022
C        4.97653573       4.28420421       3.85068094      -0.01018492       0.00242786       0.00077326
O        3.76790981       6.40183319       3.67768735      -0.00900423       0.00370209      -0.00173202
C        2.46765391       8.45640439       3.72103975      -0.00165922       0.00319384      -0.00253132
C        9.86163094      -0.02893194       3.71576999       0.00084162      -0.00554132      -0.01678028
C        8.63563579       2.12760793       3.73700509      -0.00070781      -0.01209583      -0.00068955
C        7.40234089       4.27451273       3.77242407      -0.00746362      -0.00102413       0.00262613
C        6.17164676       6.40578553       3.79086729      -0.00703888       0.00291963       0.00268488
C        4.92503784       8.51995109       3.71890961       0.00010035       0.00280297       0.00754846
C        0.00919704       1.44633439       3.71227403       0.00151293      -0.00999993       0.00839685
C       -1.23690245       3.56063514       3.78692629       0.00819264      -0.00215929      -0.00462447
C       -2.46754038       5.69190314       3.76915705       0.00670764       0.00973749       0.00919526
C       -3.70088286       7.83926612       3.73914405       0.00000931       0.00604356      -0.01331759
C       -4.92692785       9.99586583       3.71745126      -0.00164399      -0.00275710      -0.01579345
C        2.46763025       1.50959499       3.72195223      -0.00243802       0.00658355       0.00027794
O        1.16606837       3.56354966       3.64712407       0.01119638       0.00031137      -0.00300437
C       -0.04125303       5.68353171       3.84253963       0.01312186      -0.00522367       0.00508011
C       -1.24110125       7.82986199       3.73440609       0.00207888       0.00533166       0.01022713
C       -2.47456923       9.99555046       3.71269532      -0.00150364       0.00535456       0.01612199
C        4.92510253       1.44692488       3.71923996      -0.00001610      -0.00688586       0.00747116
O        3.76751231       3.56473696       3.67606644      -0.00131430      -0.00413678      -0.00666123
C        1.20790225       7.81872920       3.71632612      -0.00323574       0.00771030       0.01100982
C        0.00253663       9.96017455       3.70794251       0.00217332       0.00514528       0.01173731
C        7.39772399       1.41580255       3.72943983      -0.00445235      -0.00868542      -0.01099483
C        6.17183659       3.56097623       3.79023314      -0.01096110      -0.00372941       0.01216257
C        4.97641358       5.68232000       3.85131885      -0.00927262       0.00331613      -0.00262689
C        3.72691268       7.81745978       3.73083646       0.00005339       0.00637031      -0.01182088
C        2.46733953       9.92090692       3.71486089       0.00229759       0.00041575       0.00153519
C        9.87337760       1.41580150       3.72698176       0.00416618      -0.00827663      -0.00642330
C        8.63576952       3.55608122       3.75358812      -0.00167799      -0.00573587       0.00470663
C        7.40205986       5.69204092       3.77199542      -0.00298506       0.00508195       0.01093016
C        6.17566019       7.82981742       3.74135052      -0.00244822       0.00307736      -0.00253501
C        4.93189931       9.96006296       3.70971498      -0.00233230      -0.00156333       0.01485615
V        2.44511886       4.97821740       4.49874205      -0.00330157       0.00466574      -0.00545832
