49
Lattice="12.336457 0.0 0.0 -6.168228499999997 10.683685154694365 0.0 0.0 0.0 15.0" Properties=species:S:1:pos:R:3:forces:R:3 energy=-435.14218353692695 free_energy=-435.14218353692695 stress="0.0059462986068983805 -0.0033001224617353474 3.497700187419415e-06 -0.0033001224617353474 0.004617945686184942 -1.4033557767579542e-06 3.497700187419415e-06 -1.4033557767579542e-06 3.7060817179393308e-06" pbc="T T T"
C       -0.00428127       0.00257940       3.45601383       0.00410238      -0.00214015       0.01152942
C       -1.26595596       2.12541828       3.59992003       0.00399190       0.00617730       0.00400507
C       -2.49896694       4.26153656       3.81322251      -0.00069968      -0.01157410       0.00194823
C       -3.71032438       6.39657039       3.75832721      -0.00422732      -0.00482273       0.00692461
C       -4.93348576       8.54242601       3.54989227       0.00324845       0.00411019      -0.00833838
C        2.46300014       0.03359534       3.53884747      -0.00159777      -0.00211869      -0.00624070
C        1.17872708       2.13455964       3.51054309      -0.00613672      -0.00234583       0.01178361
C       -0.03759425       4.19951127       3.84675775       0.00001169       0.00206046      -0.00226624
C       -1.21168990       6.36324769       3.91997519       0.00291103       0.00412723      -0.00286166
C       -2.46394826       8.52667718       3.73627969      -0.00032206      -0.00165009       0.00199981
C        4.91722928      -0.01110465       3.73680260      -0.00715679      -0.00420522       0.00571204
C        3.72379904       2.13225775       3.47656020       0.00958413      -0.00140698      -0.00384006
B        1.31013646       6.33205236       4.35807464      -0.01765280       0.00001033      -0.00432629
C        0.00688266       8.51347027       3.91866278       0.00495591       0.00371994      -0.00726384
C        7.37958596      -0.00503425       3.78121431      -0.00394451       0.00502105      -0.00620795
C        6.12801336       2.14766650       3.87651216       0.00888090       0.00303623      -0.00844560
C        4.81196484       4.25677988       3.99218765      -0.00616939      -0.00793359      -0.00398535
N        3.74968357       6.50533243       3.77839285       0.00501235       0.00635330      -0.00988318
C        2.46087097       8.53191337       3.76248860      -0.00439638      -0.00323118      -0.00414998
C        9.84559976      -0.00604993       3.57906376       0.01188158       0.00028491      -0.00004874
C        8.60037371       2.13442006       3.77495433       0.00295551      -0.00463497       0.01329972
C        7.34890728       4.27127770       3.91927116      -0.00925377       0.00144974      -0.00347111
C        6.14529779       6.40060429       3.63932733      -0.01076026       0.00663482       0.00309321
C        4.94063314       8.55333651       3.47413002       0.00332615      -0.00514754      -0.00527119
C       -0.01774583       1.43136985       3.48550851      -0.00399351      -0.00213259       0.01200005
C       -1.27016592       3.52986530       3.74275895       0.00700419       0.00266017       0.00307039
C       -2.47152127       5.67937485       3.83632488       0.00085344      -0.00760723       0.01056196
C       -3.70035770       7.82299352       3.67397847      -0.00058760      -0.00226055       0.00044197
C       -4.93230391       9.98378591       3.49674654       0.00144900       0.00122381      -0.00029835
C        2.45414719       1.48738050       3.47920039       0.00329086      -0.00001179      -0.00263750
O        1.13177409       3.48994424       3.69195736      -0.00942447       0.00155283      -0.00230198
C        0.01488625       5.60146089       4.02792467      -0.00329947       0.00085256      -0.00672137
C       -1.22307134       7.79790987       3.88159331       0.00734440       0.00580249      -0.00274818
C       -2.48053739       9.96865829       3.66264835      -0.00642368      -0.00479529      -0.00272754
C        4.90483947       1.42676051       3.71041650       0.00877351       0.00076186       0.00112488
O        3.82776022       3.49383633       3.22445508       0.00433340       0.01106681       0.00351366
C        1.26617161       7.81081946       4.00989500      -0.00314615      -0.01279333      -0.00407522
C       -0.01283308       9.95157313       3.82298038      -0.00407963       0.00385647      -0.00099266
C        7.36015772       1.42955779       3.81897865       0.00158163       0.00235570      -0.00740136
C        6.09960394       3.56420791       4.01845042      -0.00473845      -0.00115319      -0.00601841
C        4.91401937       5.73088621       3.78472884      -0.00528458      -0.00383579      -0.00012440
C        3.70668640       7.84980384       3.59322188       0.00114792       0.00164318      -0.00297415
C        2.44913079       9.97128172       3.69216318       0.00148238       0.00487004      -0.00178769
C        9.84091703       1.42031273       3.63659438       0.00991834       0.00301766       0.01323569
C        8.59110358       3.55690464       3.84139511      -0.00653921      -0.00746641       0.00312870
C        7.38082580       5.68925004       3.77535390      -0.01348359       0.00437487       0.00749339
C        6.16746092       7.83438337       3.52278877       0.00228005       0.00571987      -0.00097282
C        4.92291738       9.97490726       3.47999757       0.01025689      -0.00689800      -0.00290735
W        3.06906970       5.33827693       5.24723702       0.01273975       0.00742140       0.00642284
