49
Lattice="12.336457 0.0 0.0 -6.168228499999997 10.683685154694365 0.0 0.0 0.0 15.0" Properties=species:S:1:pos:R:3:forces:R:3 energy=-434.92949006485185 free_energy=-434.92949006485185 stress="0.0015316767957703154 0.0013998435831289032 -3.153530156497715e-06 0.0013998435831289032 0.0033196612716543264 -9.279436650472275e-06 -3.153530156497715e-06 -9.279436650472275e-06 1.4087964026023447e-06" pbc="T T T"
C        0.00933285      -0.00110517       3.65378535      -0.00350383       0.00396298      -0.00503863
C       -1.21858215       2.14356323       3.65970504       0.00999917      -0.00696360      -0.00262022
C       -2.44100867       4.27557410       3.76649170       0.00399229       0.00593480      -0.00210721
C       -3.68795785       6.40544386       3.76230759      -0.01091799      -0.01295121       0.00549490
C       -4.93328308       8.54331442       3.72545784      -0.00660186       0.01032210       0.00497728
C        2.47096216       0.03038880       3.70024702      -0.00885548      -0.00533637       0.00646557
C        1.23583923       2.11450300       3.59917386      -0.00184290      -0.00704645      -0.00261144
C        0.02710385       4.27182040       3.81025812       0.00068330       0.00577082       0.00733533
C       -1.21561267       6.41041767       3.80706685       0.01163945       0.00357415       0.00671430
C       -2.46012598       8.54995715       3.71043864       0.00230023      -0.00528624       0.00172163
C        4.93082949       0.02253447       3.69403369      -0.00036962       0.00916670       0.00513483
C        3.71554975       2.20325001       3.85383811       0.00393113      -0.00655702      -0.00395953
O        1.19685840       6.45763661       3.45676987      -0.00732764      -0.01035194      -0.00171683
C       -0.00587967       8.54737397       3.65149759       0.00648249       0.00017996      -0.00132527
C        7.40734654      -0.00603759       3.65327444      -0.01002126      -0.00355990      -0.00737042
C        6.18163939       2.13082635       3.74055408       0.00875455       0.00970904      -0.00042316
C        4.94973091       4.21782253       3.94551428       0.01283893      -0.00274274      -0.00515002
B        3.67868052       6.35523623       4.08883563      -0.01272616      -0.00887633      -0.00031920
C        2.45053095       8.52637441       3.70272839       0.00368076       0.00660447      -0.01010126
C        9.87536998      -0.00752478       3.65111182       0.00584293      -0.00157152       0.00696285
C        8.65149727       2.13436607       3.68108621      -0.00289845       0.00495166       0.00903917
C        7.41829785       4.26335113       3.76885732      -0.00179130      -0.00199025       0.00344191
C        6.17540271       6.39236410       3.83023727      -0.00525494       0.00032148       0.01095137
C        4.92820536       8.52876601       3.75978973      -0.00356237      -0.00042776       0.00203629
C        0.01593493       1.43397801       3.61378522       0.00250821      -0.00503431      -0.00321435
C       -1.20421503       3.56356193       3.76025502       0.00393681      -0.00166482      -0.00661718
C       -2.44646386       5.69350541       3.78683585       0.00523256       0.00318877       0.00043070
C       -3.69719716       7.83380769       3.73363084      -0.00873572      -0.00231256       0.00686659
C       -4.92506951       9.98088944       3.68632720      -0.01262827       0.01037175      -0.00457018
C        2.46915600       1.48275789       3.72392199      -0.00038174      -0.01084818      -0.00037650
O        1.21276988       3.52645496       3.35834220      -0.01292545      -0.00832814      -0.01224145
C        0.01336689       5.69700562       3.84963411       0.00892035       0.01019581      -0.00628971
C       -1.23608968       7.83361045       3.71659822       0.01082054      -0.00230058       0.00543701
C       -2.46906219       9.98979544       3.69939272      -0.00159222       0.00019175       0.00462623
C        4.93088977       1.45270522       3.75223523       0.01166363       0.00699905       0.00468572
N        3.75082060       3.56040407       4.07132649       0.00995819       0.00049121      -0.01237293
C        1.21509350       7.87057417       3.63569739       0.00529345       0.00395053      -0.01393661
C        0.00013818       9.97908698       3.66013955      -0.00691318      -0.00223861      -0.00310924
C        7.41549011       1.42111648       3.68023906      -0.00415547       0.00095579      -0.00516073
C        6.18951025       3.53502667       3.80223768       0.01151103       0.00394487       0.00251166
C        4.95952088       5.64004536       3.95236140      -0.00162041      -0.00163280      -0.00380682
C        3.68318719       7.82727689       3.82859158      -0.00546859      -0.00394160      -0.00012841
C        2.46598837       9.96428495       3.65652555      -0.00249353       0.00593282      -0.00345769
C        9.89123820       1.42670948       3.65211877       0.00282415      -0.00427972       0.00602183
C        8.65781031       3.55820363       3.72981206      -0.00224197       0.00784380       0.00614427
C        7.41813004       5.68921974       3.78312187      -0.00911498      -0.01258994       0.00918212
C        6.16665081       7.82026003       3.77611773      -0.00163046       0.00269435       0.00683989
C        4.94058105       9.96344584       3.67689671       0.00664683      -0.00371939       0.00120350
W        2.11848665       4.92460582       4.69551469      -0.00388517       0.01529330      -0.00619996
