49
Lattice="12.336457 0.0 0.0 -6.168228499999997 10.683685154694365 0.0 0.0 0.0 15.0" Properties=species:S:1:pos:R:3:forces:R:3 energy=-435.3077932112279 free_energy=-435.3077932112279 stress="-0.0047083155019962235 -0.0002921131726975815 -3.1528263904791906e-06 -0.0002921131726975815 0.002999485899638325 -5.4759051558913596e-06 -3.1528263904791906e-06 -5.4759051558913596e-06 5.86697328027653e-06" pbc="T T T"
C        0.04326597       0.02918841       3.77164836       0.00042599      -0.00330075       0.00447946
C       -1.22503628       2.10802078       3.71595942       0.00935431      -0.00598019       0.00233268
C       -2.49479663       4.24171893       3.61886903      -0.00186534      -0.00118452       0.01444416
C       -3.71293818       6.39430398       3.60929806      -0.00204779       0.00317126       0.00539354
C       -4.91238190       8.54763744       3.69704762      -0.00536706       0.00808205       0.00084805
C        2.49076541       0.05091165       3.82231922      -0.00433725       0.00069122      -0.01043680
C        1.24905765       2.23495861       3.96317471      -0.01373241       0.00078831      -0.01072915
C       -0.09742216       4.19393156       4.05306716       0.00796537       0.01117749       0.00591862
C       -1.28739042       6.37015843       3.94072593      -0.00280365       0.00712872       0.01011585
C       -2.45250466       8.53688655       3.79538442       0.00612408      -0.01595811       0.00505641
C        4.95487785      -0.03752925       3.79484439      -0.00058738      -0.00377291       0.00061688
C        3.76242620       2.11787095       3.76700533      -0.00001135      -0.01008097      -0.00498398
O        1.41792432       6.68767244       2.93730921       0.00032772      -0.00113752       0.00562924
C        0.02236634       8.48315517       3.87362207       0.00257283       0.01183639       0.00251526
C        7.41917544      -0.04379037       3.74824356      -0.00000711      -0.01318471      -0.00203588
C        6.18735270       2.08965540       3.60282753       0.01372816       0.00864128       0.00628011
C        4.97507425       4.18571740       3.56903133      -0.00330541      -0.00202175      -0.00848888
B        3.71782756       6.36367859       3.83470018      -0.00539108      -0.01420890       0.00193657
C        2.51465096       8.54330502       3.87359041      -0.00189201      -0.00492303       0.00075810
C        9.89890629      -0.01699118       3.73733084      -0.00117106       0.00722665      -0.01412058
C        8.64326436       2.09788932       3.58581164      -0.01210037       0.00461125       0.00061773
C        7.40213887       4.24559765       3.49067385      -0.00600638       0.00809022       0.00549587
C        6.16921976       6.37764101       3.57207648       0.00694264      -0.01220023       0.00493228
C        4.97852422       8.54925494       3.73864328       0.00558692       0.00479580      -0.00389603
C        0.04299465       1.46165521       3.81764207       0.00103375      -0.01180358      -0.00137170
C       -1.28000793       3.50846939       3.73796365       0.01107551      -0.00487876       0.00717418
C       -2.51077070       5.66522644       3.69092869      -0.00269864       0.00392013       0.00462018
C       -3.68943118       7.82709324       3.69669551      -0.00758631       0.00256681      -0.00131232
C       -4.90014945       9.99193057       3.77346372      -0.00329029       0.00668082      -0.00333487
C        2.50006865       1.49939631       3.87298166      -0.01169507       0.00200476      -0.01377638
N        1.13511337       3.61372077       4.17600225       0.01014579       0.00400109       0.00596406
C       -0.20962283       5.57667195       4.26427331      -0.00585491      -0.00461807       0.00944192
C       -1.22378088       7.81090824       3.88130871       0.01497513       0.00268538      -0.00172139
C       -2.45599994       9.97527035       3.81148395      -0.00201152      -0.01272560      -0.01050259
C        4.95698907       1.39352428       3.72173175       0.01176331       0.00160412       0.00378680
O        3.79852397       3.48267583       3.64411271      -0.00379640      -0.00134428      -0.01086481
C        1.30186225       7.75767283       3.77334102      -0.01331548       0.00646895      -0.00035722
C        0.02511313       9.91004464       3.81152034      -0.00072341       0.00267019       0.00133463
C        7.41177259       1.38055356       3.63203888      -0.00014180      -0.01088558      -0.00849622
C        6.18658162       3.50374211       3.50994667       0.00195674       0.00894546      -0.00662630
C        4.95800989       5.60174770       3.60364020       0.00087230      -0.00448492      -0.00620515
C        3.73438551       7.85041225       3.81613486       0.00293878       0.00127008      -0.00097560
C        2.49166503       9.95973870       3.79811791       0.00249365      -0.00737364      -0.00416780
C        9.88408363       1.39500703       3.65896278      -0.00281763       0.00888565      -0.00458185
C        8.62556685       3.52394490       3.52807464      -0.01284967       0.00727005       0.00918782
C        7.39598505       5.67283554       3.52121194       0.00604173      -0.00267305       0.00761555
C        6.19001859       7.81578933       3.65941044       0.00480162      -0.00700903       0.00626819
C        4.97760987       9.98079286       3.74725369       0.00228907       0.00811308       0.00573697
W        1.86646458       5.66888168       4.69327416       0.00399140       0.01242289      -0.00951561
