49
Lattice="12.336457 0.0 0.0 -6.168228499999997 10.683685154694365 0.0 0.0 0.0 15.0" Properties=species:S:1:pos:R:3:forces:R:3 energy=-435.3888470307426 free_energy=-435.3888470307426 stress="0.0034819514332748614 -0.005654288591153447 8.865050687730205e-06 -0.005654288591153447 -0.0002436758982196235 -9.094697559385334e-06 8.865050687730205e-06 -9.094697559385334e-06 4.641093084593431e-06" pbc="T T T"
C        0.01574745      -0.04354682       3.61189078       0.00337844      -0.00931251      -0.00086480
C       -1.22936555       2.09903111       3.73123525      -0.00718330       0.00396194      -0.00267593
C       -2.41845379       4.24429149       3.83434664       0.00161206       0.00153596      -0.00069111
C       -3.64382994       6.38627858       3.76017560       0.00646417       0.00287750      -0.00376808
C       -4.88465632       8.52632418       3.66493883      -0.01347027      -0.00414254      -0.00195742
C        2.47926231      -0.01466288       3.49298807       0.00205393      -0.00650816       0.01017363
C        1.16026126       2.06291837       3.27975567      -0.00226006       0.00075220       0.00343686
C        0.06697508       4.14533490       3.56872444      -0.00209454       0.00497566      -0.00067193
C       -1.16515298       6.35309248       3.53427316       0.00523900      -0.01401726       0.00192567
C       -2.41846992       8.51945457       3.59096076      -0.00011916       0.00067093      -0.00336493
C        4.94192582      -0.00036937       3.70610034      -0.00040973       0.00719863       0.00440131
C        3.62810601       2.12372695       3.79989551       0.00428164      -0.00099153       0.00090798
B        1.22508962       6.47229401       2.95384165      -0.00024807      -0.00736939       0.00306990
C        0.04154603       8.52167683       3.64423112       0.00189170      -0.00200262      -0.00808949
C        7.40558266       0.00003765       3.82733891      -0.00200085       0.00950808      -0.00488457
C        6.14955717       2.14325413       3.95717546      -0.00251672      -0.01094665       0.00108362
C        4.99023350       4.33590850       4.20370739       0.00058078      -0.00173078      -0.00381702
C        3.72950783       6.44294795       4.13782169       0.00256959       0.00692533      -0.00068343
C        2.50899323       8.54951968       3.78710625       0.01056223       0.00165588       0.00510897
C        9.88331020      -0.01634538       3.80445567       0.00140773      -0.00954731      -0.00954482
C        8.63916198       2.12482517       3.90810430      -0.00231867       0.00641294      -0.00384000
C        7.43552044       4.26736185       3.97823696      -0.00455959       0.00042914      -0.00244385
C        6.23194687       6.42697473       3.94418047      -0.00053167       0.01439596       0.00104728
C        4.97902328       8.53463530       3.81088562      -0.00186176       0.00296048       0.00613256
C       -0.01629040       1.37096542       3.53660479      -0.00454355      -0.00297906       0.00179882
C       -1.18774881       3.51134183       3.78905627      -0.00187089       0.00727477      -0.00597520
C       -2.40783944       5.66362720       3.71587006       0.00749150      -0.00606379       0.00292686
C       -3.64670396       7.81013389       3.65717942      -0.00548390       0.00410486       0.00188558
C       -4.90740217       9.94382348       3.55676933       0.00087271      -0.01071630       0.00250117
C        2.43474316       1.41706727       3.45215665       0.00331072      -0.00671088       0.00029135
O        1.00810299       3.37354058       2.86413310       0.00183490       0.00654702      -0.00362453
C        0.07990366       5.59650156       3.39474153       0.00527616      -0.00133046       0.01185149
C       -1.16618033       7.78689773       3.56845547       0.00188859      -0.01205825      -0.00161362
C       -2.44280397       9.95285620       3.58360031       0.00493759       0.00332518       0.00003992
C        4.90260306       1.43881439       3.83406518       0.00019474      -0.00202991       0.00309786
P        3.35580747       3.77986449       4.34310381       0.00116867      -0.00469344       0.00655253
C        1.29980124       7.79691762       3.67181280       0.00984889      -0.00106166       0.00405813
C        0.01202194       9.96122963       3.74082690      -0.00217718       0.00839326       0.00017454
C        7.39156771       1.42409104       3.90847231      -0.00068693       0.00645854      -0.00616646
C        6.18739399       3.56480510       4.06276628      -0.00402245      -0.01272648      -0.00650638
C        4.98156999       5.75262095       4.12227291       0.00265031       0.00594878       0.00090886
C        3.72766162       7.83194956       3.89730328       0.00882375       0.00529708       0.00926799
C        2.48127678       9.97440164       3.81595280      -0.00122627      -0.00072615       0.00472944
C        9.87859105       1.40704478       3.82847325      -0.00569651      -0.00392229      -0.00344773
C        8.66543506       3.54868167       3.92019073      -0.00086050       0.00597485       0.00200070
C        7.45394557       5.69355446       3.90544086       0.00091040       0.00917459      -0.00450816
C        6.21973813       7.83190046       3.80342490      -0.01233608       0.00888218       0.00361060
C        4.95358298       9.94289682       3.74349153       0.00282646      -0.00655825      -0.01287965
W        1.86679375       5.59805737       4.70618457      -0.01359800       0.00250393      -0.00096451
