50
Lattice="12.336457 0.0 0.0 -6.168228499999997 10.683685154694365 0.0 0.0 0.0 15.0" Properties=species:S:1:pos:R:3:forces:R:3 energy=-445.14345361800906 free_energy=-445.14345361800906 stress="-0.00719552725930696 -0.0004940417610133267 7.084196079189558e-07 -0.0004940417610133267 -0.005238460755825226 -3.554098286016409e-06 7.084196079189558e-07 -3.554098286016409e-06 8.093082196938055e-06" pbc="T T T"
C       -0.02621120      -0.00933982       3.63650905       0.00244915      -0.00665091       0.00310430
C       -1.27622364       2.11731629       3.72236617       0.00699727       0.00677509       0.00200389
C       -2.51428749       4.26708968       3.80591745      -0.00092225       0.00211762      -0.01124027
C       -3.71772750       6.41313296       3.70063042       0.00267710       0.00518536       0.00644626
C       -4.93879755       8.55619045       3.57790426      -0.00053205       0.00475934      -0.00744069
C        2.44710719       0.00868978       3.74044157       0.00388532       0.00095416      -0.00631972
C        1.19020786       2.12466919       3.75341093      -0.00223056       0.00645710      -0.00242792
C       -0.09328487       4.23624587       4.00824124       0.00111152      -0.00259389       0.00343051
C       -1.28788467       6.40334268       4.12596191       0.01223073      -0.00619981       0.00163094
C       -2.48892245       8.54928159       3.88485090       0.00375170       0.00069614       0.00635181
C        4.90695297       0.00759005       3.84831656       0.00102561       0.00868023       0.00774414
C        3.68476915       2.14609366       3.73323508      -0.00468511      -0.00167573      -0.00737432
B        2.41910365       4.30998368       3.89390380      -0.00600075       0.00527734      -0.00463423
P        1.41348994       6.30185822       4.89570882      -0.00949053      -0.00030022       0.00496907
C       -0.04201476       8.56811800       4.11259221       0.00243855       0.01430099       0.00298414
C        7.37026963       0.00489658       3.83879836      -0.00785127       0.00221046      -0.00930762
C        6.15265688       2.12717725       3.67772316       0.00298230      -0.01463496      -0.00958407
C        4.96499004       4.22653674       3.33501111       0.00683677       0.00411939       0.01054682
P        3.44119483       6.40131664       2.39433834       0.00538515      -0.00708649       0.00760599
C        2.42669739       8.58233815       3.90737399      -0.00378333       0.00261036      -0.00258777
C        9.84604084      -0.00543625       3.69484020      -0.00910431      -0.00348763      -0.01569135
C        8.60753779       2.12848326       3.69765183      -0.00211134      -0.00351264       0.01140614
C        7.39366641       4.27105819       3.55568116      -0.01020497      -0.01017058      -0.00335709
C        6.19412856       6.42187061       3.27255184      -0.00293613       0.00265127       0.01042432
C        4.93032307       8.53756116       3.52285260      -0.00232976      -0.01165633       0.00782539
C       -0.03942415       1.40671140       3.69970693       0.00586692       0.00102565      -0.00009723
C       -1.30347452       3.53517706       3.83643808       0.00671256       0.01044395       0.01017551
C       -2.50853009       5.69492805       3.88399389       0.01012089       0.00214614      -0.00683523
C       -3.71546484       7.84145459       3.71664701      -0.00131499       0.00756632       0.00221234
C       -4.95106786       9.97428308       3.64767184       0.00431260      -0.00109428       0.01388266
C        2.44522145       1.43149618       3.74984649      -0.00570176      -0.00110282      -0.01692816
C        1.13447551       3.53483732       3.86984857      -0.00387205      -0.00176540      -0.01063909
C       -0.12047839       5.62752303       4.32059546       0.00597989      -0.00638495      -0.00042320
C       -1.26934979       7.83917403       4.08396649       0.00417059       0.00140388       0.00402334
C       -2.49153374       9.97665596       3.83021094       0.00604868       0.00350207       0.00172167
C        4.91227484       1.42630604       3.75066191       0.00046150       0.00231365       0.00060400
C        3.72839649       3.58131183       3.65781641      -0.00285658      -0.00459269       0.00203281
C        1.22797764       7.93165658       4.23711019       0.00249543       0.00717116       0.00093050
C       -0.03294089       9.98311728       3.93383721      -0.00249756       0.00974703      -0.00037648
C        7.37636628       1.41837335       3.73575638       0.00252201      -0.00556146      -0.00077106
C        6.18112415       3.53905560       3.50385401      -0.00484807      -0.01432167       0.00038650
C        5.01011309       5.64792277       2.96323322      -0.00238317       0.01380377      -0.00320752
C        3.65877778       7.81202739       3.63302910       0.00667336       0.00342802      -0.00054975
C        2.44023056       9.98562605       3.80784696      -0.01634806       0.00008965      -0.00563298
C        9.83625612       1.41030977       3.69607129       0.00141775       0.00203325       0.00409089
C        8.60731494       3.55320967       3.68207848      -0.00672440      -0.00522052      -0.00432302
C        7.40183808       5.70133695       3.49953120      -0.00138961      -0.00377105       0.00082292
C        6.15908590       7.84372592       3.40943507       0.00223352      -0.00168403       0.00801147
C        4.91219749       9.95794384       3.61880784      -0.00386616      -0.00833004      -0.00262402
W        3.71511107       5.82447762       4.60585131       0.00319791      -0.00967128      -0.00299555
