49
Lattice="12.336457 0.0 0.0 -6.168228499999997 10.683685154694365 0.0 0.0 0.0 15.0" Properties=species:S:1:pos:R:3:forces:R:3 energy=-434.02126774564664 free_energy=-434.02126774564664 stress="0.00559076427765617 -0.0006502189295083021 -2.4110550691303615e-05 -0.0006502189295083021 0.0031754934962451367 7.141531655454776e-06 -2.4110550691303615e-05 7.141531655454776e-06 -1.0929191870772571e-05" pbc="T T T"
C       -0.02077217      -0.08678981       3.84650337       0.00031498      -0.00123942       0.00237210
C       -1.25646901       2.05645907       3.80473075       0.00159613      -0.00368875      -0.00070579
C       -2.48639307       4.19995492       3.78229214      -0.00188670       0.00191322      -0.00084634
C       -3.72317475       6.32748060       3.78471252       0.00286435       0.00257590       0.00155572
C       -4.96161045       8.45799819       3.81005818       0.00444353       0.00059073       0.00199422
C        2.44415509      -0.04107614       3.83470136       0.00005997      -0.00137512      -0.00064855
C        1.18119351       2.06220592       3.84094741       0.00261387      -0.00160146       0.00244834
C       -0.02363882       4.13454543       3.81103816      -0.00124901      -0.00062188      -0.00175375
C       -1.21423149       6.30070359       3.79008055      -0.00098742       0.00161764       0.00015237
C       -2.47953068       8.46011001       3.78991902       0.00091506      -0.00133670      -0.00487940
C        4.90002616      -0.06570287       3.78254926      -0.00128724      -0.00121126       0.00120809
C        3.69660334       2.08824091       3.88202632      -0.00147762       0.00096009      -0.00392204
B        1.32573158       6.30338498       3.93815468      -0.00095349       0.00311411       0.00431361
C       -0.00656386       8.46754679       3.71493198      -0.00128483      -0.00438432       0.00057404
C        7.36279368      -0.04619221       3.70139788       0.00015518       0.00040180      -0.00415312
C        6.12876361       2.08468301       3.81183468      -0.00135006       0.00193116      -0.00305863
C        4.89103678       4.18270925       3.96965170       0.00062403       0.00301433       0.00608976
O        3.87375734       7.71013952       1.64010492      -0.01897980       0.00458811      -0.00420248
C        2.44434178       8.54446666       3.46281455       0.00199617       0.00256680      -0.00107527
C        9.85688939      -0.07108082       3.71672761      -0.00279890       0.00508375      -0.00067006
C        8.60947099       2.07184330       3.76093091       0.00095239       0.00005089       0.00255242
C        7.36952896       4.20516022       3.80833669       0.00124417      -0.00442975       0.00014984
C        6.10210387       6.30211265       3.86192221       0.00384057      -0.00231024      -0.00206285
C        4.87869915       8.42772831       3.79617020      -0.00443062       0.00234224      -0.00076767
C       -0.01682479       1.34918000       3.84104178       0.00388424      -0.00324567      -0.00024909
C       -1.25431293       3.47053485       3.79692460      -0.00259628      -0.00253837       0.00013115
C       -2.47554827       5.61625883       3.78146181       0.00019153       0.00384307      -0.00283650
C       -3.71941926       7.75163581       3.79546771       0.00354013       0.00087851       0.00063419
C       -4.95127784       9.89803139       3.83353508       0.00146241      -0.00032213      -0.00189868
C        2.44317695       1.40971076       3.85785367      -0.00009327      -0.00253734       0.00006772
O        1.15505094       3.43565244       3.79115894      -0.00431287      -0.00285996      -0.00058296
C        0.01605880       5.54679935       3.82568023       0.00047520       0.00177812      -0.00017029
C       -1.23290663       7.73772382       3.77354026      -0.00183493      -0.00187380       0.00092866
C       -2.49492266       9.90291624       3.80316871      -0.00052403      -0.00288547       0.00090474
C        4.89125233       1.37337489       3.82335597      -0.00185948       0.00138337      -0.00261993
O        3.72595947       3.46123498       3.99280097       0.00084827       0.00240905       0.00022344
C        1.25109842       7.77583323       3.67273092       0.00048789       0.00048892       0.00009957
C       -0.03008027       9.90573277       3.72445926      -0.00034353      -0.00293110      -0.00183400
C        7.36050350       1.37525993       3.75751676       0.00033960       0.00163601      -0.00399555
C        6.12716608       3.49643755       3.85409932       0.00027532       0.00089729       0.00179673
C        4.86437808       5.60206246       4.03709760       0.00866218      -0.00319949       0.00447573
C        3.74592472       8.02803702       2.83962815      -0.00108420      -0.00059799      -0.00488262
C        2.44261572       9.95237260       3.61393248      -0.00005718       0.00208823      -0.00157979
C        9.85184654       1.36054850       3.76202175      -0.00063887       0.00158249       0.00549613
C        8.61021254       3.49291793       3.77993742       0.00082922      -0.00141671       0.00296664
C        7.37008218       5.61466278       3.80432267       0.00547976      -0.00307823       0.00393699
C        6.13941338       7.72435797       3.80547364       0.00238981       0.00112923       0.00123980
C        4.90599688       9.88494060       3.80849860      -0.00439135       0.00522256      -0.00215907
W        3.25923851       6.93570096       4.63647421       0.00393574      -0.00440248       0.00524245
