50
Lattice="12.336457 0.0 0.0 -6.168228499999997 10.683685154694365 0.0 0.0 0.0 15.0" Properties=species:S:1:pos:R:3:forces:R:3 energy=-445.81269623419286 free_energy=-445.81269623419286 stress="0.00015428115118126625 0.0015729705985752036 2.8910807791425777e-06 0.0015729705985752036 0.00894627257058361 -7.078899176840037e-06 2.8910807791425777e-06 -7.078899176840037e-06 -1.3170247884147117e-05" pbc="T T T"
C       -0.00165297      -0.02338359       3.74504601       0.00112140       0.00905756      -0.00161883
C       -1.23529325       2.10136314       3.66573841      -0.00226473      -0.00127386      -0.00331759
C       -2.47738765       4.22226426       3.64972307      -0.00031216      -0.00031936       0.00012228
C       -3.73674391       6.36164139       3.76920244      -0.00254317      -0.00368298      -0.00517429
C       -4.94804907       8.51576691       3.80554014      -0.00597667       0.00520959       0.00109073
C        2.45473777      -0.01378699       3.88843209       0.01067486       0.00270727      -0.00891995
C        1.23800191       2.16785525       3.83767231      -0.00492316       0.00214480      -0.00097715
C        0.00574605       4.28812004       3.57355672      -0.00616923      -0.00546836      -0.00485056
C       -1.29187178       6.37986885       3.60623980      -0.00349058      -0.00405337       0.00868256
C       -2.48826140       8.50971482       3.84280235       0.00350285      -0.00007382       0.00092921
C        4.93089540      -0.05204363       3.94268206       0.00406536       0.01161360      -0.00298281
C        3.69950808       2.11394908       4.00529611      -0.00946934      -0.00176114       0.00172067
B        2.49953221       4.46239974       4.14094961       0.00610217      -0.00013581       0.00331496
O        0.97295960       6.48099873       2.97098411       0.00735019      -0.00706918      -0.00747829
C       -0.01879599       8.45945840       3.89038669       0.00237563      -0.00189520       0.00484365
C        7.40039463      -0.08927016       3.83078991      -0.00635384      -0.00608789      -0.00548135
C        6.17968886       2.06987106       3.92771241      -0.00019998      -0.00719721      -0.00437817
C        4.95863954       4.22301636       4.07631303       0.00835576       0.00485968       0.00720354
O        3.68423564       7.31309823       1.86313947       0.00533005      -0.00572924      -0.00847025
C        2.43570425       8.41324349       3.62375041      -0.00488655      -0.00100198      -0.00584896
C        9.85606070      -0.07876511       3.65947884      -0.00387816      -0.00682428       0.00544993
C        8.63487159       2.06495448       3.74506758       0.00222934       0.00637215      -0.00520352
C        7.40632362       4.21072644       3.84115663      -0.00221752       0.00092173      -0.00178528
C        6.13556698       6.35478631       3.90750252       0.00817246       0.00391602       0.00783861
C        4.94442067       8.49037159       3.63879787      -0.00148412      -0.00219153       0.00493669
C        0.00522869       1.41197070       3.74034270      -0.00104119       0.00755693      -0.00657435
C       -1.23310392       3.53546624       3.60830183      -0.00426933      -0.00541358       0.00624440
C       -2.50500493       5.64769400       3.67452034      -0.00457562      -0.00368665      -0.01344256
C       -3.72705106       7.79532568       3.80812143      -0.00539024       0.00016819       0.00480363
C       -4.94427216       9.94610921       3.81087321       0.00279294       0.00975432      -0.00058841
C        2.45902234       1.42177821       3.92553845      -0.00650474       0.00013858      -0.00587737
C        1.23297612       3.61393450       3.82504138      -0.00528475      -0.00105343       0.00073769
C       -0.09320524       5.69887602       3.38584942      -0.00384183      -0.00259766      -0.00138966
C       -1.26579961       7.79387802       3.78612577       0.00328543      -0.00234257      -0.00138612
C       -2.48433087       9.94109133       3.90842573       0.01339389       0.00351328      -0.00312629
C        4.93631509       1.37390384       3.97115358      -0.00712746       0.00798091       0.00562704
C        3.72588763       3.54243992       4.08997896       0.01216969      -0.00437657      -0.00134357
C        1.18137148       7.67171648       3.74447356       0.00308786      -0.00483603      -0.00171742
C       -0.00403119       9.89094651       3.91325835      -0.00446719      -0.00026688       0.01210573
C        7.40641300       1.34397698       3.83865732       0.00318465      -0.00470662      -0.01480574
C        6.19253539       3.49331275       3.94567947       0.00227630      -0.00573626       0.00537920
C        4.93171486       5.64780013       4.13236906       0.00789671       0.01152325       0.01108597
C        3.71915728       7.84394387       3.01446057       0.00275287       0.01299887       0.00723566
C        2.45539303       9.86922309       3.70184636      -0.00796818      -0.00654777       0.00541305
C        9.86648865       1.35806921       3.67945968      -0.00113795      -0.00263745       0.01007789
C        8.63457742       3.49499251       3.74001027       0.00013583       0.00881433       0.00094039
C        7.38430057       5.63817099       3.83633439       0.00030366      -0.00225666      -0.00243568
C        6.15245786       7.78411269       3.77804558      -0.00047156      -0.00182309      -0.00408171
C        4.93437647       9.91976133       3.66550891       0.00081145      -0.00165923       0.00473062
W        3.11763079       6.54999267       4.73832234      -0.00512211      -0.00454539       0.00274177
