50
Lattice="12.336457 0.0 0.0 -6.168228499999997 10.683685154694365 0.0 0.0 0.0 15.0" Properties=species:S:1:pos:R:3:forces:R:3 energy=-445.411441885761 free_energy=-445.411441885761 stress="-0.003767195252225778 0.0049449702555487305 4.006408282261184e-06 0.0049449702555487305 -0.005510545458947342 -8.338340032082795e-06 4.006408282261184e-06 -8.338340032082795e-06 5.515563837836044e-06" pbc="T T T"
C        0.02079017       0.00357866       3.87714583       0.00015914       0.00083284      -0.00042286
C       -1.18768537       2.15559206       3.79153101       0.00369263       0.00060231      -0.00173355
C       -2.41839999       4.28433874       3.53156269      -0.00232932      -0.00408239      -0.00441747
C       -3.68914912       6.41244294       3.49551092       0.00641786       0.00055041      -0.00006095
C       -4.94599106       8.53516739       3.68387703       0.00251522       0.00003463      -0.00244663
C        2.47985716      -0.00622992       3.85548562       0.00270837       0.00061213       0.00410508
C        1.26550851       2.14976847       4.01503050      -0.00131066      -0.00053901      -0.00054897
C        0.04952493       4.29477886       3.59331109      -0.00639987      -0.00069306       0.00003452
C       -1.21458997       6.43385178       3.31611843      -0.00229109       0.00249157       0.00092310
C       -2.46978937       8.55281988       3.59384598       0.00144462       0.00000921      -0.00045556
C        4.95888754      -0.01671647       3.78899062      -0.00375270       0.00240317      -0.00129027
C        3.76595941       2.08810515       3.98909828      -0.00438643       0.00195160       0.00224920
B        2.63418247       4.19866096       4.41247517      -0.00057578      -0.00321099      -0.00621087
B        1.33624877       6.61956835       2.97393864       0.01378146      -0.00492389       0.00443038
C       -0.00323291       8.55749969       3.69645380       0.00118770       0.00373600      -0.00019308
C        7.42407610       0.01784640       3.84940129       0.00035118      -0.00776252       0.00520870
C        6.22600773       2.11171151       3.77089206      -0.00012795      -0.00385696       0.00568739
C        5.03316018       4.21434814       3.80735947      -0.00051068       0.00336288       0.00199500
S        3.24679529       6.19778542       3.57593331      -0.00553930      -0.00816715       0.00520647
C        2.46698588       8.60519269       3.92806171       0.00009331      -0.00208142      -0.00350179
C        9.90624389       0.02326458       3.89987980      -0.00001246       0.00419652      -0.00359385
C        8.68859683       2.14709608       3.73285416      -0.00035763      -0.00203337       0.00016783
C        7.46181801       4.26711083       3.59104775      -0.00229632       0.00369071       0.00093166
C        6.15391231       6.38755858       3.58744917       0.00355885      -0.00224575       0.00523068
C        4.92698049       8.53116668       3.80490187       0.00297824      -0.00021239       0.00271738
C        0.03469466       1.43521748       3.90759713       0.00039558      -0.00034280       0.00012410
C       -1.19239786       3.57321469       3.61876993      -0.00151195      -0.00027226      -0.00002682
C       -2.44285995       5.70829930       3.42695401       0.00185869      -0.00266626      -0.00182852
C       -3.70290251       7.83683813       3.57139344       0.00242898      -0.00016923      -0.00461627
C       -4.92604731       9.96362463       3.81291619       0.00228689       0.00232111      -0.00351487
C        2.49573309       1.41376813       3.99466495      -0.00242626       0.00096216      -0.00194531
C        1.24900781       3.61025774       4.03436141      -0.00040374      -0.00010290       0.00622170
C        0.04398575       5.71111727       3.17622277      -0.01012660      -0.00129660      -0.00004153
C       -1.22111724       7.84543885       3.49308539       0.00185676       0.00351776       0.00382055
C       -2.45856568       9.96401469       3.74941334       0.00047176      -0.00078672       0.00513616
C        4.99075950       1.39004909       3.84706504      -0.00671621       0.00214052      -0.00459443
C        3.86632057       3.48192615       4.08044495       0.00173957       0.00090295       0.00029972
C        1.23896716       7.86633564       3.82676081       0.00019679      -0.00099716      -0.00410956
C        0.02039570       9.98000253       3.78489005      -0.00235449       0.00173145      -0.00618626
C        7.45319464       1.42688691       3.77950584       0.00062348      -0.00833349       0.00428734
C        6.25897163       3.52719595       3.70758778      -0.00136596       0.00058897       0.00604178
C        4.97708066       5.60238030       3.62229631      -0.00479447       0.00208555      -0.00057684
C        3.65268573       7.90460126       3.82699924       0.00221266       0.00119790      -0.00170895
C        2.49103706      10.02077912       3.93382406       0.00125854      -0.00263909       0.00235277
C        9.91782609       1.44350250       3.81292683       0.00367693       0.00372673      -0.00523963
C        8.69391417       3.56380821       3.60781076      -0.00432388      -0.00078386      -0.00244760
C        7.42065867       5.69139700       3.54262786       0.00494271       0.00336508       0.00191465
C        6.15359194       7.81675456       3.67681958       0.00308223      -0.00341214      -0.00364221
C        4.95419592       9.97437644       3.87244752      -0.00055399       0.00275757      -0.00063852
W        1.23245110       5.65661194       4.84111785      -0.00145238       0.01183969      -0.00309299
