50
Lattice="12.336457 0.0 0.0 -6.168228499999997 10.683685154694365 0.0 0.0 0.0 15.0" Properties=species:S:1:pos:R:3:forces:R:3 energy=-446.655819204966 free_energy=-446.655819204966 stress="-0.0072095778197270675 0.0024580167032768655 -6.113360312591393e-06 0.0024580167032768655 -0.010240209049874188 -7.919401383180036e-06 -6.113360312591393e-06 -7.919401383180036e-06 -3.3300227354059226e-06" pbc="T T T"
C        0.01608109      -0.00388880       3.74343323       0.00510441       0.00539295       0.00506118
C       -1.20794167       2.14207171       3.75276319      -0.00533748      -0.00397123       0.00794009
C       -2.44888343       4.29178155       3.76339917       0.00007426      -0.00690390       0.00132117
C       -3.69440816       6.42438021       3.76350420       0.00766626      -0.00086927      -0.00151929
C       -4.93356633       8.54604307       3.78560166       0.00111118      -0.00102444      -0.00599736
C        2.48196512      -0.00623799       3.58957140       0.00239308       0.00440570       0.00554839
C        1.26249930       2.10242066       3.84325327      -0.00752631      -0.00542574       0.00044735
C       -0.02403359       4.25403801       4.05420587       0.00393772       0.01107372      -0.00227605
C       -1.24446753       6.44999247       3.85835122      -0.01080399      -0.00888710      -0.00947500
C       -2.46189914       8.55999159       3.60898378       0.00652080       0.00406109      -0.00630754
C        4.95285349       0.00828206       3.36363272      -0.00095127      -0.00440557       0.00066180
C        3.74630173       2.10550574       3.48557598       0.00529225      -0.00241300       0.00863997
B        2.62057335       4.21691877       4.05306429      -0.00021457       0.01037160      -0.00453336
B        1.28276862       6.55114927       4.01101299       0.00473507       0.01039173       0.01576033
C        0.00038874       8.59970384       3.51108842      -0.00938720      -0.00310486      -0.01187104
C        7.43111562       0.03590360       3.36242515      -0.00292783       0.00345095      -0.00978635
C        6.21402512       2.14365111       3.35179328      -0.00523689      -0.00251149      -0.01785941
C        5.02760456       4.24730201       3.66714223      -0.00130425       0.00429383       0.00505599
P        3.37551256       6.22419203       4.60162037       0.00104215       0.00179406      -0.00784238
C        2.49279176       8.64257600       3.68560637      -0.00349153      -0.00501687      -0.00777512
C        9.90627118       0.03376541       3.59879485       0.00537806      -0.01042427      -0.00022532
C        8.67705630       2.16112621       3.49058117       0.00680190       0.00157347       0.00081642
C        7.44902031       4.28865606       3.59978543      -0.00088073       0.00086813      -0.00398849
C        6.17698475       6.40436235       3.92523151      -0.00229522      -0.00007527      -0.00850390
C        4.93606247       8.55781370       3.92739465      -0.00385338       0.00336424      -0.00917826
C        0.02221673       1.41813926       3.78365244      -0.00566832      -0.00051876       0.00167476
C       -1.23394780       3.55929819       3.85293096      -0.00127780      -0.00285937       0.00453314
C       -2.45887135       5.71914304       3.80336268      -0.00309275      -0.01065177      -0.00256430
C       -3.69570470       7.84620427       3.72913214       0.00910131       0.00181206      -0.00017511
C       -4.92143023       9.96696891       3.71312756       0.00210457       0.00358254       0.00677303
C        2.49400384       1.41246573       3.63043582       0.00238246      -0.00058589       0.01214181
C        1.23533424       3.52388153       4.08382104      -0.00190319       0.00035157      -0.00212569
C       -0.02193038       5.71222420       4.07337111       0.00128849       0.01050195       0.00266335
C       -1.22613336       7.86159180       3.65588785      -0.00638999      -0.00690909      -0.00688660
C       -2.45393900       9.97622001       3.49199036       0.00422225       0.00553933       0.01517444
C        4.97577624       1.41917564       3.34680842      -0.00146093      -0.00662469       0.00597077
C        3.83150745       3.50154413       3.61620636       0.00145181       0.00569739      -0.00024967
C        1.25295582       7.97415324       3.62569719      -0.00431873      -0.00015099      -0.00826262
C        0.01827916      10.00779054       3.36473435      -0.00361633      -0.00327381      -0.00056753
C        7.44543400       1.44953119       3.35807138      -0.00018828       0.00593143      -0.00196764
C        6.24186694       3.55975338       3.48621949      -0.00156544      -0.00241956       0.00404152
C        4.99221917       5.62441263       4.02683375      -0.00241907       0.00512810       0.00668593
C        3.66895899       7.92500439       4.04252101      -0.00059598      -0.00319466      -0.00788668
C        2.50284191      10.03717084       3.49968274      -0.00225054      -0.00124171       0.00452243
C        9.90474196       1.45010940       3.59039149       0.00250603      -0.01076053       0.00382786
C        8.67536797       3.57952081       3.59563164       0.00085569       0.00089201       0.00103979
C        7.41887819       5.70564432       3.76233797       0.00560504       0.00183502       0.00050578
C        6.17110369       7.83530487       3.92350077      -0.00605511      -0.00010833      -0.00290982
C        4.95049690       9.98141273       3.75378736       0.00894990       0.00324133       0.01279389
W        1.49357658       5.14654028       5.50270695       0.00648837      -0.00122202       0.00713334
