49
Lattice="12.336457 0.0 0.0 -6.168228499999997 10.683685154694365 0.0 0.0 0.0 15.0" Properties=species:S:1:pos:R:3:forces:R:3 energy=-435.07514128455495 free_energy=-435.07514128455495 stress="0.0008492534041571962 -4.544725641394248e-05 4.8950909375792464e-06 -4.544725641394248e-05 -0.011703181813781192 4.031036733504643e-06 4.8950909375792464e-06 4.031036733504643e-06 1.9807206945390444e-06" pbc="T T T"
C        0.00242378      -0.04328116       3.52351434       0.00032458       0.00598301       0.00740736
C       -1.20568971       2.13699798       3.73916742       0.00749822       0.00928537      -0.00601896
C       -2.42920256       4.27655506       3.88254922       0.00382000       0.00306277       0.00012416
C       -3.68079803       6.39178709       3.75572682      -0.00419977      -0.00648142      -0.00202091
C       -4.93166748       8.50038153       3.57163897       0.00092592      -0.00600119      -0.00248737
C        2.48165043      -0.09542370       3.48800121      -0.00062145      -0.00111790      -0.00202265
C        1.26029518       2.00551141       3.68281782       0.00299267      -0.00701295       0.01232406
C        0.05177858       4.27462600       4.06983990       0.00720200      -0.00422259       0.00266515
C       -1.17977758       6.41443326       3.79338949      -0.00631779      -0.00013170      -0.00900562
C       -2.44129160       8.50238093       3.52655101       0.00200119       0.00870313       0.00666932
C        4.94988034      -0.01714034       3.53147414       0.00825559       0.00176284       0.01090399
C        3.68562654       1.99136784       3.92197442      -0.00815417      -0.00046488       0.00085572
B        1.43647072       6.48088551       3.70330611      -0.00048088       0.00452714      -0.00705985
C        0.02003771       8.56991200       3.43057261       0.00458860       0.00150026       0.00702543
C        7.41169414       0.04788579       3.49660134      -0.00254927      -0.00589077       0.00160942
C        6.17112398       2.14535309       3.78308392       0.00023481      -0.00362657       0.00031312
C        4.97793973       4.31929938       4.04926053      -0.01229443      -0.00707310       0.00129041
B        3.45113225       6.38931953       4.12571104      -0.00684005       0.01503761      -0.00329923
C        2.49310339       8.63580236       3.52322154       0.00099890      -0.00114317      -0.00421735
C        9.89282014       0.03858800       3.55014208      -0.00942873      -0.00321939      -0.00008652
C        8.65403945       2.16092850       3.71515917       0.00328548       0.00625939      -0.00418951
C        7.41859170       4.27788692       3.85686660      -0.00057492       0.00210857      -0.00447923
C        6.15079105       6.41116524       3.82670817       0.00418217      -0.00001980      -0.00128170
C        4.92811180       8.53713282       3.66113924      -0.00275410      -0.00098241       0.00040867
C        0.00460118       1.37797603       3.61514458       0.00617260       0.00985861      -0.00181023
C       -1.19090293       3.55643443       3.92144145       0.00427929       0.00449859       0.00666647
C       -2.42597891       5.69753416       3.83414294      -0.00544208      -0.00474086      -0.01193822
C       -3.68421132       7.79979517       3.60835695       0.00281293      -0.00335213       0.00884073
C       -4.93423082       9.90958438       3.48939933      -0.00083460      -0.00138404       0.00000990
C        2.47783355       1.29751911       3.64947904      -0.00325319      -0.00771487       0.00610949
B        1.35620995       3.45733099       4.03184420      -0.00000339      -0.00997012       0.00725419
C        0.08235784       5.71168824       3.95186755      -0.00075946       0.00059374      -0.00475160
C       -1.19547658       7.81765894       3.56969035       0.00024610       0.00303644      -0.00726260
C       -2.44081978       9.91694681       3.48517046       0.00569746       0.00903212      -0.00398110
C        4.94908682       1.39555582       3.74166027      -0.00386373      -0.00390462       0.00525948
P        3.42895006       3.62755397       4.46354585      -0.00095956      -0.00459483       0.00216840
C        1.27609589       7.93856015       3.44279603       0.00107611       0.00646527      -0.00243455
C        0.01539015       9.99605300       3.44864479       0.00457821      -0.00380786      -0.00250598
C        7.40936957       1.45820682       3.65139811       0.00224230      -0.00167319      -0.00616626
C        6.18239997       3.56164438       3.90320931      -0.00050825      -0.00011418       0.00136605
C        4.89481372       5.72242341       3.97733790       0.00546028       0.00202654       0.00413952
C        3.67218885       7.88402138       3.75757246      -0.00162464       0.00432167      -0.00641899
C        2.48713921      10.04788538       3.47965186      -0.00845160      -0.00975214      -0.00027204
C        9.89300857       1.45375278       3.65418386       0.00370924       0.00150381      -0.00221226
C        8.66255542       3.57479825       3.82369304       0.00198895       0.00709757       0.00450998
C        7.40472557       5.69652019       3.82326247      -0.00074057      -0.00281846      -0.00176462
C        6.16466742       7.81692349       3.68888892      -0.00042265      -0.00324948      -0.00302298
C        4.93814332       9.96371114       3.55792638      -0.00203924       0.00099665       0.00485801
W        1.88039266       5.14611568       5.17599436      -0.00145507      -0.00319650      -0.00206868
