49
Lattice="12.336457 0.0 0.0 -6.168228499999997 10.683685154694365 0.0 0.0 0.0 15.0" Properties=species:S:1:pos:R:3:forces:R:3 energy=-437.1842758921545 free_energy=-437.1842758921545 stress="-0.0047328071087965615 -0.004296362727633827 9.94442899259314e-07 -0.004296362727633827 -0.0007193950805062097 -1.121505653443633e-06 9.94442899259314e-07 -1.121505653443633e-06 1.7395608255733892e-07" pbc="T T T"
C       -0.00451550       0.00446856       3.81703174       0.00676540       0.00773454      -0.00017708
C       -1.26890626       2.12250111       3.84054633       0.00781164       0.00214787      -0.00394371
C       -2.48626922       4.27032744       3.82451399       0.00552571      -0.01237842      -0.00167286
C       -3.68705554       6.41744857       3.79148032      -0.00507225       0.01354065      -0.00052667
C       -4.91541796       8.56927257       3.80365834      -0.00050851      -0.00600416      -0.00334055
C        2.45890636       0.01560127       3.79328824      -0.00027960      -0.00505892       0.00969017
C        1.18552043       2.10177712       3.82628616      -0.00846994       0.00320001       0.00026382
C       -0.06855387       4.25302198       3.97388005       0.01007851      -0.00420337       0.01071826
C       -1.24401677       6.40070639       3.87867402      -0.00621088      -0.00503824      -0.01233458
C       -2.45961783       8.55340027       3.82064132       0.00799526       0.00173140      -0.00365488
C        4.92922906       0.00200746       3.71646883       0.00243408      -0.00141212       0.00947195
C        3.65623651       2.13394841       3.47517211       0.00222802      -0.00722847       0.01031078
C        1.21090663       6.36308341       3.93309940       0.00533638      -0.01132954       0.00202713
C        0.00826504       8.52615159       3.82332007      -0.00187693       0.00613069       0.00146823
C        7.39247720      -0.01412531       3.74245536      -0.00298201       0.00669592       0.00437836
C        6.14501337       2.14878732       3.58712514       0.00296066       0.00114543      -0.00088746
C        4.94177321       4.35768457       3.43477944      -0.00796892       0.00193833      -0.00632830
N        3.83635218       6.46807002       3.75797732       0.00177889      -0.00161919      -0.00242144
C        2.48009386       8.50913911       3.82525143      -0.00852305       0.00112812      -0.00221191
C        9.85210608      -0.01604369       3.79659344       0.00313832       0.00905681      -0.00298540
C        8.60856053       2.13129379       3.74626878       0.00295527      -0.00303805       0.01018708
C        7.39397242       4.28247587       3.68448451      -0.00742849       0.00525417      -0.00854794
C        6.21815091       6.46090554       3.66456609      -0.00194000      -0.00894773       0.00352744
C        4.95818706       8.55958755       3.78135697       0.00829462       0.00210701       0.00027613
C       -0.02762412       1.42641239       3.82937638      -0.00063127       0.00289424       0.00058619
C       -1.26114417       3.54254025       3.87596285       0.01492601      -0.00474768       0.01058848
C       -2.46334625       5.69307363       3.83596278      -0.01156073      -0.00408669      -0.00133433
C       -3.68587613       7.84437743       3.81192378       0.00432989       0.00983505      -0.00600444
C       -4.93124844       9.99421284       3.82238364       0.00083692      -0.00603291      -0.00362914
C        2.42768886       1.44936081       3.71713376      -0.00859681      -0.00045816      -0.00264579
O        1.12051246       3.48964478       4.11638193      -0.01486923      -0.00544015      -0.00074219
C       -0.00781166       5.66242020       3.94441820      -0.00005804      -0.00566333      -0.00973340
C       -1.22759805       7.82607904       3.84243916       0.00291881       0.00066673      -0.00477486
C       -2.47024321       9.98041401       3.78088252       0.00414386      -0.00264490       0.00136341
C        4.91075010       1.43161451       3.58536433       0.00656814      -0.00474409      -0.00018192
P        3.63297304       3.59100574       2.43483858       0.00063803      -0.00141697      -0.00242552
C        1.25171734       7.76571575       3.86053148      -0.00705161      -0.00333204       0.00881066
C       -0.00290476       9.95429487       3.75825047      -0.00130939       0.00677151       0.00705239
C        7.37667414       1.42029763       3.69067332       0.00287250       0.00074597      -0.00441916
C        6.15600937       3.57885204       3.56333165      -0.00887512       0.00282750       0.00815508
C        5.00956524       5.79732855       3.57395490      -0.00022919      -0.00357678      -0.00863673
C        3.74074174       7.82634859       3.79805227       0.00111006      -0.00166913      -0.00380635
C        2.45844859       9.94125877       3.78706436      -0.00389340       0.00887380       0.01051503
C        9.84660346       1.41459914       3.79759499       0.00774944       0.00645742      -0.00646252
C        8.61555369       3.56072263       3.75351746      -0.00447961      -0.00354035       0.00016572
C        7.42752687       5.71100110       3.71183228      -0.00216052       0.00635669      -0.00603409
C        6.19734948       7.87218627       3.75266481       0.00186313      -0.01166737       0.01230857
C        4.92963460       9.97348575       3.80668590       0.00759110       0.00954247      -0.00604812
W        2.71204331       4.80981147       4.16457835      -0.00787518       0.00849643      -0.00595354
