49
Lattice="12.336457 0.0 0.0 -6.168228499999997 10.683685154694365 0.0 0.0 0.0 15.0" Properties=species:S:1:pos:R:3:forces:R:3 energy=-431.29068744769893 free_energy=-431.29068744769893 stress="-0.004854821123715423 0.0028680067569434027 6.2178667514333425e-06 0.0028680067569434027 -0.007992847176954206 2.265696787976048e-07 6.2178667514333425e-06 2.265696787976048e-07 1.1432418820875593e-06" pbc="T T T"
C        0.01161606       0.00210199       3.67871432       0.00321198      -0.00144636      -0.00654750
C       -1.19858867       2.15682482       3.50153826       0.01383834      -0.00043879      -0.00222093
C       -2.45833955       4.28180659       3.47668021      -0.00461803      -0.00336790       0.00120711
C       -3.70831602       6.41146045       3.57900129       0.00300024      -0.00340076      -0.00550241
C       -4.95130170       8.52930944       3.71092700      -0.00378723       0.00676954      -0.00646604
C        2.47352443      -0.04113533       3.72781267      -0.00801497       0.01375446      -0.00762344
C        1.28967104       2.09540824       3.67782710      -0.01428867      -0.00706954      -0.00740956
C       -0.02240867       4.33657089       3.35946454       0.00302685       0.00221901       0.00822765
C       -1.27743748       6.44785864       3.37736297       0.00586641      -0.00394308       0.00612224
C       -2.47909791       8.54880938       3.52866799       0.00695285      -0.00587801       0.00133348
C        4.94671118      -0.00927029       3.66237618      -0.00950290      -0.00746772      -0.00119938
C        3.72042324       2.02436949       4.15295915       0.00860306      -0.00245627       0.00749567
C        1.16066870       6.45784542       3.68911849      -0.00807806      -0.00151895      -0.00988189
C       -0.00193715       8.56133916       3.50432869       0.00329016       0.00088177       0.00189107
C        7.41312315       0.01253582       3.58331331      -0.01332750       0.00406862       0.00265854
C        6.19887587       2.12055176       3.88157436       0.00437228       0.00143423      -0.00499771
C        5.09333498       4.26334491       4.42116389       0.01126020      -0.00554815       0.00184582
S        3.53746741       6.34896367       4.68826737      -0.00329405       0.00014291       0.01200568
C        2.46326146       8.58146922       3.74290768       0.00054961       0.00166549       0.00673524
C        9.88768377       0.01524140       3.61450089       0.00195024      -0.00036120       0.00469795
C        8.65935528       2.14389684       3.58803793       0.00629381       0.00163389       0.01094807
C        7.43533464       4.26818201       3.77845233      -0.00617636       0.00184377       0.00478461
C        6.20032709       6.41091264       3.98047552       0.00393224      -0.00233770      -0.00375490
C        4.93236299       8.55370141       3.87666829       0.00403190       0.00977927       0.00333738
C        0.03258389       1.43947172       3.60356756       0.00198869      -0.00994857      -0.00600760
C       -1.21995242       3.56900301       3.42975375       0.00405474       0.00220074       0.00124373
C       -2.48251561       5.70849879       3.44677493       0.00463260      -0.00561106      -0.00013455
C       -3.71270640       7.83132482       3.59507400      -0.00092359       0.00107886      -0.00499741
C       -4.93916770       9.95364845       3.69726005      -0.00234563       0.01016079      -0.01557507
C        2.49230465       1.37238061       3.87446508      -0.00375326       0.00973170       0.00030296
S        1.50559399       3.64094650       2.86981859      -0.00061309       0.00166641       0.00191988
C       -0.03455151       5.76041824       3.42068697      -0.00325647       0.00049181       0.00001402
C       -1.24589505       7.85818297       3.44112604       0.01252461      -0.00460719      -0.00191602
C       -2.45872610       9.95866468       3.63643520      -0.01201938      -0.00363730       0.00338103
C        4.96460783       1.39958443       3.89834149       0.00672610      -0.01065792       0.00235265
S        3.67501474       3.47845913       5.06229656      -0.01524491       0.01083526      -0.00630485
C        1.23853628       7.84492999       3.64498246      -0.00533513       0.00415706       0.00901178
C        0.01142431       9.97778943       3.55958394      -0.00909766      -0.00246214       0.01391119
C        7.41775303       1.43134118       3.66234635       0.00283850       0.00621438       0.00453395
C        6.23574880       3.53191954       4.02218156       0.00172774       0.00298523      -0.00509484
C        5.06037903       5.65037468       4.34681752      -0.00051037      -0.00129315      -0.00506366
C        3.66896326       7.91394285       4.02430412       0.00546154      -0.00684216       0.00350293
C        2.48063750       9.99554778       3.60839123      -0.00908231       0.00217175       0.00503911
C        9.89962496       1.44184939       3.54531485       0.01207710      -0.00125249      -0.00755065
C        8.65825234       3.56308466       3.59464920      -0.01325033       0.00183698       0.00315453
C        7.41761449       5.69311567       3.76983678       0.00309414      -0.00239365      -0.01033292
C        6.15747782       7.82747617       3.87112285       0.00227997       0.00282637      -0.00230973
C        4.94138274       9.97839221       3.70554224       0.00757075       0.00544871      -0.00415303
W        1.78669432       4.83610366       4.84190583       0.00136326      -0.01205897       0.00338583
