49
Lattice="12.336457 0.0 0.0 -6.168228499999997 10.683685154694365 0.0 0.0 0.0 15.0" Properties=species:S:1:pos:R:3:forces:R:3 energy=-432.9461786334241 free_energy=-432.9461786334241 stress="0.00398214158905025 0.0031342370922228698 6.423010543188896e-06 0.0031342370922228698 0.0006877036047401739 3.2395839465020964e-06 6.423010543188896e-06 3.2395839465020964e-06 1.2986803017514482e-06" pbc="T T T"
C        0.03054564      -0.00973177       3.75531516       0.00328717       0.00699653       0.00133007
C       -1.18507512       2.14636697       3.86811950      -0.00689688       0.00758648       0.00221867
C       -2.39590615       4.27041077       3.89960569       0.00043790      -0.00073668      -0.00930546
C       -3.67825237       6.39872266       3.75440657      -0.00242533       0.00217467       0.00173282
C       -4.93358275       8.52454495       3.75975935      -0.00122737      -0.00359436       0.00064231
C        2.48022551       0.03113823       3.55706031       0.00816986      -0.00083554      -0.00650363
C        1.22131069       2.12416153       3.46148732      -0.00178076      -0.00053021       0.00547645
C        0.14713831       4.20591371       3.93368133       0.00968187      -0.00510077       0.00858977
C       -1.21791803       6.40224761       3.58750848      -0.00200630      -0.00422705       0.00161365
C       -2.46346208       8.54536148       3.54496321       0.00346082       0.00248201       0.00126465
C        4.94094692       0.01097403       3.46137407       0.00398652       0.00695801       0.01675686
C        3.75517556       2.14053194       3.55058887       0.00400572      -0.00138142       0.00163378
C        1.23102283       6.51760376       3.67278812       0.00207378      -0.00379218       0.00160348
C        0.00557729       8.56896464       3.44779726      -0.00362540       0.00815169       0.00174162
C        7.42810948       0.01404339       3.56645894      -0.00508533       0.00302448      -0.01193823
C        6.20689330       2.12633918       3.59567004       0.00562158      -0.01086557      -0.00452511
C        4.99924601       4.18456854       3.84476517       0.00176149      -0.00053084       0.00567709
S        3.43341194       6.21229667       4.55843008       0.00559979       0.00216236       0.00532587
C        2.49089700       8.58260383       3.72763426      -0.00250159       0.00651063      -0.00290655
C        9.90603464       0.01025242       3.77761728       0.00216867      -0.00800431      -0.00704627
C        8.68036698       2.14138713       3.76975105       0.00232797      -0.00608507      -0.00456983
C        7.45158114       4.26333034       3.79858182      -0.00716065       0.00335332       0.00587927
C        6.16360548       6.36255557       3.94238474      -0.00580986       0.00446512      -0.00626589
C        4.93599126       8.52184574       3.95446142       0.00261102      -0.00453414       0.00063127
C        0.04195164       1.42554780       3.71567033      -0.00785318       0.00938755      -0.00109384
C       -1.16139515       3.55196261       3.99059076       0.00262918       0.00665892      -0.00651593
C       -2.43193252       5.69074508       3.75374873      -0.00376927      -0.00247655      -0.00422520
C       -3.69073889       7.82381381       3.68010736       0.00061955       0.00066973      -0.00202047
C       -4.91206976       9.96794056       3.68467282       0.00360319      -0.00009121       0.00122649
C        2.49003949       1.48210073       3.49762523       0.00482709       0.00142287       0.00947505
O        1.13062317       3.46288884       3.15278795       0.00263429      -0.00451980      -0.00034224
C        0.04867613       5.70214948       3.70944423      -0.00405045      -0.00648216      -0.00227376
C       -1.22186886       7.83259158       3.49305209       0.00054485       0.00136341      -0.00098074
C       -2.46335929       9.98321226       3.50584769       0.00894461       0.00332389      -0.00212986
C        4.95182726       1.43920212       3.50441685       0.00534325      -0.00130700       0.00645797
O        3.80071579       3.49694515       3.76995104      -0.00255555       0.00393865       0.00513487
C        1.25826099       7.88747183       3.54662199      -0.00499966       0.00114409       0.00453917
C        0.01416360       9.99164932       3.46737776      -0.00359001       0.00821519       0.00307546
C        7.43575369       1.43106058       3.63286853       0.00430918      -0.00535461      -0.00587658
C        6.21927631       3.53221517       3.72076356      -0.00095546      -0.00950126       0.00400344
C        4.96739462       5.56738590       4.06585677      -0.00496181       0.00313092       0.00694982
C        3.66238334       7.87263644       4.05020112      -0.00127194      -0.00827731       0.00240410
C        2.49961900      10.00162613       3.67071751      -0.00610807       0.00604637      -0.01438417
C        9.91822461       1.43671340       3.81488645       0.00088011      -0.00743248      -0.01052741
C        8.69483040       3.55943999       3.83084357      -0.00340635      -0.00173530      -0.00311943
C        7.42167305       5.67951212       3.83775217      -0.00719341       0.00715819       0.00140872
C        6.16576881       7.80002959       3.91447485      -0.00134775      -0.00325542      -0.00375484
C        4.95774128       9.95904743       3.83981663       0.00692598      -0.00317298       0.00387279
W        1.44595115       5.30422790       5.31441351      -0.00587303      -0.00250085      -0.00036006
