50
Lattice="12.336457 0.0 0.0 -6.168228499999997 10.683685154694365 0.0 0.0 0.0 15.0" Properties=species:S:1:pos:R:3:forces:R:3 energy=-448.336350090709 free_energy=-448.336350090709 stress="0.0010740507976288649 0.0020300207671989055 -1.2255924520401532e-05 0.0020300207671989055 0.009027584666303911 1.1406404267929285e-06 -1.2255924520401532e-05 1.1406404267929285e-06 -7.5610597447761464e-06" pbc="T T T"
C        0.00372979      -0.01259933       3.74171432       0.00799925      -0.00097997       0.00474286
C       -1.22668122       2.11237906       3.70064146      -0.00209763      -0.00164734      -0.00330295
C       -2.47015100       4.22771678       3.67391157      -0.00115993       0.00550862       0.00779237
C       -3.73751073       6.36606565       3.76354869      -0.00304947       0.00085629       0.01104260
C       -4.94958430       8.52008014       3.79554246       0.00406209      -0.01551761       0.00206207
C        2.45719565      -0.01419419       3.85646153      -0.00234300      -0.00134922      -0.00153972
C        1.24775481       2.17268449       3.82768204       0.00276774      -0.00252387       0.00705986
C        0.01874365       4.30239321       3.60810321       0.00750036       0.00868452      -0.00330196
C       -1.29179644       6.38264863       3.60154595      -0.00906601      -0.00163069      -0.00405216
C       -2.48887470       8.51283769       3.82068031      -0.00762723      -0.00232339      -0.00658756
C        4.92892558      -0.04561067       3.92070286       0.00233962      -0.00173835      -0.00376904
C        3.69733712       2.11079875       3.96742970       0.00464975       0.01112915       0.00590382
C        2.50813885       4.34772601       4.09694713      -0.00503205      -0.00786175       0.00180116
O        0.97413294       6.48563960       2.97461770       0.00551643       0.00254215       0.00251290
C       -0.02327083       8.46849479       3.87465244      -0.00553632      -0.00222544      -0.00681596
C        7.40154598      -0.08473655       3.84017852       0.00474969       0.00735308      -0.00013959
C        6.17696976       2.07643161       3.92591238       0.00549498      -0.01153539      -0.00490151
C        4.95146676       4.22424261       4.08113725      -0.00014752      -0.00132780      -0.00739392
O        3.66891246       7.29633957       1.89964848      -0.00873390      -0.00487844      -0.00798541
C        2.43369628       8.41011026       3.65375794      -0.00922120       0.00558161      -0.00261016
C        9.85785083      -0.07070847       3.68792736      -0.00568712      -0.00702339      -0.00274943
C        8.63759833       2.07068229       3.76994094       0.00326444       0.00717818       0.00417993
C        7.40530120       4.21502671       3.85387790      -0.00818843       0.00376567       0.00189639
C        6.13536619       6.35798918       3.91529208       0.00873405       0.00239239      -0.00059209
C        4.95269198       8.50538496       3.62278568       0.00833672       0.00209198       0.00856893
C        0.01801817       1.42729461       3.74851223       0.00217764       0.00080497      -0.00371076
C       -1.21675691       3.54685842       3.65116427       0.00462915       0.00546594       0.00087803
C       -2.50398873       5.65170789       3.67665926      -0.00947787       0.00248354       0.00641406
C       -3.72860538       7.79970546       3.79339848      -0.00066597      -0.00757020       0.00742127
C       -4.94290233       9.95139381       3.79259270       0.00293801      -0.01366457       0.00180895
C        2.46151413       1.42199837       3.88853741       0.00476290       0.00554578       0.01456923
C        1.28360710       3.63885939       3.84557452       0.00558800      -0.00433582      -0.01333137
C       -0.09504187       5.69664250       3.39169406      -0.00244410       0.00457050      -0.00702959
C       -1.26749186       7.79830342       3.76503085      -0.00855568      -0.00392311       0.00655350
C       -2.48351605       9.94446657       3.88044037      -0.00288114      -0.00202683      -0.01039113
C        4.92983672       1.38263421       3.94963950       0.00123033       0.00022888      -0.00229677
C        3.69370576       3.55230772       4.06651731       0.00107106       0.01005668      -0.00482152
C        1.17388533       7.68801258       3.73091543      -0.00405039       0.00184981      -0.01102077
C       -0.00700430       9.90032195       3.90393803       0.00655828       0.00169565       0.00156226
C        7.40553140       1.34988707       3.84766819       0.01132178       0.00277759       0.00256739
C        6.18596714       3.49903783       3.95370317      -0.00568733      -0.00898302      -0.00430696
C        4.94022353       5.63923632       4.13750680      -0.00229414       0.01161980       0.00064609
C        3.71426611       7.82782302       3.05929249      -0.00278460       0.00394115       0.00859110
C        2.45824629       9.86934235       3.73378864      -0.00723371      -0.00030363      -0.00066580
C        9.87271045       1.36605294       3.71445273      -0.00550096      -0.00724109      -0.00506323
C        8.63777136       3.50074836       3.76155287      -0.00380470       0.00982433       0.00468875
C        7.38374736       5.64235237       3.84231163      -0.00167117       0.00289801       0.00296572
C        6.14787095       7.79108963       3.77976651       0.00688496      -0.00838829       0.00309439
C        4.93898337       9.92980063       3.67256422       0.00488722       0.00392859      -0.01124640
W        3.04821247       6.42100574       4.64879772       0.00747713      -0.00577565       0.01030214
