49
Lattice="12.336457 0.0 0.0 -6.168228499999997 10.683685154694365 0.0 0.0 0.0 15.0" Properties=species:S:1:pos:R:3:forces:R:3 energy=-432.05687960576483 free_energy=-432.05687960576483 stress="-0.002610925919335868 -0.001578920135509515 -6.0610577087666595e-06 -0.001578920135509515 0.00041964211975787974 3.8850609662514565e-06 -6.0610577087666595e-06 3.8850609662514565e-06 -4.466316570437149e-06" pbc="T T T"
C        0.00042760      -0.02071369       3.75121880      -0.00149113       0.00252003      -0.00943560
C       -1.23993364       2.12700712       3.80226097       0.00398620      -0.00755168       0.01075068
C       -2.43657327       4.27049766       3.92832242      -0.00262793      -0.00217960      -0.00265699
C       -3.65914746       6.40914412       3.91827831      -0.00314741       0.00263496      -0.00517468
C       -4.90917258       8.54909551       3.85004652       0.00299816      -0.00200436       0.00222062
C        2.46752391      -0.00552779       3.65490859      -0.00488457       0.00223925      -0.00569459
C        1.19323664       2.07295891       3.53222220      -0.00234927       0.00107163      -0.01839435
C        0.00392952       4.26038364       3.85761989       0.00330480      -0.01127141      -0.00021787
C       -1.19630521       6.40256916       3.86927823      -0.00758207       0.00387745      -0.00109896
C       -2.44091185       8.53780833       3.75172538       0.00143985       0.00489632       0.00803914
C        4.93797356       0.00057648       3.60881557       0.00245861      -0.00250446      -0.00282541
C        3.68485561       2.10439019       3.42076264      -0.00947596       0.00708439       0.00835499
O        1.18835002       6.45187398       3.34389715       0.00380482       0.00247164      -0.00205766
C        0.00876683       8.53304272       3.63413541       0.00388544       0.00082619      -0.00052817
C        7.40794481      -0.01597132       3.67445024      -0.00042579       0.00003780       0.00064524
C        6.17390001       2.14634460       3.63894108       0.00130493      -0.00018592       0.00050020
C        5.04055628       4.35295624       3.71526312       0.00489541       0.00862309       0.00072865
C        3.72873458       6.37962958       4.02610494       0.00536148       0.00211723       0.00060802
C        2.45668139       8.50114047       3.74415092      -0.00602784       0.00776758      -0.00616049
C        9.86591763      -0.02523281       3.77358102      -0.00150770      -0.00161500       0.00569152
C        8.64143473       2.12922720       3.79899899       0.00420767       0.00852681      -0.01268337
C        7.44421403       4.27709044       3.87577164      -0.00633084       0.00514621       0.00549511
C        6.22864358       6.43399737       3.97403843       0.01292839      -0.00922025      -0.00037067
C        4.93969956       8.52320050       3.87737360       0.00354581      -0.01062728       0.00510809
C       -0.00964026       1.41104589       3.69157186       0.00350904       0.00048413      -0.00500018
C       -1.21685713       3.54760606       3.90473407      -0.00067554      -0.00990781      -0.00391093
C       -2.42664275       5.68850741       3.92390737      -0.00955303       0.00164514      -0.00140535
C       -3.67463875       7.83375697       3.84945515       0.00241860       0.00255879       0.00821553
C       -4.92639500       9.96880329       3.75328476      -0.00376999       0.00079402      -0.00822484
C        2.44099469       1.42985626       3.52701933      -0.00728828       0.00232957      -0.00566284
O        1.11405683       3.48823648       3.30750853      -0.00105310       0.00542318      -0.00492760
C        0.02495610       5.69168796       3.84111054      -0.00666105      -0.00882199      -0.00343981
C       -1.21650747       7.82338876       3.74141426       0.00138838       0.00799313       0.00060980
C       -2.45869284       9.97060052       3.66124267      -0.00096467       0.00250423       0.00390086
C        4.92809127       1.44175660       3.54791667      -0.00310850       0.00142753      -0.00455551
S        3.59063104       3.78641971       3.04565083      -0.00157834      -0.01158043       0.01272721
C        1.22980113       7.85559841       3.60041598      -0.00052700      -0.00012376       0.00746473
C        0.00789322       9.96498493       3.63341485       0.00419956      -0.00396342       0.00112335
C        7.40037651       1.42345691       3.70431021       0.00581392       0.00076054       0.00212093
C        6.20770147       3.56722771       3.74723755      -0.00176959       0.00364202      -0.00083531
C        4.97946245       5.73703072       3.94633747       0.00843046       0.00394405       0.00516395
C        3.69524783       7.76742753       3.89781248      -0.00821565       0.00017937      -0.00207857
C        2.46496040       9.94022698       3.73351192      -0.00460397       0.00471290      -0.00395605
C        9.87553551       1.41045106       3.79578723       0.00188694      -0.00108610       0.00252623
C        8.66362084       3.55489863       3.87535927      -0.00636418       0.00914355       0.00187745
C        7.44519482       5.70227874       3.93994816       0.00540451      -0.00188703      -0.00027442
C        6.19475424       7.84540225       3.92349789       0.00902003      -0.01351699      -0.00754775
C        4.93302318       9.94239103       3.80165332       0.00072475      -0.00574202       0.01043256
W        2.07971972       4.99001969       4.53845115       0.00506565      -0.00359322       0.01481311
