49
Lattice="12.336457 0.0 0.0 -6.168228499999997 10.683685154694365 0.0 0.0 0.0 15.0" Properties=species:S:1:pos:R:3:forces:R:3 energy=-437.668835701289 free_energy=-437.668835701289 stress="0.0002755530543530269 4.192907508599865e-06 -5.1002168183892384e-06 4.192907508599865e-06 0.0038906842427650825 -1.1962738141714896e-06 -5.1002168183892384e-06 -1.1962738141714896e-06 1.9215771777462827e-06" pbc="T T T"
C       -0.00137033       0.02346742       3.69525905       0.00255838      -0.00307464       0.00217502
C       -1.24661533       2.13597802       3.75876465       0.00333952       0.00975671      -0.00043913
C       -2.48631160       4.26865522       3.77386585      -0.01224819       0.00466951       0.01051724
C       -3.71971600       6.40870566       3.74358044      -0.00519257      -0.00111779       0.00715551
C       -4.95056224       8.55189934       3.68727438       0.00101136      -0.00692495       0.00801892
C        2.46469809       0.02343568       3.68887347      -0.00438050       0.00370869       0.00186278
C        1.24171048       2.20319986       3.84785847       0.00013428      -0.00591366      -0.00439258
C       -0.01807512       4.26734842       3.95219474       0.00213191      -0.00114303       0.00087180
C       -1.25862533       6.41293875       3.81560954      -0.00472597      -0.01103080       0.00148152
C       -2.48070582       8.54926339       3.70657018       0.00628638       0.00556060      -0.00091179
C        4.93078707      -0.01087197       3.66415767      -0.00124310       0.00168085      -0.00448670
C        3.71152980       2.09925915       3.61867127      -0.00154610       0.00349961      -0.00595815
C        1.20921898       6.37693671       4.05272826       0.00369760       0.00533862      -0.01316123
C        0.00243669       8.51695129       3.76129352      -0.00244134      -0.00227540       0.00363147
C        7.39848320      -0.02222591       3.68579077       0.00000747       0.00176986       0.00317117
C        6.16312285       2.13340193       3.69044366      -0.00517500      -0.00156665       0.00174541
C        4.91909621       4.27054522       3.81589413       0.00637187       0.00495903       0.00062909
O        3.73731923       6.45681039       3.41019782      -0.00349805      -0.00175553      -0.00257290
C        2.47635230       8.50298110       3.72144669       0.00305236       0.00002679      -0.00234558
C        9.85895142      -0.01332330       3.67665071       0.00312650      -0.00412776      -0.00137734
C        8.62292082       2.12994636       3.70955277       0.00778278      -0.00144721       0.01023357
C        7.37936514       4.27412616       3.77209211      -0.00163593      -0.00538337      -0.00754679
C        6.14663122       6.40834264       3.77954118       0.00195187       0.00259105      -0.00134302
C        4.93274060       8.54586577       3.63703782      -0.00419075       0.00218313       0.00123635
C        0.00215397       1.44957879       3.76145940       0.00031098      -0.00075830       0.00855978
C       -1.25862824       3.55351732       3.81572279      -0.00769233       0.01158021       0.00082931
C       -2.48630812       5.69794764       3.77303979      -0.01117281      -0.00211486       0.01607633
C       -3.71336880       7.83695386       3.71095295       0.00666059       0.00044372      -0.00135067
C       -4.93804490       9.98895948       3.68667342      -0.00019639      -0.00607056      -0.00125934
C        2.47654914       1.46310848       3.72176426      -0.00005850       0.00071398      -0.00295666
C        1.20942740       3.58945134       4.05140096       0.00252202      -0.00478135      -0.00407769
C       -0.01823174       5.69905770       3.95300687       0.00479990      -0.00044070      -0.00542014
C       -1.24622158       7.83048871       3.75841804      -0.00040250      -0.01018768       0.00043936
C       -2.47700069       9.97957315       3.67553467      -0.00212977       0.00885129       0.00512838
C        4.93294047       1.42050931       3.63741126      -0.00428482      -0.00117839      -0.00320417
O        3.73694308       3.50942517       3.41130591       0.00058659       0.00167431      -0.01162517
C        1.24164360       7.76284749       3.84652143       0.00112925       0.00835916       0.00950341
C       -0.00100074       9.94315927       3.69529226      -0.00128215      -0.00113459      -0.00118313
C        7.38592565       1.41488688       3.68651975       0.00126913       0.00446459       0.00888903
C        6.14682031       3.55834635       3.77898808       0.00074642      -0.00287177       0.00034886
C        4.91897609       5.69537616       3.81718951       0.00555178       0.00391949      -0.00739192
C        3.71147464       7.86667287       3.62013072      -0.00096935      -0.00160375      -0.01667075
C        2.46433958       9.94278041       3.68878962       0.00104658      -0.00282309       0.00159502
C        9.85530602       1.41715684       3.70690671       0.00960265      -0.00231931      -0.00345260
C        8.61657258       3.55831130       3.74432439      -0.00302969      -0.00264470       0.00180088
C        7.37936554       5.69319694       3.77157153      -0.00223221      -0.00463682      -0.00247796
C        6.16301153       7.83318364       3.68967200      -0.00512585       0.00147046       0.00896258
C        4.93036892       9.97726621       3.66435902       0.00249120      -0.00036405      -0.00398276
W        2.81099724       4.98315651       4.62241508       0.00668448       0.00246903      -0.00527458
