49
Lattice="12.336457 0.0 0.0 -6.168228499999997 10.683685154694365 0.0 0.0 0.0 15.0" Properties=species:S:1:pos:R:3:forces:R:3 energy=-439.331591497055 free_energy=-439.331591497055 stress="0.0005653298001428238 -0.0019098356932569468 -4.208776557047024e-06 -0.0019098356932569468 0.005851907697915264 5.207523848658726e-06 -4.208776557047024e-06 5.207523848658726e-06 -5.3031389885125435e-06" pbc="T T T"
C        0.06284652       0.03064387       3.84247520      -0.00671184      -0.00418008      -0.00414670
C       -1.19296384       2.14790189       3.76110558       0.00741132       0.00621014      -0.00217603
C       -2.46099155       4.25796734       3.67052391      -0.00581860      -0.00132581      -0.00344304
C       -3.67343005       6.40595100       3.72345571       0.00059664      -0.00424084      -0.00705503
C       -4.88484617       8.55587054       3.79585406      -0.00367031      -0.00610440      -0.00536969
C        2.51865737       0.00858521       3.85155739      -0.00533282      -0.00283075      -0.01321226
C        1.30347010       2.18374349       3.97442763      -0.00119432      -0.00088672       0.00137293
C       -0.10870339       4.30247261       2.97783941      -0.00033624       0.00438019       0.00271193
C       -1.23408794       6.41157935       3.63896346      -0.00275815      -0.00573778      -0.00812531
C       -2.41844550       8.55078416       3.77101963       0.00102092       0.00096921      -0.00871695
C        4.98935003      -0.00652994       3.82726177       0.00470018       0.00069232       0.00605672
C        3.74248495       2.17154142       3.90590278       0.00301092       0.00170717       0.00950546
C        1.22309138       6.32051108       3.81284451      -0.00419942       0.00744242       0.00077725
C        0.07239899       8.50304156       3.79477006       0.00480659       0.00235858       0.00401830
C        7.45398256      -0.02859214       3.83584749       0.00243326      -0.00187829       0.00085727
C        6.19816665       2.14169918       3.83334362      -0.00254286      -0.00072399       0.00004171
C        4.90506243       4.31501137       3.87014677       0.00364636       0.00801885      -0.00188836
O        3.84414024       6.48161453       3.78644750      -0.00230634      -0.00243261      -0.00294150
C        2.54971463       8.49033812       3.84897730       0.00557550       0.00002926      -0.01105205
C        9.91600278      -0.01103926       3.83744377      -0.00328714      -0.00034295       0.00071971
C        8.66537388       2.12258050       3.79875720      -0.00344527       0.00625510      -0.00866861
C        7.40304511       4.26733337       3.78361073      -0.00107757       0.00859976      -0.00487186
C        6.20930158       6.42209578       3.79530444       0.00368496       0.00398383       0.01116607
C        5.00300152       8.56281929       3.81582027      -0.00004214      -0.00359059       0.01451201
C        0.07616660       1.47582044       3.85481137      -0.00212188      -0.00510386       0.00606542
C       -1.24688499       3.53475403       3.59612621      -0.00090330       0.00340559      -0.00254644
C       -2.45430049       5.69045420       3.65079653      -0.00293245      -0.00747947       0.00013474
C       -3.65269442       7.83762220       3.75980685      -0.00293852      -0.00406347      -0.00679933
C       -4.87954305       9.99107930       3.83289319      -0.00921403      -0.00364545      -0.00625733
C        2.51376241       1.44611391       3.91747606       0.00530897      -0.00296975       0.00938354
O        0.23024359       4.13425642       1.75402470      -0.00210063       0.00216203      -0.00257021
C       -0.01254104       5.69469582       3.57398668       0.00297286      -0.00756968      -0.00239091
C       -1.18642092       7.83097714       3.73689414       0.00235252      -0.00444433       0.00892460
C       -2.41770614       9.97562801       3.81900460       0.00056861       0.00340375      -0.00608346
C        4.98032066       1.42639204       3.84863617       0.00019767      -0.00272301       0.01110420
C        3.67973901       3.59426195       3.95760407       0.00053673      -0.00096518      -0.00829786
C        1.31198367       7.73418295       3.83444545       0.00478040       0.00244671      -0.00912575
C        0.05685622       9.93895916       3.81997057       0.00478015       0.00285464       0.01141070
C        7.43587857       1.40661540       3.82526853      -0.00266054       0.00058755       0.00405155
C        6.16379155       3.57543681       3.82751466       0.00298281       0.00207385       0.00025838
C        4.99015984       5.74069594       3.83036916       0.00483405       0.00740881       0.00642658
C        3.80529134       7.84604163       3.82190862       0.00343850      -0.00062176       0.00105385
C        2.52576913       9.92480728       3.84602232      -0.00008592      -0.00202661      -0.01336499
C        9.90498863       1.41696740       3.80812952       0.00097287       0.00336610       0.00379998
C        8.64371109       3.54705150       3.75966361      -0.00573122       0.00775867       0.00234285
C        7.42785687       5.69020613       3.76572236       0.00244331       0.00671727       0.00043762
C        6.22639572       7.84786121       3.79559234      -0.00037539      -0.00217452       0.01416895
C        4.99542662       9.99495731       3.83049329      -0.00527025      -0.00582590       0.00035657
W        1.67252052       4.27478659       4.33385835       0.00400104      -0.00894403       0.00744478
