49
Lattice="12.336457 0.0 0.0 -6.168228499999997 10.683685154694365 0.0 0.0 0.0 15.0" Properties=species:S:1:pos:R:3:forces:R:3 energy=-442.13844706176434 free_energy=-442.13844706176434 stress="0.0029118908925613108 0.0018183944821675761 1.0680942736152804e-07 0.0018183944821675761 0.005868120667485948 2.5929211476900497e-06 1.0680942736152804e-07 2.5929211476900497e-06 -5.624733534060444e-07" pbc="T T T"
C        0.01233440       0.03841646       3.63431219       0.00032853      -0.00532973      -0.00227506
C       -1.23019648       2.14357981       3.78806330       0.00900868       0.00499077      -0.00509496
C       -2.50007506       4.26869519       3.82757170       0.01289627      -0.00022177       0.01009242
C       -3.73807852       6.40662216       3.68721272      -0.00048563      -0.01344944       0.00366144
C       -4.94765531       8.56036880       3.56309640      -0.01313462      -0.00317947       0.00954606
C        2.47596499       0.04333072       3.54717380       0.00359806       0.00355715       0.00352598
C        1.27710286       2.22539623       3.74432814      -0.01297494       0.00125407       0.00356035
C       -0.02241683       4.27779364       3.99658363      -0.00413017      -0.00218509       0.00771678
C       -1.28505580       6.41611645       3.87110481       0.00409377       0.00059221       0.00946455
C       -2.48689723       8.54853902       3.66209138       0.00498612       0.00924079      -0.00216345
C        4.93776306      -0.02351392       3.65100378       0.00655694       0.00490247       0.01704943
C        3.77460522       2.10411028       3.34615653       0.00201160      -0.01189373      -0.00346942
C        1.16681205       6.39280561       4.18819736       0.00439130      -0.00351191      -0.00490175
C       -0.00911321       8.52078024       3.85434029       0.00371312       0.00420599       0.00239224
C        7.40562961      -0.02619579       3.80404780      -0.01697339       0.00107884      -0.00615833
C        6.16651438       2.12621918       3.76427316      -0.01101209       0.00291230       0.00877728
C        4.82618345       4.22762691       3.75985989       0.00731503       0.00316024      -0.00577413
N        3.76090864       6.44328579       3.83451553       0.00783629      -0.00335326      -0.01018611
C        2.47461499       8.50641473       3.88013036      -0.00317848       0.01121479      -0.00442171
C        9.87060863      -0.00919324       3.75616992       0.00957442      -0.01051385       0.00272151
C        8.62967397       2.12803796       3.81682502      -0.00032826       0.00405894       0.00593419
C        7.35321718       4.26512730       3.81185551      -0.01170086       0.00174276       0.00234009
C        6.12888475       6.39637234       3.56810850       0.00142237       0.00746327      -0.00228118
C        4.93951561       8.55256140       3.63584711      -0.00492464      -0.00208543      -0.00774165
C        0.02781032       1.46827932       3.71565627      -0.00709054      -0.00082272       0.00509330
C       -1.25890958       3.55972912       3.86161135       0.00893484       0.00047600       0.00149401
C       -2.50904228       5.69811288       3.79479703       0.00747931      -0.00654355       0.00395472
C       -3.72165556       7.83652655       3.62025973      -0.00632202      -0.00184679       0.00296625
C       -4.92984281      10.00263375       3.57108201      -0.00287631       0.00348738       0.00429170
C        2.50663789       1.48926952       3.52488219      -0.00656391       0.00262016      -0.00148528
C        1.24253906       3.62201750       4.03023983      -0.00203757      -0.00529942      -0.00208820
C       -0.05664430       5.70146467       4.04612619      -0.00111316      -0.00734869      -0.01293466
C       -1.25759135       7.83258634       3.79673365       0.00492744       0.00376562       0.00363130
C       -2.47594598       9.97887612       3.59671929       0.01023808       0.01232786       0.00859118
C        4.95753035       1.39618973       3.59311677       0.01026939      -0.00649919      -0.00774075
O        3.94444299       3.41699626       2.90153786       0.00178592      -0.00079218      -0.01573155
C        1.23497006       7.78350353       3.99415422       0.00213441      -0.00531846      -0.00997009
C        0.00399994       9.93811175       3.77106677      -0.00817069       0.00461237       0.00910871
C        7.39486519       1.41023887       3.80328936      -0.01366952       0.00518004       0.00092205
C        6.11287435       3.54846366       3.86233539      -0.01007929       0.00103403      -0.00327644
C        4.90484336       5.69136795       3.63224504       0.01206827       0.00249666      -0.00237093
C        3.71768070       7.81771342       3.76384973       0.00112401       0.00783619      -0.01130565
C        2.47261738       9.94177963       3.81627375      -0.00920880       0.00753760      -0.00869347
C        9.86950186       1.41868048       3.78427016       0.01209598      -0.00817448       0.00249860
C        8.60312378       3.55534669       3.81994285      -0.00021830       0.01028565       0.00694142
C        7.36206635       5.68751103       3.67834321      -0.00428264      -0.00240292       0.00517486
C        6.15630890       7.83628870       3.56227774      -0.01033359      -0.00322890      -0.00161509
C        4.94193293       9.98325209       3.67098012       0.01136027      -0.01215394      -0.00531156
W        2.65243439       5.03031231       4.75006022       0.00065902      -0.00587922      -0.00445900
