49
Lattice="12.336457 0.0 0.0 -6.168228499999997 10.683685154694365 0.0 0.0 0.0 15.0" Properties=species:S:1:pos:R:3:forces:R:3 energy=-442.07338882017336 free_energy=-442.07338882017336 stress="-0.006785819273044574 -0.0027856038935047387 2.4845087843138445e-06 -0.0027856038935047387 -0.0035093003955472954 4.562744626922375e-06 2.4845087843138445e-06 4.562744626922375e-06 4.486668488451713e-06" pbc="T T T"
C       -0.00365689       0.01163620       3.76851455       0.00555887      -0.01688883       0.00687103
C       -1.26013682       2.12476901       3.82003079       0.00130955       0.00269068       0.01077630
C       -2.48926408       4.26481448       3.84824075      -0.00680793       0.00176226      -0.00126274
C       -3.68943165       6.41228178       3.80145973      -0.00207222       0.00770978      -0.00650541
C       -4.92075160       8.56238355       3.76099529      -0.00190876       0.00974037       0.00007915
C        2.46585773      -0.00625343       3.74604182      -0.00073327       0.00390401       0.01245399
C        1.22196618       2.16049134       3.77982787      -0.00718406      -0.00006913      -0.00046846
C       -0.04695255       4.25732676       3.95468831      -0.00307090       0.00357963       0.00786089
C       -1.24542530       6.40497195       3.90863423      -0.00199719      -0.00420060      -0.00541396
C       -2.46207174       8.54237989       3.80730770       0.00110511      -0.00284568       0.01764717
C        4.93531702      -0.01858657       3.70722782      -0.01351427       0.00695652      -0.00327274
C        3.67375450       2.06093948       3.41638770       0.00452800      -0.01123994       0.00697042
C        1.22755306       6.34961976       4.00918352      -0.00274279      -0.00906917      -0.00179613
C        0.00741157       8.51777521       3.85284280       0.00262924       0.00560233      -0.00336384
C        7.39127326      -0.01409446       3.75523852       0.00012743      -0.00531599       0.00850886
C        6.14924352       2.13728247       3.60993322       0.00663239       0.01165479      -0.00487548
C        4.98174436       4.33380390       3.50871216      -0.00701050       0.00073721       0.01105976
C        3.76754864       6.44741355       3.62900050      -0.00624087      -0.00329470      -0.00083850
C        2.46082938       8.52955291       3.81570556       0.00139092      -0.00911541      -0.00753333
C        9.85322319      -0.00926265       3.77050486       0.00506621       0.01172414       0.00065401
C        8.61419374       2.12834769       3.76300596      -0.01265672      -0.00214215       0.00404184
C        7.40119987       4.27530012       3.72671241       0.01245880      -0.00804174      -0.00324120
C        6.22020157       6.44645933       3.65265389       0.01260391      -0.00382681      -0.00768933
C        4.95137880       8.56820933       3.71489769      -0.00570971      -0.00680510      -0.00566572
C       -0.01653263       1.42974886       3.79570793      -0.00164687      -0.01409868      -0.00235321
C       -1.27466302       3.54141243       3.87568377      -0.00346223       0.00681609       0.00435458
C       -2.47139442       5.69258266       3.86060219      -0.00746086       0.00181487      -0.00989581
C       -3.69159405       7.83844873       3.79337651      -0.00489921       0.01087294       0.00214123
C       -4.93469976       9.98063683       3.76975736       0.00787389       0.00258590       0.00418117
C        2.45047900       1.42255696       3.67050571      -0.00340671      -0.00203896      -0.00759150
C        1.17520812       3.55373483       3.94179189       0.00242530       0.01098238      -0.00324633
C       -0.02263843       5.67942053       3.98112418      -0.00226182      -0.00075350      -0.00462477
C       -1.23085104       7.82460965       3.86186685       0.00767106      -0.00309498       0.00092660
C       -2.46678634       9.96498852       3.75182399      -0.00938342      -0.00175873       0.00719147
C        4.92560487       1.40924534       3.57116150       0.00779484       0.00266885      -0.01174507
S        3.60208888       3.65057713       2.68289461       0.00598429       0.00913092       0.00635362
C        1.24907308       7.77921622       3.90053275      -0.00138318      -0.00475805       0.00431450
C        0.00168867       9.94280698       3.77233274      -0.01116170       0.00961741       0.00558478
C        7.37808248       1.41893815       3.71013756      -0.00630950      -0.00308049      -0.00175119
C        6.16503830       3.56010884       3.62516401       0.00836821       0.01009929      -0.00504652
C        4.99335310       5.75209108       3.55642612       0.00276006       0.00566404       0.00437373
C        3.70754990       7.84517120       3.71838517      -0.00465404      -0.00592348      -0.00552931
C        2.45412547       9.95694066       3.78313752       0.00865001      -0.00519072       0.00308922
C        9.84493852       1.41127592       3.78634837      -0.00627214       0.01443932       0.00240776
C        8.61881370       3.55433683       3.78530011       0.00130801      -0.00910086      -0.01035162
C        7.42363878       5.70460651       3.72906651       0.01314210      -0.01123463      -0.00392638
C        6.18803870       7.86340699       3.70702656       0.00219833      -0.00012792      -0.00513225
C        4.93216620       9.97945341       3.75626661       0.00086716      -0.00637133      -0.00653765
W        2.67165948       4.93467225       4.44055140       0.01149717      -0.00036617      -0.00218364
