49
Lattice="12.336457 0.0 0.0 -6.168228499999997 10.683685154694365 0.0 0.0 0.0 15.0" Properties=species:S:1:pos:R:3:forces:R:3 energy=-434.144272086948 free_energy=-434.144272086948 stress="0.002706304709274011 0.0014749196550449685 1.904532655474556e-05 0.0014749196550449685 -0.0004531938944889438 -3.6195665957774857e-06 1.904532655474556e-05 -3.6195665957774857e-06 1.631942437294473e-06" pbc="T T T"
C       -0.06654374      -0.04098585       3.96300661      -0.00286336      -0.00159203       0.01386388
C       -1.26908230       2.13261665       4.04975716      -0.00581939       0.00230065      -0.00323844
C       -2.50611496       4.26814262       3.95289949      -0.00224357       0.00020822      -0.00129167
C       -3.73299929       6.39907639       3.86852505       0.00005074       0.00054763       0.00477109
C       -4.99617017       8.51805890       3.88555894       0.00025981       0.00057611      -0.00076511
C        2.41139908      -0.05757992       3.76837021      -0.00102029      -0.00700989       0.00340514
C        1.22799666       2.05472225       4.01660379       0.01137997      -0.00011672       0.00410186
C       -0.05805104       4.35050939       4.14101814      -0.00477370       0.00318206       0.00105457
C       -1.27106747       6.42782272       3.92302349       0.00147990      -0.00439628       0.00208719
C       -2.51736658       8.52900356       3.81971622       0.00024117       0.00299724       0.01068679
C        4.88638942      -0.02201941       3.65765006      -0.00305815       0.00812151      -0.00491782
C        3.61961515       2.03641846       3.31018715       0.00072787      -0.00930536       0.01253948
N        1.19523861       6.44319988       3.99676703       0.01038338      -0.00206817       0.00372717
C       -0.05345374       8.53483634       3.83248281      -0.00641836       0.00344683      -0.00067133
C        7.35563624      -0.00881022       3.79034696       0.00467859      -0.00261018      -0.00985152
C        6.11198234       2.13666957       3.58405112       0.00504260       0.00766349       0.00824854
C        4.89191003       4.35608898       3.33607524       0.00864723      -0.00786135       0.00017038
O        4.88680892       6.05442167       1.59124491       0.00013991       0.00524359      -0.00251554
C        2.41998062       8.50977552       3.91137319       0.00223265      -0.00248002      -0.00147662
C        9.81587300      -0.01593967       3.94148911      -0.00144334       0.00123910      -0.00204983
C        8.58727228       2.12976503       3.86094916      -0.00241166       0.00343466      -0.00262489
C        7.35060220       4.26182386       3.72039051       0.00044165       0.00087965      -0.00038330
C        6.18496548       6.43196928       3.58769307      -0.01500733      -0.00481591      -0.00196033
C        4.83040312       8.47560614       3.90913779      -0.00662340      -0.00853522      -0.00523050
C       -0.04028460       1.39828833       4.03728514      -0.00043146       0.00150590       0.00489673
C       -1.26200130       3.57039141       4.06122319      -0.00565613       0.00317037      -0.00798560
C       -2.49687918       5.69335642       3.92031780       0.00053122      -0.00229777       0.00069081
C       -3.75320659       7.81593726       3.86239874       0.00086335       0.00189027       0.00136770
C       -4.99792212       9.93262100       3.89344640      -0.00193882      -0.00213373       0.00381364
C        2.41931950       1.34895298       3.68063403       0.00172500      -0.00842918       0.00929066
P        1.55456318       3.74588540       4.42042987      -0.00405354       0.00380220      -0.00126246
C       -0.02619614       5.76079251       4.01154458       0.00477842       0.00330912       0.01222710
C       -1.28164608       7.83310710       3.84933768      -0.00566616      -0.00328695       0.00318765
C       -2.51369011       9.94117420       3.73398802      -0.00025392       0.00056725       0.00165896
C        4.87562859       1.40362000       3.48777331       0.00712877       0.00596844      -0.00241419
P        3.40029402       3.68185466       2.53554376       0.00864582      -0.00292745       0.00470120
C        1.16804748       7.80964551       3.90406355      -0.00137448       0.00161731      -0.00433512
C       -0.04778723       9.95758603       3.75345076      -0.00574768       0.00649707       0.00280214
C        7.34628876       1.42376173       3.74686374       0.00369565       0.00133390      -0.00765654
C        6.10884011       3.56835149       3.56985014       0.00408302       0.00205014      -0.01419812
C        5.15828973       5.74652750       2.78256432       0.01610886      -0.00463972      -0.00041646
C        3.59653471       7.74491162       3.94986132      -0.00583929       0.00214464      -0.00724167
C        2.41553951       9.95993773       3.88201095       0.00488081      -0.00249342      -0.00867957
C        9.82803133       1.42056582       3.96120000      -0.00618012       0.00279585       0.00038498
C        8.58775467       3.55538868       3.85519182      -0.00046065       0.00148327      -0.00771812
C        7.37341106       5.69073631       3.74877557      -0.00484952       0.00014986       0.00059589
C        6.10386473       7.80741846       3.82224902      -0.00295585      -0.00268866      -0.00660526
C        4.86459142       9.92757349       3.95657489      -0.00366314      -0.00397808      -0.00313504
W        3.19078402       5.53497133       4.10982374       0.00260692       0.00553979      -0.00164847
