49
Lattice="12.336457 0.0 0.0 -6.168228499999997 10.683685154694365 0.0 0.0 0.0 15.0" Properties=species:S:1:pos:R:3:forces:R:3 energy=-432.7501168850796 free_energy=-432.7501168850796 stress="0.0037985862461208594 0.003487912343297436 -1.0215305280688993e-05 0.003487912343297436 0.003867428553186037 1.4346032088331107e-05 -1.0215305280688993e-05 1.4346032088331107e-05 -2.694487463233042e-06" pbc="T T T"
C        0.02682827      -0.00664513       3.71215491       0.00429160       0.00278740      -0.00311527
C       -1.18773219       2.14753019       3.79573469      -0.00059117       0.00317964      -0.00039686
C       -2.40277281       4.26879652       3.84592920       0.00290884      -0.00652252       0.00523722
C       -3.68389871       6.39892987       3.73676057      -0.00090748       0.01150200       0.00125520
C       -4.93789329       8.52742392       3.75232971      -0.00881773      -0.00254427       0.00530887
C        2.47863494       0.03840946       3.54093432      -0.00720717      -0.00546259       0.01131158
C        1.22648595       2.13943024       3.44606976      -0.00186138      -0.00240254      -0.00151482
C        0.13274561       4.24084388       3.91073930       0.00309066      -0.00466722       0.00756823
C       -1.22230629       6.40670996       3.58997711      -0.00133764      -0.00408080      -0.00266028
C       -2.46913711       8.54740198       3.53635711       0.00633772       0.00859387      -0.00226835
C        4.94138102       0.00730244       3.45563195      -0.00590268      -0.00117995       0.00051377
C        3.75876587       2.14627054       3.56353107       0.00752555      -0.00571089       0.00707457
N        1.19507477       6.48538762       3.64739633      -0.00427235       0.00595230      -0.01238251
C        0.00113260       8.55273995       3.45150197       0.00488145       0.00151370      -0.00641324
C        7.42999850      -0.00572003       3.53221053      -0.00552643       0.00119989       0.00692864
C        6.20801007       2.12109073       3.58686472      -0.00100413       0.00276917       0.00413945
C        5.00207181       4.18368538       3.92014215      -0.00109107       0.00740018      -0.00459343
S        3.54376631       6.25913569       4.86483615       0.00818809      -0.00936145       0.00293920
C        2.47783072       8.53387436       3.75502359       0.00110209       0.00310112       0.00361059
C        9.89857072      -0.00620662       3.72587352       0.00636691       0.00187699       0.00443982
C        8.67945431       2.13243447       3.71097786      -0.00176295      -0.00060251      -0.00491268
C        7.44894538       4.25880204       3.78627376      -0.00514342       0.00006546      -0.00122854
C        6.17050519       6.36239410       3.98337898       0.00275405      -0.00739823       0.00001915
C        4.93209353       8.52116333       3.97264933       0.00083254      -0.00299290      -0.00824630
C        0.04047750       1.43134434       3.65675882      -0.00308448       0.00242433       0.00047603
C       -1.16048593       3.56102593       3.92831583       0.00724404      -0.00116449       0.00070824
C       -2.44098331       5.68902742       3.72616741      -0.00312506      -0.00277199       0.01120814
C       -3.69832545       7.82451306       3.66827163       0.00080218       0.01418996       0.00755471
C       -4.91484354       9.97296864       3.66204053      -0.00548878      -0.00513788       0.00624058
C        2.49063705       1.49159196       3.49059852       0.00110148      -0.00568822       0.00910626
O        1.15609716       3.49504562       3.19109595      -0.00632402      -0.00042922      -0.00590998
C        0.02005389       5.73265306       3.71697724      -0.00373582      -0.00211720      -0.00059362
C       -1.23502928       7.83639317       3.49635389       0.00669996       0.00064625      -0.00520040
C       -2.46575988       9.98772031       3.49713235      -0.00514362       0.00408537       0.00049056
C        4.95261851       1.43732813       3.50539536       0.00424462      -0.00173068      -0.00371999
O        3.80542684       3.49502310       3.82523669       0.00335323       0.00308636       0.00926722
C        1.23121946       7.84718621       3.55951280       0.00277696       0.00240859       0.00073064
C        0.01484031       9.97983779       3.45660222      -0.00550534       0.00198783      -0.00452339
C        7.43649746       1.41918081       3.59369594      -0.00233595       0.00288390      -0.00635414
C        6.21718483       3.52801471       3.73799551      -0.00819260       0.00557521      -0.00658492
C        4.98914462       5.56608156       4.18339317       0.00682216      -0.00416831      -0.00444040
C        3.66501952       7.86152617       4.13104118       0.00401850      -0.00075385      -0.00728245
C        2.49303398       9.96826929       3.64305673       0.00218433       0.00371478      -0.01028248
C        9.91705885       1.42827757       3.74307487       0.00069697       0.00219620       0.00503043
C        8.69174173       3.55319354       3.78081780      -0.00202287      -0.00299647       0.00411849
C        7.42059507       5.67682353       3.83636390      -0.00078458       0.00116727      -0.00589034
C        6.16627635       7.80186456       3.93656272      -0.00504237      -0.00844441      -0.00511280
C        4.95387864       9.95478602       3.80649277       0.00859342       0.00034631      -0.00464452
W        1.48246380       5.37768772       5.35848717      -0.00060628      -0.00632549       0.00299411
