49
Lattice="12.336457 0.0 0.0 -6.168228499999997 10.683685154694365 0.0 0.0 0.0 15.0" Properties=species:S:1:pos:R:3:forces:R:3 energy=-432.06906525088027 free_energy=-432.06906525088027 stress="-0.0015281886415489186 -0.0018827345932413482 -1.1205733695939825e-05 -0.0018827345932413482 0.0011418387883931527 3.8771117398332865e-06 -1.1205733695939825e-05 3.8771117398332865e-06 -6.30791531650305e-07" pbc="T T T"
C       -0.00145976      -0.01826888       3.77869131      -0.00683879       0.00203800      -0.00704615
C       -1.24361940       2.12800240       3.82973531      -0.00388579      -0.00533705       0.00670955
C       -2.44559622       4.27169655       3.93159550       0.00168492       0.00033395      -0.00261733
C       -3.66631823       6.41054537       3.91386159       0.01448144       0.00072536      -0.00137964
C       -4.91306961       8.55120451       3.85649020      -0.00071582      -0.00778572       0.00212849
C        2.46726311      -0.00145777       3.68856610      -0.00047816       0.00102262      -0.00643770
C        1.19392699       2.07360582       3.57700842       0.00572407       0.00232052      -0.01220588
C       -0.00914603       4.26836110       3.85713368       0.00148009      -0.00107568       0.00264567
C       -1.20118011       6.40262448       3.86688711       0.00039597       0.00147709       0.00263393
C       -2.44173142       8.53926811       3.78266374      -0.00509271       0.00271853       0.00114499
C        4.93704191       0.00070027       3.64756145       0.00489394      -0.00036753      -0.00219508
C        3.68717805       2.10055393       3.37693386      -0.00312648      -0.00293652       0.00901479
O        1.17427041       6.45592192       3.35113075      -0.01267634      -0.00781200       0.00355855
C        0.01271182       8.53247423       3.69653225      -0.00048701      -0.00822159      -0.00349879
C        7.40810376      -0.01916420       3.72323553       0.00394719       0.01043681      -0.00273759
C        6.16990927       2.14904278       3.64166170      -0.01536167      -0.00160514      -0.00458325
C        5.01989056       4.36646530       3.63070717       0.00589001       0.00585558       0.00298711
N        3.76529852       6.39934978       3.93733568      -0.00061140      -0.00153949       0.00447751
C        2.46494831       8.48157042       3.77749977       0.00666870       0.00675539      -0.00121526
C        9.86303543      -0.02713392       3.80448750       0.00175761      -0.01078199       0.00418420
C        8.63643181       2.13068956       3.82268715       0.00589673      -0.00085786      -0.00609622
C        7.43060167       4.27969686       3.86616502      -0.00556830       0.00766318       0.00102045
C        6.21552574       6.43966296       3.92314024      -0.00009682       0.00081491       0.00189110
C        4.93676620       8.51722230       3.86140159       0.00257838      -0.00089489       0.00578969
C       -0.01041562       1.41303516       3.73064536       0.00357330       0.00542180       0.00293023
C       -1.22331199       3.55025774       3.91489040       0.00049210      -0.00370828      -0.00163104
C       -2.43358682       5.68963860       3.92092895       0.00954168       0.00032823      -0.00024991
C       -3.67714880       7.83494768       3.85991107       0.00290548      -0.00556600       0.00424194
C       -4.92746211       9.97425390       3.77950096      -0.00630989      -0.00514028      -0.00916696
C        2.44306785       1.43359439       3.54528327      -0.00153251       0.00445825      -0.00385066
O        1.10844141       3.48137748       3.33032055       0.00084385       0.00757644      -0.00401525
C        0.01480755       5.69214821       3.81882726      -0.00415669      -0.00040587       0.00501832
C       -1.21739281       7.82421745       3.77130476      -0.01075624      -0.00092905       0.00206168
C       -2.46010705       9.97242434       3.70006160       0.00361574       0.00393118      -0.00240133
C        4.92688732       1.43993876       3.54985402      -0.01232444       0.00158266      -0.00470105
S        3.62718613       3.75307129       2.84466333      -0.00834329      -0.00061616       0.00962086
C        1.22854125       7.85073980       3.66430772       0.00639779       0.00095698       0.00405170
C        0.00725392       9.96521535       3.69018146       0.00873947      -0.00096839      -0.00509230
C        7.39634963       1.42374625       3.73307166      -0.00413162       0.00919356       0.00038726
C        6.19236919       3.57630414       3.72274406      -0.00613298      -0.00510114       0.00109910
C        4.98098389       5.75891335       3.85117987      -0.00012112      -0.00075899       0.00793481
C        3.71698258       7.76843048       3.87731010       0.00714883      -0.00122682      -0.00101190
C        2.46661866       9.93094534       3.77584453       0.00306327       0.00833130      -0.00831492
C        9.87154599       1.41223110       3.82689187       0.00399401      -0.01399228      -0.00450655
C        8.65338491       3.55691953       3.88426584      -0.00188457       0.00480203      -0.00367244
C        7.43591032       5.70297817       3.91817765       0.00583986       0.01183997      -0.00130469
C        6.19217152       7.84687260       3.89889480      -0.00203081      -0.00127856      -0.00414730
C        4.92941239       9.94358620       3.81730176      -0.00267208      -0.00216801       0.00844669
W        2.17412120       4.95012794       4.38524408       0.00378109      -0.00950905       0.01010053
