49
Lattice="12.336457 0.0 0.0 -6.168228499999997 10.683685154694365 0.0 0.0 0.0 15.0" Properties=species:S:1:pos:R:3:forces:R:3 energy=-432.3992495299101 free_energy=-432.3992495299101 stress="-0.004456158177278653 -0.0022436352848857113 8.4494649440809e-06 -0.0022436352848857113 -0.004666087921023028 5.685551894559177e-06 8.4494649440809e-06 5.685551894559177e-06 3.201275565683638e-06" pbc="T T T"
C       -0.00766848      -0.00035060       3.95056619       0.00142522      -0.00869146      -0.00242877
C       -1.26315209       2.12490442       3.76790388       0.00301806       0.00057203      -0.00919625
C       -2.50807088       4.27429451       3.91602045      -0.00369133      -0.00562227      -0.00013551
C       -3.70170175       6.41832776       4.07966107      -0.00338877       0.00627144      -0.00990822
C       -4.92435081       8.56323807       4.10160395      -0.00184276      -0.00243776      -0.00881337
C        2.46433191      -0.01375153       3.84003396       0.00779549       0.00919680       0.00472431
C        1.19769429       2.00996445       3.34909542      -0.00614782       0.00790665      -0.00398924
C       -0.19571640       4.27462119       3.22647209      -0.01086790       0.00343494      -0.00026322
C       -1.27376455       6.41742905       3.72252236      -0.00200090      -0.00526670       0.00067340
C       -2.45903812       8.54802881       3.96291993       0.00109889      -0.00583351      -0.00674461
C        4.92624323       0.00944127       3.84876329      -0.00409029       0.00043179       0.00190397
C        3.68210683       2.10532776       3.37729226       0.00786761      -0.00203860       0.00589804
P        1.35294088       6.37543979       2.66358181       0.01430890      -0.00663662      -0.00885502
C        0.00184771       8.55489680       3.75263846       0.00210140       0.01014612       0.00362323
C        7.39138854       0.00867077       3.94863956      -0.00022923      -0.00042816       0.01145310
C        6.14233411       2.15690062       3.84136680       0.00317701      -0.00724344       0.00068751
C        4.94220323       4.35632000       3.60942225       0.00169483       0.01236231       0.00521345
N        3.80071099       6.46378428       3.77202646       0.00008664       0.00048318      -0.00223410
C        2.48092911       8.55293891       3.84243272      -0.00182806      -0.00287973       0.00508355
C        9.85945983       0.00279935       4.01534188      -0.00165919       0.00574474       0.00706878
C        8.61077274       2.14249614       3.99921493      -0.00042671      -0.00338236       0.00818918
C        7.37561359       4.28571867       4.03591898      -0.00363464       0.00196873       0.00484341
C        6.18843972       6.45230016       4.04458715       0.00035619       0.00003467      -0.00282789
C        4.94317924       8.55431544       4.04440565       0.00164428      -0.00631651       0.00626161
C       -0.02709751       1.40693410       3.71083145      -0.00165240      -0.00503656      -0.00271280
C       -1.30483879       3.53949782       3.66600010      -0.00204350      -0.00049053      -0.00893685
C       -2.48642098       5.70006153       3.93834338      -0.00582744      -0.00206589      -0.00565905
C       -3.69281262       7.84356595       4.07326240      -0.00427997       0.00113191      -0.00847068
C       -4.93389541       9.98163787       3.98878141       0.00746312      -0.00249016      -0.00548924
C        2.45348920       1.38410653       3.50840727       0.00106875       0.01538739      -0.00466353
S        1.14740326       3.48442330       2.42684934       0.00704168      -0.00720019       0.00316263
C       -0.13090650       5.66960095       3.31522840      -0.01180603      -0.00495743       0.00164190
C       -1.23546065       7.83821666       3.80873422       0.00407700      -0.00055636      -0.00107194
C       -2.46777221       9.97125396       3.90207072       0.00230466      -0.00515180      -0.00313408
C        4.91381868       1.43582521       3.70693603       0.00336650      -0.00344351       0.00209683
P        3.97419353       3.51441555       2.26094541      -0.00095098       0.01118383       0.00725826
C        1.25735472       7.89520353       3.56961236      -0.00056048      -0.00433928       0.00491611
C       -0.00636338       9.98021659       3.87996763      -0.00280043       0.01113183       0.00424069
C        7.37549737       1.43764798       3.96372596       0.00251332      -0.00739768       0.00378288
C        6.14698270       3.58075423       3.86673381      -0.00262461      -0.00401194       0.00121743
C        4.98979534       5.79185914       3.81178509       0.00278115       0.01024442      -0.00656402
C        3.73006996       7.83258259       3.90142671       0.00326526       0.00030472       0.00124132
C        2.46249952       9.97700255       3.97889472      -0.00103460       0.00120884       0.00960427
C        9.85424864       1.42831706       3.96151040       0.00280099       0.00627445      -0.00436902
C        8.60302847       3.56609121       4.02136309      -0.00334946      -0.00431873       0.00457972
C        7.40442052       5.71107070       4.08704175      -0.00014917       0.00643847       0.00064451
C        6.18066952       7.86480578       4.09965250       0.00075159      -0.00465699       0.00075064
C        4.92815076       9.97693049       4.03518032      -0.00355265      -0.00455191       0.00057123
W        2.71460631       4.72847175       3.75900360      -0.00156923      -0.00441319      -0.00486457
