49
Lattice="12.336457 0.0 0.0 -6.168228499999997 10.683685154694365 0.0 0.0 0.0 15.0" Properties=species:S:1:pos:R:3:forces:R:3 energy=-436.11280300776474 free_energy=-436.11280300776474 stress="0.004505251336807673 0.0019004718537163315 1.9568700285180716e-06 0.0019004718537163315 0.005938207400484209 5.934440129643843e-07 1.9568700285180716e-06 5.934440129643843e-07 -7.5148966541145084e-06" pbc="T T T"
C       -0.00802713      -0.06554606       3.82255955       0.00282494       0.00369273       0.00049113
C       -1.23353560       2.07951617       3.81509941      -0.00345624      -0.00160532      -0.00469113
C       -2.46040954       4.21423308       3.78453797       0.00229523       0.00343659       0.01185267
C       -3.72217121       6.33941949       3.76915794      -0.00411282      -0.00424365      -0.00479102
C       -4.96167719       8.47551620       3.78958007       0.00975757      -0.00515251       0.00304736
C        2.44840089      -0.01792208       3.79841289       0.00027166       0.00119623       0.00538709
C        1.19851617       2.09596381       3.82297368       0.00597463      -0.00058550       0.00870844
C        0.00457753       4.19486929       3.83503282      -0.00726440      -0.01186006       0.01199231
C       -1.22270452       6.33153055       3.77917871       0.00446084       0.00129951      -0.00868444
C       -2.49401882       8.48062118       3.76573006      -0.00265369       0.00136849       0.00080916
C        4.90584748      -0.05724602       3.76527701      -0.00448107      -0.00212577      -0.00851439
C        3.71722396       2.09562870       3.82484549       0.00293574       0.00908313       0.00737117
N        1.22031215       6.36348819       3.92381732       0.00052064       0.00036536       0.00867252
C       -0.03161576       8.47059716       3.72727159      -0.00748505       0.00001968      -0.01475862
C        7.37648089      -0.06318121       3.76116960       0.00068999      -0.00126904       0.00151004
C        6.15607458       2.07490147       3.78978234      -0.00711238       0.00405233       0.00540673
C        4.92618746       4.16600952       3.91264607      -0.00654484       0.00440008      -0.00261203
O        3.70455317       7.60795423       1.74104213       0.00035275      -0.00451394      -0.00429477
C        2.43149943       8.48669716       3.65892797       0.00623064      -0.00216092       0.00390884
C        9.85835665      -0.07548674       3.76673168       0.01003334      -0.00028595       0.00330324
C        8.63128920       2.07099900       3.78446930       0.00109825      -0.00460925      -0.00128333
C        7.39454153       4.20492346       3.78985977      -0.00157893       0.00302075      -0.00294373
C        6.10669305       6.30251563       3.82755761      -0.00273914       0.01106166      -0.00237775
C        4.91424503       8.45845490       3.72508297      -0.00611653      -0.00766539       0.00242415
C        0.00310182       1.37658060       3.82820997       0.00178940       0.00672662       0.00347503
C       -1.21602296       3.50581036       3.81184325      -0.00688140      -0.00678283      -0.00299146
C       -2.46547989       5.63195837       3.77090042       0.00147033       0.00451387       0.01076072
C       -3.72904860       7.76583111       3.77662362       0.00589298      -0.00739026      -0.00873966
C       -4.94760879       9.91663012       3.80445527       0.00266753      -0.00285468      -0.00845185
C        2.45368780       1.43544840       3.81528075       0.00709615       0.00208446      -0.00013044
O        1.17294152       3.47783549       3.82323402      -0.00262728      -0.00403136       0.00480876
C        0.03526010       5.62246522       3.84341838       0.00290106      -0.00918725       0.00836173
C       -1.26136471       7.75870157       3.75485005      -0.00638796       0.00263004      -0.01085291
C       -2.49733941       9.92346308       3.77429977      -0.00432158      -0.00049666      -0.00011626
C        4.91007583       1.37738273       3.78815104      -0.00313611       0.00039479       0.00233030
O        3.74941118       3.46494088       3.91081317       0.00709882      -0.00246936       0.01272667
C        1.17382175       7.74504009       3.74436378      -0.00463268       0.00316664      -0.00010978
C       -0.02717169       9.90738104       3.74287366      -0.00450172      -0.00139695      -0.00792077
C        7.38508219       1.36211896       3.77795378      -0.00481584      -0.00098775      -0.00600198
C        6.16143050       3.48456231       3.81700995      -0.00597558       0.00617222       0.00216161
C        4.88480529       5.58233747       3.98263244       0.00673114       0.00207022      -0.00417396
C        3.71108904       7.95147115       2.95893465       0.00254141       0.00847464      -0.00118719
C        2.44798793       9.91205541       3.74343376       0.00891001       0.00407226      -0.01189495
C        9.87191392       1.36046820       3.79289049       0.00280819      -0.00221668      -0.00856686
C        8.63744117       3.49658107       3.78196926       0.00375947      -0.00109558       0.00083956
C        7.37867757       5.61920240       3.78478398      -0.00697804       0.00435944      -0.00440348
C        6.13451978       7.73995428       3.77688674       0.00116966       0.00776695       0.00437029
C        4.92059474       9.88943349       3.78900269       0.00483400      -0.00476951       0.00543454
W        3.12894785       6.63643828       4.57916070      -0.00331308      -0.00567252       0.00033867
