49
Lattice="12.336457 0.0 0.0 -6.168228499999997 10.683685154694365 0.0 0.0 0.0 15.0" Properties=species:S:1:pos:R:3:forces:R:3 energy=-432.6622072745081 free_energy=-432.6622072745081 stress="-0.00583585082058886 0.003952185466587313 2.332766709531582e-06 0.003952185466587313 -0.008689855814272967 1.3688788732740604e-05 2.332766709531582e-06 1.3688788732740604e-05 2.6144867008256764e-06" pbc="T T T"
C        0.00744002      -0.01548138       3.55618093       0.00067942       0.00063997       0.00442071
C       -1.20049320       2.15090181       3.49505266      -0.00058464      -0.01407619      -0.00739337
C       -2.43653853       4.27293013       3.61654064       0.00266902       0.00644059      -0.00021079
C       -3.69979827       6.40204668       3.69108173      -0.00543069       0.00160895      -0.00492909
C       -4.95449210       8.51798723       3.69804583       0.00839041       0.00125837      -0.00350982
C        2.46814068      -0.06070530       3.56244003      -0.00905994       0.00785766       0.00038176
C        1.28678458       2.07414740       3.39854692       0.00158073       0.00505975      -0.00834373
C        0.02447431       4.35501918       3.54641916      -0.00091629      -0.00724984      -0.00486618
C       -1.26711468       6.45176074       3.55436368       0.00126301       0.00466516       0.00031486
C       -2.47912435       8.53871418       3.54088130       0.00093716       0.00360226      -0.00323522
C        4.95043809      -0.02085833       3.59459715       0.00293043      -0.00769994      -0.00480064
C        3.70956688       1.99947796       3.92786813       0.00067400       0.00147850      -0.00503864
N        1.15371120       6.48251336       3.69368614       0.00170961       0.00524469       0.00549805
C       -0.00233248       8.55469625       3.50672440       0.00254980      -0.00705557       0.00932292
C        7.41835579       0.00308184       3.55610093       0.00547731       0.00223376       0.00542419
C        6.20442784       2.11532353       3.84334466      -0.00621279       0.00695474       0.00627186
C        5.09274715       4.26898859       4.42685912      -0.00446274      -0.00910050      -0.00570381
S        3.56802669       6.40593805       4.93581738      -0.00850289       0.00115594       0.00246860
C        2.46023574       8.55584724       3.74422816       0.00334708       0.00168383      -0.00362431
C        9.88615327       0.00229504       3.58241403       0.00123106       0.00910221       0.00371189
C        8.66701777       2.13552869       3.62191288      -0.00412573      -0.00005200       0.00359830
C        7.44781967       4.26024594       3.86389110       0.00691034      -0.00567390       0.00385033
C        6.21024831       6.41377579       4.09355293      -0.00049163      -0.00331790       0.00529800
C        4.92756806       8.54435687       3.89169114      -0.00727678       0.00344457      -0.00662390
C        0.03002864       1.41880586       3.45267254       0.00502596      -0.00661178      -0.00255496
C       -1.20223062       3.57016778       3.54300435      -0.00479888      -0.01203130       0.00093150
C       -2.47108186       5.69899093       3.60829519      -0.00190356       0.01173882       0.00950218
C       -3.71301324       7.81994006       3.63711882       0.00578420      -0.00030067      -0.00117187
C       -4.94443504       9.93497726       3.58099905      -0.00111884       0.00095864       0.01318895
C        2.48288145       1.34266774       3.61299644      -0.00029287       0.00767616      -0.01383601
P        1.56663909       3.76167911       2.80647881      -0.00412269       0.00324579      -0.00063029
C       -0.04704507       5.80446623       3.62389915       0.00065287       0.00078843      -0.00262313
C       -1.24678532       7.85756185       3.50897785       0.00061214       0.00136241       0.00062869
C       -2.45882698       9.94818854       3.55765888      -0.00813535       0.00463328      -0.00255419
C        4.97001475       1.38555007       3.79786339      -0.00032415      -0.00505999       0.00693362
P        3.52752069       3.53771540       4.69244020      -0.00237383      -0.00683942      -0.00555610
C        1.21751198       7.84687750       3.64190037       0.00194074       0.00353808       0.00606253
C        0.01441971       9.97326209       3.52836897       0.00729030      -0.00942245       0.00635009
C        7.42698255       1.42227559       3.65385367      -0.00753340       0.00534674       0.00894574
C        6.24084947       3.52789162       4.03979762       0.00363873       0.00224084       0.00270772
C        5.07892707       5.66818599       4.48207839       0.00261800      -0.00708097       0.00059435
C        3.66703135       7.90748998       4.09255470      -0.00749788      -0.01617077      -0.00115345
C        2.48000217       9.97666147       3.58790183       0.00799550       0.00642136      -0.00277676
C        9.90021728       1.43226098       3.54457800      -0.00519042       0.00029993      -0.01197225
C        8.67233509       3.55628095       3.68695900       0.00692137      -0.00074632      -0.00026209
C        7.42724640       5.68666787       3.87727886       0.00003374      -0.00747365       0.00540478
C        6.16013924       7.82379770       3.91621005       0.00196772       0.00792029       0.00062732
C        4.94140784       9.96398455       3.65490503      -0.00269847       0.00884094      -0.00487134
W        1.71339422       4.90367053       4.88368739       0.00822378      -0.00147949      -0.00419702
