49
Lattice="12.336457 0.0 0.0 -6.168228499999997 10.683685154694365 0.0 0.0 0.0 15.0" Properties=species:S:1:pos:R:3:forces:R:3 energy=-433.99368977702534 free_energy=-433.99368977702534 stress="0.002918701197454116 0.0034778531634377893 7.310973486457162e-06 0.0034778531634377893 0.0035027610465439107 -1.0679976123365145e-06 7.310973486457162e-06 -1.0679976123365145e-06 7.110461706293491e-07" pbc="T T T"
C        0.05609639      -0.00868068       3.80936172      -0.00308627      -0.00054348       0.00007881
C       -1.15888875       2.14544474       3.63889625       0.00698250       0.00414082      -0.00797546
C       -2.43053372       4.27771424       3.70611790       0.00295615      -0.00138643      -0.01338679
C       -3.69836509       6.40613983       3.88403058      -0.00049966       0.00322392       0.00491175
C       -4.90925447       8.53200536       3.94269234       0.00012951      -0.00971940      -0.00225928
C        2.52706998       0.00257769       3.92701233      -0.00489828      -0.00189041       0.00158400
C        1.33563678       2.08660683       3.49316522       0.00278354      -0.01427747       0.00156153
C       -0.01213590       4.34400733       3.30838694      -0.00118784      -0.00318363      -0.00905234
C       -1.26934937       6.45108445       3.60564601       0.00232233      -0.00066994       0.00007364
C       -2.43574237       8.53807508       3.93430313       0.00955674       0.00408824       0.00010986
C        4.99764594      -0.02967006       3.93237704       0.00208393      -0.00535997      -0.00287077
C        3.81127548       2.10340950       3.90579750       0.00560450      -0.00696230       0.00785681
O        0.00108197       6.05495613       1.56612174      -0.00348278      -0.00826876       0.00176774
C        0.06960891       8.50860577       3.87470373      -0.00875658       0.00347453      -0.00015863
C        7.46653555      -0.01682197       3.88438913      -0.00127720      -0.01045268      -0.00656651
C        6.23362616       2.12440009       3.90024299       0.00491259      -0.00269718       0.01685242
C        4.98108786       4.23504345       3.95861024       0.00494097       0.00477341       0.01348585
N        3.68337702       6.38059463       3.94972288       0.00628850       0.01280062      -0.01129937
C        2.51786372       8.51085789       3.90467468      -0.00437082      -0.00642462       0.00490352
C        9.92969933      -0.01257257       3.81808547      -0.00428010       0.00849518       0.00428092
C        8.70290462       2.13310623       3.81048110      -0.00571191       0.00234855      -0.00621497
C        7.43239941       4.26807549       3.87147318       0.00088668       0.00827392       0.00792175
C        6.14933672       6.37684828       3.93800747      -0.01060769      -0.00309771       0.00749713
C        4.97004153       8.50917157       3.89956271       0.00025002      -0.00312677       0.01139693
C        0.08509799       1.43022464       3.63799694       0.00465823       0.00175455       0.00864561
C       -1.18812412       3.57347587       3.57717515       0.00754217      -0.00182230      -0.00558078
C       -2.46282788       5.70579928       3.74766079       0.00173007      -0.00122849       0.00536521
C       -3.67585056       7.82556833       3.93295002       0.00918502       0.00183821      -0.00062119
C       -4.88620968       9.96595983       3.90533750      -0.00592610      -0.00838315      -0.00511316
C        2.55651317       1.43533402       3.81711633       0.00804192      -0.00389650      -0.00803378
S        1.47492100       3.65430239       2.66934078       0.00664368       0.00672980      -0.00112098
C       -0.24792996       5.76114875       2.77303045       0.00487286       0.01393473       0.00960122
C       -1.20035438       7.83188882       3.82254917      -0.00034638       0.00043052      -0.00695615
C       -2.41561785       9.96093752       3.96279100      -0.00028843       0.00515102      -0.01349351
C        5.00483903       1.40619616       3.92138765       0.00717948      -0.00626993       0.00895219
O        3.84951432       3.46540668       4.07857273      -0.00892938       0.01487684       0.00673132
C        1.29976611       7.80663542       3.90838477      -0.00823614       0.01340301       0.00749815
C        0.06592911       9.95013339       3.90931567      -0.00159853      -0.00637103      -0.01398038
C        7.46304717       1.41850619       3.87082562      -0.00133160      -0.00792455      -0.00710582
C        6.20545480       3.54847157       3.90412248       0.00329272       0.00055683      -0.00151005
C        4.89475988       5.65955118       3.95449498      -0.00170706       0.00042732       0.00422375
C        3.74506820       7.76582504       3.91641345       0.00311450      -0.00218947       0.00077122
C        2.53009975       9.95913049       3.86879270      -0.00153414      -0.00324113      -0.01192584
C        9.94639597       1.42560811       3.75887011      -0.00095258       0.01073679       0.00049576
C        8.68236142       3.55889906       3.80481163      -0.00128271       0.00401249      -0.00978532
C        7.39564238       5.68497897       3.90481153      -0.00697070       0.00755333       0.00688358
C        6.18805737       7.80415174       3.93332691      -0.00274230      -0.00792646      -0.00632869
C        4.98491119       9.94694706       3.84177975      -0.00477660       0.00083630       0.00370771
W        1.63091117       5.71248930       4.06899919      -0.01117679      -0.00654713       0.00418142
