50
Lattice="12.336457 0.0 0.0 -6.168228499999997 10.683685154694365 0.0 0.0 0.0 15.0" Properties=species:S:1:pos:R:3:forces:R:3 energy=-442.1629010001551 free_energy=-442.1629010001551 stress="-0.003606642220785917 0.0012231411949961894 6.892855159752676e-06 0.0012231411949961894 -0.00526761676416424 -5.447811590616159e-06 6.892855159752676e-06 -5.447811590616159e-06 1.0166612423494464e-05" pbc="T T T"
C        0.02175045       0.00698631       4.00823350       0.00263076       0.00093152      -0.00047163
C       -1.19953017       2.15211442       3.98300367      -0.00419382      -0.00377573       0.00050115
C       -2.43925172       4.27232262       3.83060796      -0.00177848       0.00162196      -0.00804604
C       -3.68869164       6.40683357       3.80077537      -0.00280791      -0.00073968      -0.00214954
C       -4.92852364       8.53926058       3.85668134       0.00720286       0.00136733       0.00813036
C        2.48125548      -0.00898280       4.00236233      -0.00414312      -0.00284155       0.00464060
C        1.26289326       2.13695330       4.02327197       0.00155480      -0.00379702       0.00071806
C        0.03718050       4.23179820       3.53153018      -0.00522655       0.00357282      -0.00476964
C       -1.24795239       6.41221422       3.49717804       0.00261762      -0.00284875       0.00495876
C       -2.45976580       8.54124561       3.81667151       0.00281348       0.00429172       0.00410605
C        4.95148708      -0.01460884       3.97203952      -0.00113522       0.00219513       0.00154135
C        3.71749142       2.10914437       3.93214955       0.00026982       0.00253058       0.00132059
O        2.51787340       4.02955771       3.23298027       0.00186572       0.00184151       0.00131646
P        1.21787334       6.56889292       2.09156567       0.01194262      -0.00220029       0.00153452
C       -0.00372197       8.56330080       3.65095255      -0.00246190      -0.01310647       0.00525040
C        7.41213712       0.01792123       3.97271667       0.00157483       0.00293254      -0.00896133
C        6.18453593       2.13023718       4.00038393      -0.00023194       0.00093330      -0.00364416
C        4.94791987       4.21701782       3.67329134      -0.00144458       0.00179748      -0.00053257
P        3.56870770       6.37472415       2.80893780      -0.01148629      -0.00911755       0.01190088
C        2.48577542       8.64633768       3.58985410      -0.00160234       0.00008548       0.00489188
C        9.89601751       0.02797816       3.98355083       0.00522455      -0.00128545      -0.01286503
C        8.65904799       2.14683705       4.02584758       0.00399404      -0.00139181      -0.00302728
C        7.42164547       4.26723415       3.88593645      -0.00162969      -0.00923665       0.00284739
C        6.18749023       6.39641736       3.65230239      -0.00003940       0.00746314      -0.00124916
C        4.96594652       8.58182674       3.72349313      -0.00221897       0.00534875       0.00817335
C        0.02428233       1.43246947       4.03766737      -0.00020657      -0.00093156       0.00154830
C       -1.19871156       3.55985332       3.80196391      -0.00525422      -0.00109520      -0.00057628
C       -2.45462277       5.69688258       3.73372969      -0.00210585       0.00123087      -0.00402977
C       -3.69164131       7.83086487       3.82358204       0.00713112       0.00210585       0.00620921
C       -4.92265152       9.96296113       3.96858394      -0.00048072      -0.00177805      -0.00232141
C        2.48172660       1.40501145       4.01438805       0.00329740      -0.00315098       0.00675466
C        1.26567826       3.52540753       3.78241676      -0.00694637      -0.00151764      -0.00481169
C       -0.08106418       5.63996983       3.10303551       0.00899841       0.00817084      -0.00600103
C       -1.22328650       7.83209347       3.63713610      -0.00380326      -0.00680115      -0.00380076
C       -2.45289825       9.95656532       3.93777037      -0.00279771       0.00364703       0.00932319
C        4.95791943       1.40733952       3.99994397       0.00002750       0.00396131      -0.00696715
C        3.74906996       3.46956066       3.68190807      -0.00172441       0.00421553      -0.00314043
C        1.25010611       7.91267181       3.37182875       0.00191024      -0.00733904       0.00509307
C        0.01349056       9.96939093       3.89374573      -0.00173846      -0.00614197       0.00469073
C        7.42198921       1.43091082       4.03769454       0.00240560       0.00456352      -0.00568632
C        6.18860069       3.54079072       3.88984161      -0.00361527      -0.00327733      -0.00275439
C        5.01009822       5.62310049       3.44228923       0.00312707       0.00078945      -0.00020726
C        3.70699645       7.96652809       3.47995171      -0.00408654       0.00254777       0.00189320
C        2.48394969      10.02119628       3.89065629       0.00364565       0.00258884       0.00262457
C        9.89808204       1.44352635       4.03147157      -0.00021907      -0.00536582      -0.00095467
C        8.66222704       3.56606237       3.94399256       0.00308769      -0.00378395      -0.00522231
C        7.42075256       5.69026331       3.79887269      -0.00300402      -0.00609314      -0.00449597
C        6.17785769       7.83245426       3.72578876       0.00265416       0.01054835       0.00081960
C        4.95917170       9.99318460       3.92765033       0.00427455       0.00366162      -0.00030467
W        1.70156540       5.71208226       4.20843206      -0.00586781       0.01267255      -0.00379782
