50
Lattice="12.336457 0.0 0.0 -6.168228499999997 10.683685154694365 0.0 0.0 0.0 15.0" Properties=species:S:1:pos:R:3:forces:R:3 energy=-442.96338107994876 free_energy=-442.96338107994876 stress="0.0028769957459586523 -4.152897659116861e-07 -2.7389817692027223e-06 -4.152897659116861e-07 -0.002945830186470857 -2.65877292582853e-06 -2.7389817692027223e-06 -2.65877292582853e-06 6.8491289582964535e-06" pbc="T T T"
C       -0.00052213      -0.01325070       3.65518633      -0.00575621       0.00267415       0.00425994
C       -1.22682227       2.13601710       3.77776827       0.00014259      -0.00548698      -0.00490165
C       -2.45848212       4.25917470       3.86155660       0.00660682      -0.00059998       0.00579333
C       -3.71907094       6.38597442       3.82460542       0.00289575      -0.00450794      -0.00326456
C       -4.93956284       8.52215453       3.66884624      -0.00256217      -0.00279264      -0.00774648
C        2.46334422      -0.03067391       3.80240246      -0.01012820       0.00617985       0.00867657
C        1.23782485       2.10988947       3.82756839       0.00248933      -0.00305539       0.00426959
C        0.06030469       4.27034267       3.87150781       0.00043429       0.00364461      -0.00485721
C       -1.22100527       6.38376540       3.85750426      -0.00576866      -0.00244784       0.00016099
C       -2.46834219       8.51226441       3.84395563       0.00246743      -0.00081729      -0.00397198
C        4.93385304      -0.03010400       3.89189032      -0.00082231       0.00380705      -0.00277371
C        3.68813511       2.08503488       3.93906603       0.00529897      -0.00157802      -0.00435325
O        2.45874649       4.10289924       4.10795559      -0.00080886      -0.00013438      -0.01418414
O        1.14498930       6.39132284       3.46223514       0.00370408      -0.00412729       0.01015710
C       -0.00661443       8.52698332       3.85742478      -0.00275263      -0.00060648       0.00610950
C        7.39334199      -0.00768324       3.77483147       0.00760823      -0.00004457      -0.00826224
C        6.15461284       2.11976101       3.93460505      -0.00073592      -0.00570349       0.00912985
C        4.87357107       4.22665092       3.94165815       0.00709599      -0.00618204      -0.00149290
P        3.69262047       6.18604562       2.39421623      -0.00610081      -0.00947994       0.00183858
C        2.42093957       8.58199969       3.35542138      -0.00283766       0.00969204       0.00780141
C        9.86270695       0.00476086       3.59861705       0.00730916       0.00093467       0.00048893
C        8.63003456       2.12930963       3.82962612      -0.00561370       0.00771694      -0.00748194
C        7.37964932       4.25582328       3.89452041       0.00163112      -0.00165573       0.00028905
C        6.13281109       6.39441333       3.67577892       0.00182335      -0.00391621      -0.00371656
C        4.95410027       8.56133085       3.32935379      -0.00250016       0.00269242       0.00275122
C       -0.00364435       1.40986833       3.74636827       0.00286134      -0.00098677       0.00513334
C       -1.20513436       3.55934489       3.84605846       0.00497215      -0.00333924      -0.00820183
C       -2.47331825       5.67678529       3.86281779       0.00054726      -0.00366688       0.00389102
C       -3.71404625       7.80810491       3.78501539       0.00282031      -0.00348457      -0.01309328
C       -4.93924854       9.94369228       3.69600779      -0.01095057       0.00133029       0.01056700
C        2.46353390       1.38078013       3.85588849       0.00202681       0.00547052       0.00922165
C        1.24588968       3.48792546       3.91820355      -0.00073111      -0.00358834      -0.00112005
C       -0.02638156       5.67438437       3.81911155      -0.00295744       0.00501648       0.00076412
C       -1.23690416       7.81098160       3.87051131      -0.00009784      -0.00596465      -0.00337931
C       -2.46827819       9.93856116       3.85073433      -0.00584846       0.00405819       0.00709868
C        4.93331007       1.39277388       3.92820173       0.00027803       0.00085334       0.00527538
C        3.68265712       3.47922098       3.98737714       0.00585098      -0.00525542       0.00065721
C        1.20859967       7.83700578       3.71983976      -0.00606276       0.00804373       0.00220034
C        0.00182946       9.95240839       3.85420169       0.00295946       0.00101546      -0.00474264
C        7.39384819       1.41592479       3.85497008      -0.00101751       0.00024769       0.00702483
C        6.13245449       3.54140037       3.94972931       0.00390749      -0.00787543       0.00028756
C        4.86282840       5.66927699       3.69116213      -0.00236368       0.00053625       0.00139334
C        3.71123909       7.92965463       2.94064085       0.00212896       0.00720292      -0.00431663
C        2.44985600       9.98969146       3.56504742       0.00989960       0.00600489      -0.00614009
C        9.86617924       1.42290691       3.73967849      -0.00516065       0.00127386      -0.00535411
C        8.62574998       3.55111928       3.87403869       0.00232106       0.00713806      -0.00100014
C        7.37165691       5.68110738       3.81692927       0.00359387      -0.00426288       0.00043000
C        6.15295972       7.80802401       3.52608733      -0.00404338      -0.00363260       0.00334977
C        4.93332809       9.97186647       3.52790638       0.00035903      -0.00011410       0.00075400
W        2.90815124       6.77768988       4.50603022      -0.00841277       0.00977369      -0.00541962
