50
Lattice="12.336457 0.0 0.0 -6.168228499999997 10.683685154694365 0.0 0.0 0.0 15.0" Properties=species:S:1:pos:R:3:forces:R:3 energy=-443.74405529848843 free_energy=-443.74405529848843 stress="0.007462562837258128 0.0039151930897562085 -1.540376609316026e-05 0.0039151930897562085 -0.0003467123570008661 4.915626317400255e-06 -1.540376609316026e-05 4.915626317400255e-06 -1.2260321046127548e-05" pbc="T T T"
C        0.05188658       0.01867157       3.92156033      -0.00085298       0.00552266       0.00023880
C       -1.14923793       2.17370478       3.79364990       0.00270693      -0.00369306       0.00770083
C       -2.37419198       4.30208318       3.65193330      -0.00406300      -0.00303676       0.00314540
C       -3.65428481       6.41360018       3.75388440      -0.00166969       0.00220610       0.01037609
C       -4.91856504       8.53259533       3.88082943      -0.00640979       0.00464358       0.01580753
C        2.50982298      -0.00132749       3.79276615       0.00420251      -0.00135399       0.01435772
C        1.32212023       2.16501224       3.84949486       0.00673276      -0.00982292      -0.00528497
C        0.13885385       4.30668659       3.58477523       0.00520552      -0.00239518      -0.00764741
C       -1.14355067       6.43877483       3.72264348      -0.00842579       0.00418512       0.00725705
C       -2.42996697       8.54914948       3.78954663      -0.00164628      -0.00195514       0.01457593
C        4.99272968      -0.00388049       3.72077387      -0.00619747      -0.00403637      -0.01398332
C        3.75817749       2.10541391       3.55285570      -0.00182544       0.00908307      -0.00403234
O        2.54321981       4.04908312       3.03647792       0.00375747       0.00068000      -0.01286593
O        0.43036464       5.99295314       1.83397235      -0.00881540      -0.00699215      -0.00361838
C        0.05630914       8.55773177       3.94005688      -0.00146830      -0.00079679       0.00046265
C        7.45274872       0.03808502       3.82411064       0.00081272       0.00214225      -0.00357750
C        6.22892418       2.14230686       3.57745372      -0.00452213      -0.00018224       0.00541961
C        4.94813959       4.24394995       3.51817301       0.00874523      -0.00149320      -0.00387020
S        3.40091045       6.24538415       4.40193640       0.01288057      -0.00961514      -0.00326471
C        2.46828652       8.60368951       4.17438234      -0.00412993       0.00406636      -0.00072752
C        9.92234919       0.03761358       3.93272973       0.00638912       0.00480241       0.00065479
C        8.70836821       2.16773051       3.70300121       0.00166357       0.00364339      -0.00504775
C        7.45568734       4.28350488       3.62761125       0.00153736       0.00385298      -0.00838222
C        6.16117588       6.38706082       3.86210934      -0.00803444      -0.00735529      -0.00592622
C        4.95823894       8.55598122       4.06432012      -0.00647759      -0.00229374       0.00541556
C        0.07773602       1.45611236       3.87795754       0.00398100      -0.00099413      -0.00020329
C       -1.13282568       3.59380023       3.67220557      -0.00418642      -0.00574470       0.00350691
C       -2.39503482       5.71846789       3.69928064      -0.00221259       0.00009440       0.00105835
C       -3.66899034       7.83274181       3.80523901      -0.00445157       0.00317292       0.00702629
C       -4.89912730       9.96640577       3.87857236      -0.00099750       0.00770868       0.00839870
C        2.51859910       1.41742618       3.73628256       0.00545073      -0.00425294      -0.00119914
C        1.39871731       3.59470399       3.73038821       0.01221794       0.00039784       0.01174215
C       -0.01429048       5.71969421       2.97844456      -0.00016861       0.00670607       0.00027868
C       -1.17965938       7.85563116       3.80464713      -0.00390961       0.00320048      -0.00384812
C       -2.42137288       9.96915583       3.76528238      -0.00071341      -0.00485474       0.00262848
C        5.00178258       1.41533085       3.60629157      -0.00863351       0.00177199       0.00817506
C        3.75325315       3.47722347       3.36371411       0.00775209       0.00859794      -0.00907591
C        1.25350077       7.87070046       4.22814852       0.00256356       0.00168465      -0.00748525
C        0.05795281       9.99724830       3.81679068      -0.00292784      -0.00044993      -0.00118411
C        7.46835498       1.45287658       3.69040538      -0.00057381       0.00404439      -0.00472782
C        6.21271474       3.56328425       3.54158605       0.00722605       0.00019378      -0.01373972
C        4.94341147       5.62465266       3.85956910      -0.01014689      -0.00550915      -0.00182912
C        3.69704087       7.92393912       4.22172118      -0.00226681      -0.00833320      -0.00189664
C        2.50892249      10.03082189       3.97633894       0.00553886       0.00602428      -0.00209202
C        9.94231807       1.46160847       3.80932892       0.00305828       0.00289576      -0.00715919
C        8.70994107       3.58636341       3.64525067      -0.00263361       0.00228032       0.00525747
C        7.43339543       5.70005466       3.73439079      -0.00269377       0.00149624      -0.00776774
C        6.17495757       7.81711765       3.95815218      -0.00886230      -0.00669542      -0.00237235
C        4.97947711       9.99621637       3.98482121       0.00174072       0.00196086       0.00735011
W        1.05898850       5.82756974       4.81480182       0.01575353      -0.00520234       0.00197472
