49
Lattice="12.336457 0.0 0.0 -6.168228499999997 10.683685154694365 0.0 0.0 0.0 15.0" Properties=species:S:1:pos:R:3:forces:R:3 energy=-431.26425950739923 free_energy=-431.26425950739923 stress="0.006925171985292557 -0.00401433268183707 -1.3639475106715615e-05 -0.00401433268183707 0.00016836030546304203 7.127935272833496e-06 -1.3639475106715615e-05 7.127935272833496e-06 2.9769321201885354e-06" pbc="T T T"
C        0.04722854      -0.04544689       3.66956934       0.00217977       0.00094881       0.00366184
C       -1.17936390       2.11568692       3.70573635       0.00823416       0.00557563      -0.00027413
C       -2.37179866       4.26136174       3.84300319       0.00540984      -0.00136516       0.00018908
C       -3.60221143       6.39135739       3.83883101      -0.00385316      -0.00474888       0.00568840
C       -4.86658584       8.51611454       3.71119784      -0.00064084       0.01218642      -0.00409471
C        2.51463911      -0.05130072       3.82835044      -0.00064224      -0.00584575      -0.00136223
C        1.24604488       2.06206325       4.06427910       0.00549523      -0.00769019      -0.00291952
C       -0.01663600       4.37933544       3.03330024      -0.00963750       0.00478798      -0.00041111
C       -1.11953111       6.39926098       3.91739165      -0.00148474       0.00913828      -0.00281436
C       -2.38119491       8.52268916       3.82091388       0.00027028      -0.00445676      -0.00426251
C        4.98112705       0.00859739       3.85159604      -0.00232396      -0.00474118       0.00920625
C        3.68670186       2.08878034       4.05619280      -0.00012229       0.00412704       0.00877220
O        1.21281376       6.52446617       3.20155258      -0.00241253       0.00320354       0.00565863
C        0.07373297       8.54705411       3.70865796       0.00266345      -0.00084357      -0.00018490
C        7.45259435       0.00370832       3.72467380      -0.00512456      -0.00727088      -0.00124484
C        6.18740311       2.16881300       3.91478088       0.00558917       0.00896075      -0.00063646
C        4.97302905       4.38786233       4.01660672      -0.00848164      -0.01104901      -0.00772424
O        3.82382094       6.45539087       3.77788820       0.00061032       0.00122420       0.00362417
C        2.53148934       8.49787896       3.55711093      -0.00622778       0.00050857      -0.01056306
C        9.90988044      -0.01681825       3.63229756       0.01000256       0.00938570       0.00506677
C        8.68062729       2.14079868       3.77722273      -0.00346428      -0.00275536       0.00929257
C        7.45652072       4.27934845       3.89195657       0.00300376      -0.00852158      -0.00523487
C        6.25188086       6.42294679       3.76936280       0.00494463      -0.00318330      -0.00320654
C        4.98537972       8.52085763       3.59766959       0.00105594       0.00084261      -0.00267483
C        0.04275864       1.39189667       3.77904377       0.00216799      -0.00204356      -0.00863662
C       -1.11596102       3.54868832       3.76505741       0.00487819       0.00377456       0.00955829
C       -2.34855419       5.67613269       3.88177892       0.00201253       0.00173177      -0.00070225
C       -3.61661914       7.80857860       3.79283334      -0.00517694       0.00252032       0.00141173
C       -4.88198715       9.93575738       3.71902999       0.00052084       0.00850607      -0.00280810
C        2.47719552       1.37398230       3.98938252      -0.00265134      -0.00427761       0.00487935
O        0.34744308       4.25859959       1.84049278      -0.00667536       0.00167602       0.00563340
C        0.16751445       5.75646351       3.79310549      -0.01429825      -0.00068771      -0.00261413
C       -1.14651131       7.81727693       3.83176199       0.00699965       0.00669333      -0.00563096
C       -2.40554368       9.95483151       3.82763716      -0.00359671      -0.00793057      -0.00178733
C        4.95540437       1.44851617       3.94414777       0.00585338       0.00257204      -0.00165203
S        3.33573550       3.77154909       4.25936356      -0.00165230       0.00584119      -0.00057663
C        1.26937273       7.85219834       3.49862847      -0.00702703      -0.00256638      -0.00324436
C        0.05624645       9.98157067       3.76201016      -0.00453470      -0.00933089       0.00713261
C        7.42987723       1.44473084       3.80497212      -0.00469183      -0.00316384      -0.00109769
C        6.18006130       3.60320382       3.95269951       0.00143080       0.00708008      -0.01310956
C        5.02869103       5.77423266       3.85302259      -0.00037816      -0.00338749       0.00742828
C        3.78763419       7.82249414       3.60906571      -0.00658871       0.00181796      -0.00688864
C        2.51495356       9.94152631       3.63097063       0.00329180       0.00120044       0.00216829
C        9.90986233       1.41815480       3.69103354       0.00384550       0.00960894       0.00830872
C        8.70539847       3.56167701       3.85024994       0.00199106      -0.00569410      -0.00503729
C        7.48876262       5.69181720       3.83857750       0.00068030      -0.01245184       0.00316250
C        6.23948967       7.82828725       3.66956287       0.00429044       0.00158234      -0.00431718
C        4.97704560       9.95122479       3.60475847       0.00881013      -0.00076703      -0.00137550
W        1.00153095       3.98435193       4.85539112       0.00545517      -0.00072192       0.00624351
