49
Lattice="12.336457 0.0 0.0 -6.168228499999997 10.683685154694365 0.0 0.0 0.0 15.0" Properties=species:S:1:pos:R:3:forces:R:3 energy=-430.587982231115 free_energy=-430.587982231115 stress="0.0014041252357779813 1.414577304695831e-06 1.2738960464014456e-06 1.414577304695831e-06 0.009059439826041049 1.865163601895728e-06 1.2738960464014456e-06 1.865163601895728e-06 2.8288571659246572e-06" pbc="T T T"
C        0.02021377       0.00858400       3.66139438      -0.00584372      -0.00244747       0.01128074
C       -1.22761640       2.13322813       3.73626549       0.00143036      -0.00164119      -0.00480851
C       -2.46163628       4.27303188       3.78180045      -0.00092023       0.00264788       0.00038220
C       -3.69160477       6.41301173       3.70818158       0.00124876      -0.01111970       0.01285738
C       -4.92172198       8.55354427       3.66103631       0.00175698       0.00080332      -0.00109399
C        2.49094894       0.05465324       3.66591877      -0.00503271       0.00668210      -0.00051825
C        1.23965381       2.13424311       3.71261090       0.00444940       0.00311197       0.00328013
C       -0.03191869       4.25405548       4.03652979      -0.00849546       0.00397168       0.00124955
C       -1.23990424       6.41725856       3.84437081       0.00366395       0.00264254      -0.00850667
C       -2.44738714       8.55611837       3.68446674      -0.00368969       0.00500468       0.00478449
C        4.95016140       0.01143427       3.66311675       0.00131289       0.00314515       0.00229960
C        3.75579565       2.18723875       3.72470167       0.00867436       0.00026901      -0.01707719
O        1.23787494       6.40409683       3.76232395       0.00496723      -0.00427587       0.00672781
C        0.02737207       8.51569253       3.69596708      -0.00010188       0.00042139       0.00300890
C        7.42863130      -0.03393647       3.65676054      -0.00029365       0.00011716       0.00535227
C        6.18954919       2.14140274       3.67071698      -0.00728278       0.00071403      -0.00416969
C        4.96722554       4.28021395       3.73547175       0.00540020      -0.00724239      -0.00272213
O        3.78668945       6.40049733       3.78511393       0.00739551      -0.00199248      -0.00725656
C        2.49887280       8.45175891       3.69916509      -0.00053208       0.00337773       0.00149905
C        9.88209850      -0.03306056       3.66420612      -0.00015318      -0.00736169       0.00450407
C        8.65122075       2.12473733       3.68035576      -0.00341261      -0.00477971       0.00964002
C        7.40974158       4.27562139       3.69237119      -0.00659879      -0.00508300      -0.00899034
C        6.17348349       6.39661041       3.68802998       0.00134246       0.00363846      -0.00113810
C        4.94299453       8.51088455       3.67561492      -0.00003790       0.00816665       0.00759621
C        0.02710885       1.45046439       3.69594963       0.00199693       0.00001810      -0.00103928
C       -1.23928249       3.54937640       3.84228994      -0.00511460      -0.00063701       0.00467206
C       -2.46221038       5.69397754       3.78193688       0.00719803       0.00013548       0.00274188
C       -3.68555285       7.84273742       3.68248615       0.00006364      -0.00678274      -0.00451395
C       -4.90789829      10.00015230       3.65594479      -0.00561220       0.00391073       0.01202216
C        2.49871940       1.51390000       3.69885905       0.00458102       0.00706082       0.00051829
O        1.23814300       3.56165193       3.76372704       0.00700989       0.01029158       0.00081155
C       -0.03216459       5.71234320       4.03707077      -0.00873003      -0.00802884       0.00099282
C       -1.22749391       7.83310772       3.73526990      -0.00197550       0.00404752       0.00663459
C       -2.45403254       9.99946623       3.66382384      -0.00284752       0.00777535       0.00600599
C        4.94336412       1.45534508       3.67683022       0.00151052      -0.00141554       0.00301079
O        3.78713018       3.56562824       3.78528737       0.00821738      -0.00074486      -0.00854040
C        1.23984305       7.83168172       3.71502100       0.00036620      -0.00234431      -0.00806909
C        0.02022266       9.95768875       3.66206876       0.00152927       0.00205574       0.00686436
C        7.41544835       1.41302463       3.65991598      -0.00825365       0.00084081       0.00328529
C        6.17413177       3.57013600       3.68761717      -0.00354449      -0.00447729      -0.00290695
C        4.96688733       5.68637304       3.73678393       0.00910653      -0.00380775      -0.01314059
C        3.75576759       7.77865880       3.72351886       0.00306965       0.00586191      -0.01364824
C        2.49080474       9.91122379       3.66595822      -0.00065141       0.00025522       0.00330332
C        9.88883137       1.41070021       3.68441873       0.00102427      -0.01177534       0.00344978
C        8.64532673       3.55461123       3.70899915      -0.00466226      -0.00040088      -0.00076279
C        7.40934600       5.69196513       3.69239504      -0.00102204      -0.00570781      -0.01133230
C        6.18886774       7.82496468       3.67060624      -0.00049687       0.00748773      -0.00320359
C        4.94994313       9.95492543       3.66349708      -0.00123101      -0.00109611      -0.00421158
W        1.61540413       4.98352452       5.37795290      -0.00077917      -0.00129276      -0.00112510
