49
Lattice="12.336457 0.0 0.0 -6.168228499999997 10.683685154694365 0.0 0.0 0.0 15.0" Properties=species:S:1:pos:R:3:forces:R:3 energy=-428.1153914204755 free_energy=-428.1153914204755 stress="-0.004328399609605819 0.0025777223602792597 -4.439590655801313e-06 0.0025777223602792597 -0.007754864274705927 1.0647428899518204e-05 -4.439590655801313e-06 1.0647428899518204e-05 5.788156037595358e-06" pbc="T T T"
C       -0.03393336      -0.00461032       3.69981650      -0.00463610      -0.00076428      -0.00083574
C       -1.24286566       2.16377110       3.81540353      -0.00104153      -0.00002448      -0.01019031
C       -2.49001964       4.29536552       3.82218394       0.00240309      -0.00715764      -0.00417867
C       -3.73209812       6.42024069       3.74624655       0.00903687      -0.00149361      -0.00280190
C       -4.98463574       8.53533922       3.70900369      -0.00313479       0.00479430       0.00258388
C        2.43380585      -0.03842099       3.52783616       0.00793932       0.00002964      -0.00245231
C        1.24082732       2.05671751       3.77530558      -0.00560105       0.00081928      -0.00280866
C       -0.10470914       4.33348298       4.34526510      -0.00510566       0.00533022       0.00389998
C       -1.30421864       6.45740226       4.15853566      -0.00026346      -0.00358677       0.01599806
C       -2.50124159       8.55584350       3.75697498       0.00321100       0.00094114      -0.00090162
C        4.91414634       0.00669775       3.48319268       0.00413744       0.00316006       0.00034791
C        3.67666940       2.11527152       3.27880306       0.00456775       0.00531040      -0.00411837
P        1.23609222       6.55093049       5.34708718       0.00594815      -0.00295837      -0.00983225
C       -0.05230390       8.61793171       4.01516695      -0.00860455       0.00157918       0.01270788
C        7.37527688       0.03955392       3.58337568      -0.00318961       0.00614444       0.01049280
C        6.16996407       2.13398554       3.19761212      -0.00390780      -0.00272738       0.00909006
C        5.03720369       4.32822772       2.85124460       0.00519224       0.00345676       0.00562020
P        3.46006269       6.22450290       4.30840839       0.00241439      -0.00422533      -0.00017147
C        2.41078431       8.66545548       4.07528025       0.00000035       0.00408083      -0.00119545
C        9.85193115       0.03802624       3.70187443       0.00290954      -0.00478498       0.00398746
C        8.63536158       2.16100299       3.51802624       0.00736158      -0.00251175       0.00607474
C        7.40944256       4.28628044       3.42975299      -0.00861937      -0.00338019      -0.01096359
C        6.14627094       6.40701903       3.64835868      -0.00297272       0.00399913      -0.00724552
C        4.89198516       8.55947682       3.86505523      -0.00312122      -0.00042066      -0.00876418
C       -0.03032939       1.41902236       3.77259541      -0.00869140      -0.00324115       0.00098237
C       -1.26429318       3.58322252       3.98428456       0.00236254       0.00226951      -0.01053859
C       -2.50649609       5.72035168       3.89439790       0.00840523      -0.00783525       0.01370389
C       -3.74053608       7.83938533       3.73805665       0.00223356       0.00279083      -0.00165905
C       -4.97817494       9.95233511       3.64750468      -0.00109264       0.00220648      -0.00543966
C        2.42924283       1.36717660       3.49130868       0.00053403       0.00444271      -0.00085013
P        1.48922705       3.62840909       4.45742775       0.00252538      -0.00119244       0.00790126
C       -0.14579540       5.73818599       4.52599428       0.00255204       0.00442293      -0.00469827
C       -1.28475135       7.87796158       4.00224202      -0.00364827      -0.00735964      -0.00009330
C       -2.49055702       9.96201839       3.56659923       0.01028367       0.00118566      -0.00166211
C        4.94352722       1.42256909       3.27932512      -0.00052155       0.00094030      -0.00681231
S        3.56973249       3.56877585       2.14223982      -0.00416731       0.00741083      -0.00075883
C        1.17622446       8.01828701       4.35999208      -0.00351265       0.00677400       0.00052448
C       -0.02866700      10.00717243       3.66014683      -0.00230138       0.00151349       0.00665548
C        7.40325960       1.44277459       3.39462524       0.00216578       0.00578764       0.01623269
C        6.20631518       3.56017152       3.12093182      -0.00699450      -0.00727303      -0.00711160
C        4.93279178       5.64026489       3.48346248       0.00246195      -0.00579427      -0.00208351
C        3.63713692       7.93078614       4.09771545       0.00115378      -0.00275230      -0.00308429
C        2.43702776      10.04037948       3.75798985      -0.00138045       0.00403522       0.00406149
C        9.86520994       1.45902071       3.66076959       0.00697569      -0.00743837       0.00463524
C        8.63741319       3.58134196       3.56909148      -0.00596597      -0.00372575      -0.00262384
C        7.38008431       5.70326654       3.60100937       0.00019364       0.00344464      -0.01280317
C        6.11487878       7.82510093       3.76985195      -0.00597263       0.00379729       0.00124790
C        4.90186934       9.98395955       3.75580497      -0.00008701      -0.00221051       0.00676852
W        3.77925454       3.99711577       4.56154219      -0.00243537      -0.00780878      -0.00683762
