49
Lattice="12.336457 0.0 0.0 -6.168228499999997 10.683685154694365 0.0 0.0 0.0 15.0" Properties=species:S:1:pos:R:3:forces:R:3 energy=-432.85361084055296 free_energy=-432.85361084055296 stress="-0.0024691878475057143 0.0012098462891424098 1.6612824035434672e-06 0.0012098462891424098 -0.007330985228778993 -1.0155115139544534e-05 1.6612824035434672e-06 -1.0155115139544534e-05 -1.3259952543927527e-06" pbc="T T T"
C       -0.01302726       0.01068527       3.63876377      -0.00207554      -0.00410236       0.00706065
C       -1.25039209       2.14593942       3.41760967      -0.01069365       0.00255755      -0.00517915
C       -2.51073440       4.28282956       3.58116338      -0.00385287       0.00116891       0.00417263
C       -3.74702631       6.40472102       3.82944672       0.00698686      -0.00371181      -0.00496936
C       -4.97101317       8.53664544       3.84400183       0.00698691       0.00009704      -0.00796021
C        2.44931108      -0.00895254       3.79566603       0.00437928       0.00678054      -0.00200766
C        1.25097261       2.09749390       3.34403389       0.00446582       0.00827423       0.00637740
C       -0.09278159       4.30272376       3.24177895      -0.00188741       0.00659467       0.00202556
C       -1.26158084       6.40560592       3.79594534      -0.00794716      -0.00616201      -0.00795499
C       -2.49119476       8.53272420       3.92163694      -0.00199694       0.00654007      -0.00286108
C        4.91620629      -0.01487274       3.84613089      -0.00577553       0.00336486      -0.00748570
C        3.71059270       2.10597923       3.78246207      -0.00968293      -0.00498603      -0.00084022
P        1.55850258       6.18699286       4.15971239      -0.00031317      -0.00266307       0.00633437
C       -0.01405727       8.54863962       3.94358507       0.00284221       0.00398754      -0.00172241
C        7.37605465       0.02420472       3.76450066       0.01219785      -0.00288465       0.00096132
C        6.14947032       2.12731842       3.72449081      -0.01428947      -0.01048798      -0.00379002
C        4.91983978       4.19576318       3.80611511       0.00278029      -0.00154376       0.00356302
B        3.50147548       6.42153668       3.74303465       0.00165148       0.00942900      -0.00293414
C        2.45186755       8.62976435       3.80161219       0.01143168      -0.00431597       0.01265443
C        9.85887593       0.03761123       3.63677893       0.00169489      -0.00369678       0.00441594
C        8.61539697       2.15079928       3.61167840      -0.00728220       0.00208862      -0.00102761
C        7.36611655       4.27335915       3.72184628       0.00756890      -0.00122136      -0.01073982
C        6.09690368       6.39182532       3.85101796       0.00238269       0.00685427       0.00683504
C        4.91099684       8.57017158       3.73985588      -0.00275909      -0.00174441       0.00054531
C       -0.00421870       1.43344511       3.45285816      -0.00051868       0.00481566      -0.00205980
C       -1.28936042       3.56362976       3.37688052      -0.01059742       0.00664358       0.00403367
C       -2.50897577       5.70058498       3.73722511      -0.00201696      -0.00841035       0.00035196
C       -3.73567033       7.82612578       3.88646506       0.00594434      -0.00089199       0.00049806
C       -4.95936410       9.96560265       3.76917510       0.00605983       0.00204856      -0.00656446
C        2.46273573       1.41301842       3.65097357       0.00065062       0.00150586       0.00931421
P        1.38673941       3.66489189       2.56666741       0.00973908      -0.00798564      -0.00023704
C       -0.05655279       5.65948255       3.62748203       0.00280706      -0.00378550      -0.00419030
C       -1.25606124       7.82441895       3.92788080      -0.00801729      -0.00234301      -0.00802199
C       -2.49037221       9.95758986       3.88676269      -0.00091518       0.00724453      -0.00688309
C        4.92540787       1.40739422       3.77019486      -0.01535835      -0.00729791      -0.00550609
N        3.76513520       3.45427035       4.06672362      -0.00152803      -0.00247072      -0.00274283
C        1.24444460       7.91570779       3.97644816       0.00645592      -0.00347267       0.01380166
C       -0.01700631       9.97586456       3.86339728       0.00266404       0.00881731      -0.00310460
C        7.38365964       1.43776157       3.69834329      -0.00629891      -0.00244510      -0.00248174
C        6.14917753       3.53687948       3.70490972       0.00347422      -0.00701719      -0.00091315
C        4.84118220       5.64968163       3.86779008      -0.00507543       0.00830259       0.00223275
C        3.66469949       7.91201527       3.73717985       0.00453699      -0.00145839      -0.00096503
C        2.44986890      10.03545093       3.72735727       0.01341591      -0.00688285       0.01141771
C        9.85690564       1.44876639       3.54898769      -0.00986152      -0.00272557      -0.00108486
C        8.60221715       3.57053652       3.63284980       0.00262650       0.00106345       0.00449816
C        7.34367967       5.69510979       3.80976185       0.00910844       0.00053581      -0.00267945
C        6.12785375       7.82432367       3.82055892       0.00083763       0.00474315      -0.00232008
C        4.92222529       9.99980666       3.66929255      -0.00306262      -0.00786702       0.00420061
Y        3.28826782       4.94668152       5.63568638      -0.00188308       0.00911629       0.00393246
