49
Lattice="12.336457 0.0 0.0 -6.168228499999997 10.683685154694365 0.0 0.0 0.0 15.0" Properties=species:S:1:pos:R:3:forces:R:3 energy=-427.90624470252254 free_energy=-427.90624470252254 stress="0.002744073315169576 -0.000593398560398778 -2.281917416930907e-06 -0.000593398560398778 -0.007874089456563526 -5.466512611448593e-06 -2.281917416930907e-06 -5.466512611448593e-06 7.98944864708029e-06" pbc="T T T"
C        0.03382236      -0.00110890       3.71970641       0.00003739      -0.00083046      -0.00624376
C       -1.19241638       2.14971004       3.55679653       0.01150584       0.00549012      -0.00020993
C       -2.42344455       4.29108735       3.54469235       0.00271640       0.00165624       0.00530086
C       -3.65348056       6.41411831       3.64098423       0.00734930      -0.00563992       0.00481060
C       -4.91096407       8.53074390       3.68354364      -0.00649707       0.00380201       0.00597796
C        2.49727854      -0.06372906       3.96765773       0.00089801       0.00110668      -0.00837469
C        1.29392745       2.09325071       3.66980412      -0.00470319       0.00236653      -0.01440717
C        0.00300401       4.28907830       2.95472392      -0.00711458      -0.00502201       0.00568437
C       -1.15296317       6.41191340       3.58134879       0.00228063      -0.00093596      -0.00629523
C       -2.41378935       8.52092432       3.86058552      -0.00061161       0.00103016      -0.00122950
C        4.97064019      -0.00975194       4.11373207       0.00577365       0.00131393       0.00270750
C        3.69306001       2.04609814       4.25137449      -0.00687652      -0.00407011      -0.01144560
B        1.43521603       6.44268421       3.63809633       0.00236649       0.00540286      -0.00122992
C        0.05625457       8.55963290       3.92543137       0.00488976      -0.00082254      -0.01088660
C        7.42993107       0.05504925       4.03518193      -0.00560415      -0.00972515      -0.00480186
C        6.19195170       2.16889082       4.10397790      -0.00204272       0.00507215       0.00796936
C        4.98763765       4.35019292       3.91744701       0.00604259       0.00128905      -0.00410357
S        3.38274896       6.34604389       2.95107792      -0.00285098      -0.00677512       0.00856337
C        2.49914932       8.65063741       3.77981009       0.00097064       0.00166070       0.00270427
C        9.91194446       0.05443862       3.81026224      -0.00282104       0.00120299       0.00547068
C        8.67109699       2.17475311       3.84397630      -0.00412832       0.00299607       0.00661901
C        7.43785272       4.29487261       3.78566118       0.00235101       0.00680895       0.00258688
C        6.18470536       6.42307100       3.52322583       0.00689447      -0.00079264       0.00020403
C        4.95391902       8.57346488       3.56859079      -0.00209094       0.00021034       0.01139462
C        0.02307583       1.42167633       3.63797903       0.00312543      -0.00220595      -0.00644993
C       -1.19451953       3.56868293       3.35650422       0.00518323       0.00635336      -0.00642378
C       -2.40452878       5.70685330       3.57993056       0.00705289      -0.00486105      -0.00025715
C       -3.65841781       7.82650126       3.72005733      -0.00549170      -0.00233249       0.01119883
C       -4.91022047       9.94493812       3.78888236       0.00026858       0.00619669      -0.00426749
C        2.49950960       1.34202895       4.02090319      -0.00623079      -0.00311873      -0.01163191
P        1.60078389       3.47497552       2.55425326      -0.01197095      -0.00854448      -0.00204082
C        0.10033304       5.70859462       3.32594076      -0.01184047      -0.00719952       0.00192665
C       -1.16998565       7.82027634       3.81236469       0.00523381       0.00298102      -0.00659271
C       -2.42237937       9.93373657       4.01149649       0.00439247       0.00253074      -0.00170316
C        4.96431870       1.42204911       4.19755281      -0.00176951       0.00135668      -0.00502174
P        3.38413777       3.76768968       4.37098430       0.00993636      -0.00130614      -0.00255099
C        1.30539204       7.91288611       3.80834183       0.00409379       0.00227518       0.00747463
C        0.03924015       9.99454823       4.05532604       0.00090633      -0.00746312      -0.00091369
C        7.42969405       1.47491291       4.01961039      -0.00669196      -0.00507178       0.00559477
C        6.19873811       3.59233309       3.97037197       0.00405126       0.00630425      -0.00301641
C        4.98305470       5.67662235       3.50121567      -0.00029460       0.00456458       0.00495944
C        3.69119406       7.96992294       3.48872022      -0.00161533       0.00118998       0.00171571
C        2.50585604      10.06057699       3.92049327      -0.00492002      -0.00501499       0.00019174
C        9.90423133       1.46770452       3.74760023       0.00527502       0.00562102       0.00576834
C        8.67776654       3.58840874       3.73366466      -0.00256832       0.00682216       0.00951941
C        7.43751821       5.71051372       3.64045464       0.00934302      -0.00088973      -0.00783509
C        6.18830433       7.84189042       3.54513615      -0.00040088      -0.00207308      -0.00168098
C        4.96525222      10.00185321       3.70571986      -0.00099779      -0.00009781       0.00562989
Y        0.85196196       4.18230700       5.01352694      -0.01280490      -0.00281166       0.00564074
