49
Lattice="12.336457 0.0 0.0 -6.168228499999997 10.683685154694365 0.0 0.0 0.0 15.0" Properties=species:S:1:pos:R:3:forces:R:3 energy=-429.09728990881945 free_energy=-429.09728990881945 stress="-0.0037299509623157923 -0.002617909729397341 1.1335136343789616e-07 -0.002617909729397341 -0.004991386991428785 8.27520976501984e-06 1.1335136343789616e-07 8.27520976501984e-06 -3.2374107074434477e-06" pbc="T T T"
C       -0.02193623      -0.02401812       3.83974283       0.00466256       0.00567233      -0.00053276
C       -1.27543113       2.10763307       4.01197655      -0.00816697       0.00268208       0.00092580
C       -2.52457527       4.25189276       3.92266161       0.00119158      -0.00254552       0.00635748
C       -3.71326854       6.39448535       3.73357211      -0.00014531       0.00646189      -0.00288256
C       -4.94109743       8.53145133       3.69721531       0.00324601      -0.00259413      -0.00162495
C        2.45675005      -0.05163986       3.74224403       0.00189086       0.00136739       0.00262768
C        1.23605729       2.04073355       4.08134904       0.00241821      -0.01050510       0.00754464
C       -0.14222727       4.28162666       4.38658976       0.01304969      -0.00501902      -0.00453347
C       -1.28639860       6.40579770       4.03564443      -0.00513311      -0.00228459       0.00054894
C       -2.47240590       8.52182439       3.77329841      -0.00051106       0.00319720      -0.00662519
C        4.92063868      -0.02510856       3.60426461      -0.00572945      -0.00120352      -0.00364662
C        3.63943833       2.04923761       3.37574147       0.00397224      -0.00454529       0.00424714
B        1.20630934       6.40347207       4.36574221       0.00883347      -0.00269603      -0.00654733
C       -0.00579050       8.52577330       3.85131556      -0.00454748       0.00716695       0.00411506
C        7.38319364      -0.01848257       3.64027181      -0.00241402       0.00664651      -0.00478505
C        6.13139081       2.13262295       3.41596807      -0.00043536      -0.00501314       0.00773339
C        4.96905073       4.34623711       3.11215960      -0.00764154      -0.01339162      -0.00399244
O        3.75482466       6.48366388       3.12417884       0.00069574       0.01535734      -0.00867946
C        2.47138625       8.51299004       3.75667989      -0.00139073       0.00018332      -0.00132360
C        9.84572212      -0.01882353       3.74901525      -0.00227479       0.00279342       0.00223219
C        8.60143818       2.12091045       3.70233832      -0.00161746      -0.00375824      -0.00294821
C        7.37324428       4.26642215       3.53572390       0.00775647      -0.00307926      -0.00571595
C        6.20301342       6.43874758       3.40888958       0.00104377       0.00024906       0.00346435
C        4.93279684       8.53734489       3.64676556      -0.00474280       0.00153453      -0.00242549
C       -0.02547839       1.39639951       4.00731022      -0.00484485       0.00567701       0.00631601
C       -1.30921416       3.52659178       4.12557751       0.00174434      -0.00094095       0.00314222
C       -2.50590405       5.67927281       3.90314765      -0.00683594      -0.00073608      -0.00404489
C       -3.70520135       7.81683437       3.73467969       0.00409366       0.00410333      -0.00305630
C       -4.95277556       9.94591421       3.77882890       0.00527745      -0.00236045      -0.00157991
C        2.44709594       1.36186562       3.75084318       0.00483738      -0.00050167       0.00663915
P        1.43550945       3.63758686       4.73686993       0.00204716      -0.00340935       0.00813107
C       -0.09358284       5.69268607       4.28992996       0.00260449       0.00077527       0.00679647
C       -1.24390847       7.81683288       3.89084775      -0.00399446       0.00040751      -0.00689002
C       -2.47251832       9.93793311       3.69248452      -0.00368588       0.00012240      -0.00277528
C        4.89975338       1.40722408       3.43216878      -0.00007477      -0.00548701       0.00295899
S        3.42332977       3.63262717       2.66372998       0.00223909       0.01389662       0.00614885
C        1.23797298       7.82624818       3.96810720      -0.00300230       0.00194851      -0.01422961
C       -0.01458990       9.94924584       3.67865362      -0.00411082       0.00795239       0.00397751
C        7.36470672       1.41542803       3.57102031      -0.00100194       0.00118757       0.00365719
C        6.14206919       3.56505366       3.34128206       0.00268566      -0.00817247      -0.00099152
C        5.03172248       5.76451347       3.10917359       0.00505057      -0.00814806       0.00193026
C        3.71944507       7.84066047       3.65564273      -0.00196825      -0.00948775       0.00311169
C        2.45510810       9.94993640       3.69336045      -0.00277556       0.00381748      -0.00073310
C        9.83737793       1.40812961       3.82274547      -0.00667595       0.00024555      -0.00412836
C        8.59677934       3.54464001       3.72134586       0.00679045      -0.00513689      -0.00357129
C        7.40299482       5.68728077       3.55693217       0.00506476       0.00287482      -0.00315959
C        6.17329924       7.84464726       3.57896832      -0.00242875       0.00343571      -0.00169799
C        4.91425004       9.96042435       3.75682365       0.00111756       0.00440013       0.00838774
Y        3.37702815       5.35577841       4.98089732      -0.00616364      -0.00314019       0.00212710
