49
Lattice="12.336457 0.0 0.0 -6.168228499999997 10.683685154694365 0.0 0.0 0.0 15.0" Properties=species:S:1:pos:R:3:forces:R:3 energy=-436.92500215760253 free_energy=-436.92500215760253 stress="-0.0005653722783827949 -0.000471553393257985 -2.9051741517440296e-06 -0.000471553393257985 -0.0025222392028409384 5.483688554193719e-06 -2.9051741517440296e-06 5.483688554193719e-06 3.9391078494745537e-07" pbc="T T T"
C       -0.00199717      -0.00649592       3.70183997       0.00364990       0.00709301       0.00022858
C       -1.24108380       2.13449251       3.70123360      -0.00780685       0.00277799       0.00280576
C       -2.47219766       4.28107381       3.68330732      -0.01000139       0.00970336       0.00067429
C       -3.70060935       6.41198322       3.68551650       0.00497919       0.00494889      -0.00196420
C       -4.93283359       8.54747154       3.69017990      -0.00878245      -0.00518496       0.00623683
C        2.46556144       0.01649809       3.71260809       0.00170164       0.00329594       0.00836731
C        1.19561135       2.10308778       3.84365527       0.00222523       0.00315431      -0.00442289
C       -0.05037118       4.24466945       3.83316637       0.00052245      -0.01041602      -0.00062331
C       -1.20967055       6.39787676       3.71369087      -0.00322172      -0.00161032       0.00923017
C       -2.46379462       8.54499737       3.67731479       0.00109941       0.00030385       0.00717885
C        4.92842270       0.00604330       3.67370854      -0.00230452       0.00413006      -0.01038749
C        3.72620365       2.10996354       3.78072528      -0.00303786      -0.00311264      -0.00053825
B        1.33296575       6.43817665       3.83085384      -0.00217483       0.00765547      -0.00421160
C       -0.00372363       8.56314604       3.67533961       0.00357157       0.00071894       0.00295491
C        7.39846334       0.01913760       3.65789826       0.00201585      -0.00900960      -0.00602374
C        6.16673109       2.14672897       3.67616036       0.00684315       0.00144002      -0.00756877
C        4.97467891       4.26920357       3.79018518      -0.00399148       0.00166941      -0.01135449
C        3.63832460       6.40038805       3.84988797       0.00404358      -0.00403097       0.00650125
C        2.47121753       8.58176379       3.71014315       0.00467046      -0.00212469      -0.00507878
C        9.87132257       0.01066976       3.67571837      -0.00192767      -0.00690475       0.00269891
C        8.63341788       2.14906803       3.65883646       0.00661498       0.00075456       0.00368866
C        7.40062871       4.28717148       3.68182914       0.00167067       0.00434986      -0.00199037
C        6.15088924       6.41092775       3.71384583       0.01003085      -0.00391051      -0.00216772
C        4.93152484       8.53985613       3.71629007      -0.01367309      -0.00325561      -0.00248793
C       -0.00289040       1.42550629       3.73204552      -0.00160087       0.01069476      -0.00775379
C       -1.24758877       3.54814188       3.70986814      -0.01229149       0.00341581       0.00102839
C       -2.45771791       5.70046572       3.69300102      -0.00399270       0.00617386      -0.00356101
C       -3.69957416       7.83605823       3.68236374      -0.00210383       0.00165904       0.00231466
C       -4.93146236       9.97815902       3.70050131       0.00294295      -0.00042018       0.00615532
C        2.46258230       1.46938993       3.78322209      -0.00362070       0.00172518       0.00743190
O        1.11671651       3.49151629       4.08207084       0.01751866      -0.00173444       0.00023439
C        0.03484396       5.65566527       3.79730551      -0.00408944      -0.00837239       0.00921058
C       -1.22485728       7.82725866       3.68728280       0.00378538      -0.00048671       0.01077159
C       -2.47292615       9.98046514       3.68433833      -0.00008923       0.00200512       0.00383061
C        4.92864281       1.43740727       3.69169210       0.00076668       0.00325943      -0.00695058
O        3.78746930       3.50994598       3.89278521      -0.00243276      -0.00633028       0.00394888
C        1.24250759       7.89104866       3.71079161       0.00495538       0.01000999       0.00247696
C       -0.00520482       9.98863905       3.66067583      -0.00308338      -0.00110526      -0.00683969
C        7.39234231       1.44255330       3.65673959       0.00951965      -0.00505383      -0.00603153
C        6.16872810       3.56610834       3.69483900       0.00012261       0.00555304      -0.00436506
C        4.88272781       5.69465198       3.78051617       0.00614540       0.00325802      -0.00580216
C        3.68477965       7.81092887       3.76062722      -0.00737566      -0.00512765      -0.00469613
C        2.47009874       9.99913421       3.67151545       0.00096546      -0.01023971      -0.00394589
C        9.87205863       1.43399686       3.66827950      -0.00077926      -0.00620984       0.00565488
C        8.63135890       3.57273077       3.66706209      -0.00263234       0.00460384       0.00358780
C        7.38677182       5.70619313       3.69361983       0.01269479       0.00126596      -0.00162919
C        6.16334924       7.83224479       3.70731005      -0.01251469      -0.00547068       0.00525129
C        4.93096682       9.96405790       3.69423225      -0.00022344       0.00046719      -0.00104694
Y        2.55398866       4.80838229       5.11809963       0.00069573      -0.00597586      -0.00102128
