49
Lattice="12.336457 0.0 0.0 -6.168228499999997 10.683685154694365 0.0 0.0 0.0 15.0" Properties=species:S:1:pos:R:3:forces:R:3 energy=-431.44864106190556 free_energy=-431.44864106190556 stress="-0.00234149481739706 0.0019484937925243273 -8.42173699690273e-06 0.0019484937925243273 -0.0056170413677068985 1.0926081018949426e-05 -8.42173699690273e-06 1.0926081018949426e-05 -2.123784258650807e-06" pbc="T T T"
C        0.02126332       0.01560439       3.87949800      -0.00084046      -0.00325014       0.00405988
C       -1.21457911       2.14695999       3.62604782       0.00529397      -0.00144393       0.00104433
C       -2.47839097       4.28602757       3.64657435      -0.00439711       0.01234679      -0.00039902
C       -3.70750269       6.41478188       3.81336757      -0.00462780      -0.00496337       0.00395269
C       -4.92950606       8.54341179       3.93830784       0.00119021       0.00061075      -0.00538634
C        2.48606217      -0.00438537       3.88266898       0.00479979       0.00455033       0.00106497
C        1.27102525       2.09871341       3.48939740       0.00447445      -0.01118771       0.01527498
C       -0.13989242       4.27195325       2.96146821      -0.00223044      -0.00578946      -0.01015559
C       -1.26063481       6.43247849       3.39507280      -0.00877592      -0.00084981       0.00437049
C       -2.45086709       8.54295514       3.76788506       0.00014435      -0.00072096      -0.00217940
C        4.95087310      -0.00218252       3.86925701      -0.00048748       0.00201752      -0.00004243
C        3.74957837       2.12864463       3.91577985       0.00244039      -0.00337831       0.00573735
S        1.43305093       6.44793470       2.57084057       0.00933953       0.01384907      -0.00681012
C        0.01174530       8.56287050       3.59599999      -0.00133011      -0.00230678       0.00712802
C        7.41305195       0.02146306       3.88058490       0.00070254      -0.00114162      -0.00313357
C        6.18889267       2.13624244       3.96411290      -0.00366510       0.00825733      -0.00440872
C        4.95635460       4.21720783       4.05736573      -0.00368772      -0.00488301       0.00362349
B        3.65631449       6.43513244       4.04510688      -0.00597334       0.00517318      -0.00119071
C        2.47504048       8.60293434       3.81026563      -0.00070467      -0.00162367       0.00451470
C        9.89375432       0.03254347       3.91430579      -0.00363279      -0.00527158       0.00072607
C        8.65346989       2.15380286       3.87087351       0.00904941       0.00433464      -0.00714057
C        7.40905214       4.27751589       3.93200440       0.00739348      -0.00259610       0.00335110
C        6.15544182       6.40056582       4.00409965       0.00462799      -0.00823286      -0.00262670
C        4.94478337       8.56483033       3.99254425      -0.00342943       0.00768483       0.00134053
C        0.02014150       1.43787177       3.67815666       0.00501119      -0.00900964       0.00273200
C       -1.26515910       3.55558214       3.42759243      -0.00997543       0.00010731      -0.00474191
C       -2.48089044       5.70955502       3.62589734      -0.01139114       0.00503860       0.00314552
C       -3.69711697       7.83589789       3.84444593      -0.00001242      -0.00342783      -0.00018652
C       -4.92084899       9.97252901       3.91006708       0.00343742       0.00643321       0.00959653
C        2.50052031       1.42553596       3.79344561       0.00918328      -0.00162537      -0.00021583
S        1.26725131       3.41058606       2.27020755      -0.01223942       0.00900961       0.00044088
C       -0.11979090       5.69734749       2.99663641       0.00104165       0.00065200      -0.00066360
C       -1.22509854       7.84594861       3.56507974      -0.00018567      -0.00151207       0.00867734
C       -2.44966086       9.96744410       3.85933861      -0.00003775       0.00160279      -0.00737508
C        4.96539175       1.41984600       3.93241428      -0.00033758       0.00079371       0.00002693
N        3.78412528       3.49101188       4.07133993      -0.00864793      -0.00070199       0.00107879
C        1.27022870       7.93315456       3.46578472      -0.00050345      -0.00444099      -0.00022542
C        0.01689746       9.98056314       3.80435679      -0.00104139      -0.00227608       0.00087384
C        7.42217627       1.43966614       3.92550681       0.00201944       0.00674804      -0.00016438
C        6.19175829       3.54190046       3.99681992       0.00074082       0.00681426       0.00271530
C        4.92195124       5.65423430       4.05044931       0.00153789      -0.00541772      -0.00245555
C        3.69252369       7.88829154       3.94976052       0.00065140       0.00866799      -0.00218150
C        2.48018662      10.02017621       3.89664882      -0.00281480      -0.00912939       0.00122552
C        9.89617381       1.45022540       3.82292072       0.00748641      -0.00481971      -0.00009111
C        8.64187379       3.57240483       3.83632827       0.00520345       0.00684150      -0.01167553
C        7.39876791       5.70098738       3.92946866       0.00735293      -0.01103671      -0.00166048
C        6.16558275       7.82969615       3.99311155      -0.00212530      -0.00208416      -0.00019830
C        4.95524481       9.99744824       3.94461820      -0.00381437       0.00237350      -0.00878075
Y        1.95678263       4.67263849       4.54089464       0.00378705      -0.00078596      -0.00261212
