49
Lattice="12.336457 0.0 0.0 -6.168228499999997 10.683685154694365 0.0 0.0 0.0 15.0" Properties=species:S:1:pos:R:3:forces:R:3 energy=-440.94067921802827 free_energy=-440.94067921802827 stress="-0.0037904364624308123 -0.0006105767332317558 -8.111760737590546e-06 -0.0006105767332317558 -0.0061966451014422745 -2.621857379152217e-06 -8.111760737590546e-06 -2.621857379152217e-06 -8.511341437621245e-07" pbc="T T T"
C       -0.00463289      -0.00329364       3.70555136      -0.00417666       0.00670475       0.00127783
C       -1.24264229       2.12967986       3.70801927      -0.00439212      -0.00306043       0.00035688
C       -2.47381608       4.27021776       3.69576243       0.00394173       0.00715968      -0.00157898
C       -3.70408466       6.40623421       3.68392158       0.00036030      -0.00018706       0.00640029
C       -4.93267593       8.54570470       3.68956358      -0.00891750       0.00274156       0.00533505
C        2.46603851      -0.00569544       3.69702236       0.00157329      -0.00502215       0.00707870
C        1.22484244       2.14087191       3.80954246      -0.00164276       0.00073323      -0.00447126
C       -0.00000610       4.23930265       3.83643408      -0.01428367      -0.00190756       0.00344432
C       -1.22362325       6.40297562       3.73962592       0.00130219       0.00396897       0.01268749
C       -2.46514385       8.54284322       3.67054594       0.00807100       0.00206470       0.00601494
C        4.93186680       0.00509084       3.65328644      -0.00183284       0.00592831       0.00177254
C        3.69922498       2.14070159       3.73808594      -0.00011679      -0.00180328      -0.00248641
B        1.30402354       6.43927671       3.89233344       0.00053299      -0.00146092      -0.00376755
C       -0.00603211       8.56200085       3.68773719       0.01142019      -0.00109027      -0.00373924
C        7.39853834       0.01552083       3.64585343      -0.00661626      -0.01001615      -0.00223088
C        6.16477349       2.14081551       3.65513041       0.00552709      -0.00569906       0.00110511
C        4.91857465       4.25878673       3.76048504       0.00423221       0.00033865      -0.01146980
C        3.67168419       6.42470700       3.89994973       0.00069691      -0.00064392       0.00384104
C        2.47167932       8.58571073       3.73807945       0.00367127       0.00415151      -0.00655381
C        9.87002705       0.01015385       3.67735278      -0.00076764      -0.00970758      -0.00403032
C        8.63106936       2.14178066       3.64994307       0.00465152       0.00398208       0.00188682
C        7.39439636       4.27646664       3.67502945      -0.00165361       0.00052201      -0.00350340
C        6.15691619       6.41710544       3.72657448       0.00221467       0.00255341      -0.00072701
C        4.93443205       8.54549960       3.73460624      -0.01191934      -0.00463110      -0.00754912
C       -0.01533822       1.41365611       3.73418473      -0.00283634       0.00782878      -0.00660199
C       -1.25163845       3.54501430       3.73052845      -0.00716441      -0.00343183       0.00129535
C       -2.47038674       5.69593533       3.70362335       0.00366489       0.00379463      -0.00356549
C       -3.70084027       7.83172537       3.67712084      -0.00099176       0.00496327       0.01177602
C       -4.93671134       9.96440442       3.69664337      -0.00693299       0.00586702       0.00143176
C        2.46368859       1.40655511       3.75582834       0.00035468      -0.00535790       0.00248618
C        1.19658995       3.52092833       3.93146880      -0.00998654       0.00194231      -0.00542272
C        0.00374633       5.68199822       3.84164557      -0.00408123       0.00129345       0.01474659
C       -1.22903572       7.83076112       3.69783601       0.00960454       0.00122806       0.00397246
C       -2.46743082       9.96564294       3.66754767       0.00514779       0.00150910      -0.00129212
C        4.93948716       1.42326902       3.66802188       0.00068835       0.00163401      -0.00470823
C        3.73490103       3.52597809       3.80345785       0.00600804      -0.00102412      -0.00368081
C        1.24206393       7.89215743       3.74747175       0.01082476       0.00078092       0.00323409
C       -0.00384178       9.98440784       3.64938338      -0.00657394      -0.00232360      -0.00014092
C        7.40050023       1.43215710       3.63971880       0.00542816      -0.00737409      -0.00674400
C        6.16987609       3.55929694       3.68051877       0.00006977      -0.00430255      -0.00310323
C        4.89522278       5.72151302       3.79782898       0.00477395       0.00491989      -0.00008642
C        3.68886481       7.82500665       3.79404556      -0.00651447       0.00032290      -0.00272567
C        2.46923615       9.99704379       3.67465249      -0.00399162      -0.00247092      -0.00243581
C        9.86103974       1.42579212       3.66782084       0.00005340      -0.00993684      -0.00064689
C        8.62795022       3.56542169       3.66392936       0.00352115       0.00986064       0.00084666
C        7.38956677       5.70266681       3.69277398       0.00224311      -0.00127570      -0.00131091
C        6.16545528       7.83507024       3.71959370      -0.00905535      -0.00051629      -0.00089544
C        4.93075762       9.96654136       3.70108175       0.00046439      -0.00598285       0.00319615
Y        2.58823986       4.83314795       5.24755727       0.01340551       0.00243235       0.00128211
