49
Lattice="12.336457 0.0 0.0 -6.168228499999997 10.683685154694365 0.0 0.0 0.0 15.0" Properties=species:S:1:pos:R:3:forces:R:3 energy=-431.3389582459565 free_energy=-431.3389582459565 stress="-0.0018878591827906645 -0.003071991791941983 6.87541695780504e-06 -0.003071991791941983 -0.007787319733024494 -1.2482606839204944e-05 6.87541695780504e-06 -1.2482606839204944e-05 3.3888959272564774e-06" pbc="T T T"
C       -0.01619846       0.01444273       3.91290131       0.00314657      -0.00312493       0.00238397
C       -1.26652446       2.14314079       3.97988421       0.00043614      -0.00008807       0.00436941
C       -2.49681237       4.28594149       3.94850879      -0.00641994       0.00545126       0.00015639
C       -3.71358400       6.42002767       3.86064104      -0.00120729       0.00373001      -0.00411085
C       -4.94573657       8.55271925       3.87584722      -0.01228831      -0.00957187      -0.00284068
C        2.44851626       0.00270863       3.81349565       0.00133806       0.00360164      -0.00389358
C        1.17655222       2.14062438       3.85913660       0.00157916      -0.00366029       0.01731355
C       -0.04446267       4.22204624       4.02362363       0.00603555      -0.00685484       0.00018687
C       -1.21285779       6.39652042       3.87867650      -0.00525166      -0.00817765      -0.00623543
C       -2.45921725       8.54105549       3.84570542       0.00110693       0.00988483      -0.01336722
C        4.91141697       0.01553957       3.72550949       0.00673517       0.00839287       0.00420606
C        3.65403017       2.10811490       3.36224002      -0.00522651      -0.00051113       0.00668039
S        1.53748966       6.23623379       3.33744896       0.00050040      -0.00903982       0.00233135
C        0.00318261       8.55403191       3.75013653       0.00131632       0.00030145      -0.00243875
C        7.36531805       0.04921006       3.79226142      -0.00020646      -0.00335945       0.00241051
C        6.13535887       2.16343901       3.53195928       0.00129783      -0.01003892       0.00617818
C        5.01904226       4.32310979       3.04420199       0.00927307      -0.00747932       0.01403338
B        3.59620791       6.49563597       3.65623315      -0.01025800       0.01064939      -0.00514477
C        2.45873395       8.64574068       3.77186209       0.00294385       0.00082112      -0.00436703
C        9.85158889       0.04662175       3.91066382      -0.00715536      -0.00188615      -0.00396195
C        8.59811928       2.16756049       3.84286409      -0.00142582       0.01384237       0.00030965
C        7.38405085       4.29772983       3.68304912      -0.00664020       0.00414295      -0.00119881
C        6.14629019       6.42897057       3.67714037       0.00412085      -0.00741196      -0.00891031
C        4.92488731       8.58766909       3.83876514       0.00145238       0.00388122       0.00571436
C       -0.04026182       1.43182213       3.92218709       0.00208903      -0.00230676       0.01234482
C       -1.28060799       3.54882354       4.02030829      -0.00225879       0.00143043       0.00175160
C       -2.47689979       5.70434315       3.91548912      -0.00680655      -0.00036779      -0.00631327
C       -3.70583841       7.84037052       3.87007845      -0.00375565       0.00455178      -0.00386232
C       -4.95006397       9.97807902       3.88821730       0.00080969      -0.00637125      -0.00396475
C        2.42570846       1.42965217       3.69580464      -0.00226901       0.00233324       0.01171082
N        1.14119899       3.50585768       4.01624921       0.01295256      -0.00205985       0.01206749
C       -0.02455273       5.61651619       3.87539813       0.00228693      -0.00574301       0.00711241
C       -1.22080698       7.82503561       3.81303597      -0.00081744      -0.00364401      -0.00791568
C       -2.47939840       9.97483299       3.79814652       0.00687580       0.01380442      -0.00663020
C        4.90791482       1.44241490       3.54991454      -0.00260371       0.00006384       0.00351363
S        3.69062103       3.48456132       2.15364076       0.00376448      -0.00500900      -0.00136151
C        1.26078881       7.92779142       3.66215914       0.00277862       0.00157943      -0.00855519
C       -0.01849621       9.99782297       3.76136577       0.00190284       0.00154691       0.00423618
C        7.36266655       1.46680126       3.73630551       0.00487225      -0.00195918      -0.00372960
C        6.17185321       3.57962809       3.42173750       0.00589484      -0.01141798      -0.00247073
C        4.90341951       5.71335519       3.42806898       0.00523000       0.00175258      -0.01161041
C        3.67525942       7.94583432       3.75727688       0.00438187       0.00878143       0.00371053
C        2.43969657      10.05454755       3.85356141      -0.00491149      -0.00546982       0.00107382
C        9.83499328       1.45632536       3.93139423      -0.00370475       0.00215238      -0.00330693
C        8.60338726       3.58316778       3.84044416      -0.00886426       0.01555041       0.00470608
C        7.38048062       5.71808783       3.74695245       0.00422121      -0.00028827      -0.00540754
C        6.15369182       7.84717038       3.82117256      -0.00868728      -0.01008348      -0.00925136
C        4.91808237      10.00974082       3.90907731      -0.00117623       0.00236336       0.00628450
Y        3.14916501       4.25713244       4.64397778       0.00259233       0.00531546      -0.00393708
