49
Lattice="12.336457 0.0 0.0 -6.168228499999997 10.683685154694365 0.0 0.0 0.0 15.0" Properties=species:S:1:pos:R:3:forces:R:3 energy=-428.82758723017747 free_energy=-428.82758723017747 stress="0.003826477578149274 -1.2084667047909682e-05 7.4379557634543454e-06 -1.2084667047909682e-05 -0.005311512017521243 -7.613038535535355e-07 7.4379557634543454e-06 -7.613038535535355e-07 6.123698433347128e-06" pbc="T T T"
C        0.00189779      -0.03403994       3.89163918      -0.00049754       0.00190181      -0.00967922
C       -1.21452382       2.12992782       3.97545963      -0.00758258       0.00265029      -0.00413683
C       -2.44196633       4.25155168       3.97211183      -0.00104895      -0.00859087       0.00420609
C       -3.70086817       6.37647856       3.90783395       0.00013556       0.00696278      -0.00036754
C       -4.94532094       8.49761324       3.82384081      -0.00190399       0.00286243      -0.00286916
C        2.46750833      -0.08831741       3.93922051      -0.00050370      -0.01153670       0.00925222
C        1.26268876       2.05401252       3.96778460       0.00102986       0.00702633      -0.00010456
C        0.09290648       4.26256719       3.83477168       0.00876702       0.00403094       0.00587703
C       -1.24279760       6.39197419       3.70113049       0.00964192      -0.00017745       0.00177717
C       -2.45615017       8.49785481       3.82753493      -0.00234710       0.00331995      -0.00621951
C        4.93305885      -0.03369669       3.89653100       0.00070979       0.00110325      -0.00985049
C        3.67177462       2.05506648       3.97207064       0.00239968       0.00724586      -0.00288020
S        1.01575359       6.38769618       2.26143308       0.00688105       0.00560492       0.00936017
C       -0.00511693       8.54508704       3.55192976      -0.01068660      -0.00124818      -0.00522788
C        7.39812919       0.00895415       3.78315786      -0.00503018       0.00310704       0.00608684
C        6.14947110       2.13014306       3.97824954       0.00742283       0.00038899      -0.00099860
C        4.84147403       4.26264270       3.84228252      -0.00386202       0.00399606       0.00033410
S        3.91049589       6.38235485       2.27600222       0.00454883      -0.00350850      -0.00230095
C        2.46745594       8.61022738       3.26459795      -0.00268386      -0.00145140      -0.00245500
C        9.87344848       0.00906276       3.78005118       0.00541511      -0.00151760       0.00990780
C        8.63576518       2.13369143       3.97083800      -0.00039160      -0.01346490      -0.00567132
C        7.37724657       4.25143942       3.97247668      -0.00505054      -0.00624103       0.01113274
C        6.17692278       6.39139189       3.70276613      -0.00691968       0.00210871      -0.00156205
C        4.94036270       8.54485237       3.54833237       0.01038531       0.00165652      -0.00479117
C        0.01245144       1.39667776       3.95866285      -0.00669427       0.00296251      -0.00552860
C       -1.18111231       3.55359160       3.96277109       0.00286230      -0.00061438      -0.00365494
C       -2.46085077       5.67053270       3.90016315       0.00657496       0.00081251       0.00643552
C       -3.70072347       7.79042770       3.86026302      -0.00174647       0.00743751      -0.00213555
C       -4.94333685       9.91525003       3.88880151      -0.00326950      -0.00431223      -0.00237504
C        2.46746306       1.32127709       3.96878447       0.00102740      -0.00202674       0.00707993
B        1.51722882       3.55409503       3.94996129      -0.00102855       0.01110154       0.00294283
C       -0.05284891       5.64878492       3.47579392       0.00630958      -0.00506168       0.00100966
C       -1.22435592       7.80548905       3.66868462      -0.00329074       0.00006160      -0.00090020
C       -2.45799006       9.91530441       3.89345426       0.00183831      -0.00190897      -0.01070849
C        4.92211280       1.39727404       3.96248194       0.00839192       0.00425649       0.00040599
B        3.41623262       3.55625338       3.95579189       0.00009754       0.01082845      -0.00108601
C        1.20840276       7.91758707       3.17158691      -0.01055339      -0.00903185      -0.00167730
C       -0.00011518       9.96390315       3.76336332      -0.00433753      -0.00011261      -0.00309697
C        7.39266545       1.42763923       3.93352454       0.00008411      -0.00281979      -0.00219592
C        6.11604732       3.55365838       3.96577616      -0.00248967      -0.00429677       0.00067872
C        4.98593072       5.64811466       3.48498502      -0.00440162      -0.00318513      -0.00048862
C        3.72596137       7.91774039       3.17184458       0.00656622       0.00025426       0.00377778
C        2.46747445      10.00518015       3.62148098      -0.00101518       0.00349949       0.00779467
C        9.87879248       1.42762973       3.93104364       0.00007063      -0.00377782       0.00208338
C        8.63594040       3.55186061       4.00080252      -0.00360148      -0.01592117       0.00633019
C        7.39564701       5.67033835       3.90064964      -0.00794356       0.00251968       0.00450689
C        6.15931352       7.80495698       3.66594876       0.00131695       0.00185448       0.00002809
C        4.93515771       9.96371238       3.75878904       0.00547759       0.00182205      -0.00369836
Y        2.45228852       5.78273466       4.49726394       0.00092583      -0.00057068      -0.00434731
