49
Lattice="12.336457 0.0 0.0 -6.168228499999997 10.683685154694365 0.0 0.0 0.0 15.0" Properties=species:S:1:pos:R:3:forces:R:3 energy=-439.3790471678881 free_energy=-439.3790471678881 stress="-0.0055028798335276284 0.0007269472116210205 -1.5484417930330465e-06 0.0007269472116210205 0.0014457437867158066 9.100776599906932e-07 -1.5484417930330465e-06 9.100776599906932e-07 -5.150785602071691e-07" pbc="T T T"
C        0.00569136       0.00396354       3.71801979       0.00121590       0.00297362       0.00248150
C       -1.23812488       2.13131544       3.69395149       0.00642737       0.00223826       0.00414622
C       -2.47066647       4.27454073       3.62581423      -0.00607031      -0.00055490      -0.00352771
C       -3.69942493       6.41600996       3.62044147      -0.00152785      -0.00909466       0.00232266
C       -4.92421599       8.56224763       3.67535644      -0.00542738      -0.00355308      -0.01027205
C        2.46882161       0.04096617       3.73444249      -0.00419666       0.00267760       0.01165225
C        1.21415550       2.12641160       3.85029820      -0.00734411       0.00279336       0.00614094
C       -0.06397550       4.28259725       3.81462104      -0.01033991      -0.00328943      -0.00484722
C       -1.25572159       6.41761401       3.66782761       0.00031318       0.00042012      -0.00084592
C       -2.46655524       8.55931178       3.66555833       0.00520203       0.00931134       0.00777007
C        4.93455325       0.00847410       3.70534053       0.00348199       0.00107017       0.00736941
C        3.73624387       2.16999484       3.82049418       0.00324081      -0.00564922       0.00372917
O        1.12185334       6.45294331       4.03121141       0.00485549      -0.01130766       0.00776311
C       -0.00859260       8.53701445       3.72997596       0.00391236       0.00158301      -0.00297331
C        7.40799762      -0.02471159       3.69646127      -0.00719090      -0.00161421       0.00696561
C        6.18384092       2.12640331       3.68488076      -0.00123240       0.00032955      -0.00329092
C        4.97219444       4.22918537       3.78567969       0.01037805       0.00356437      -0.01362538
C        3.76920928       6.39380676       3.81212682       0.00597970       0.00278766      -0.00324304
C        2.44481055       8.49890818       3.78413713      -0.00326462       0.00961702       0.01094332
C        9.86633800      -0.02345646       3.69869557       0.01154184      -0.00989333      -0.00592304
C        8.64127188       2.12260223       3.64352823       0.00600877      -0.00192970       0.00682204
C        7.41617527       4.26666123       3.63056785      -0.00939155       0.00421435       0.00247786
C        6.19907440       6.41379470       3.67676869      -0.00008861       0.00364545      -0.00557940
C        4.94332223       8.53438911       3.71343304      -0.00394258      -0.00204433       0.00006292
C        0.00479158       1.43726029       3.74797019      -0.00201988       0.00383372      -0.00355970
C       -1.24617994       3.55529115       3.68283216      -0.00889666      -0.00046037      -0.00239053
C       -2.47565819       5.69442907       3.62157253       0.00090837      -0.00524058      -0.00390690
C       -3.70047200       7.84526187       3.64753291       0.00179506       0.00026991      -0.00084274
C       -4.92567195       9.99489563       3.70956997      -0.00509904       0.00287993       0.00433626
C        2.46349748       1.48603400       3.81340526      -0.00565274       0.00015913       0.00349969
O        1.14784600       3.53176476       3.99460761      -0.00690358       0.00780851      -0.00431327
C       -0.07373534       5.69571854       3.80819758      -0.00344738      -0.00597407      -0.00361309
C       -1.24818682       7.84144281       3.68016077       0.00490920       0.00392645      -0.00164442
C       -2.47299539       9.99513840       3.70283800       0.00180179       0.01011533      -0.00631728
C        4.94224484       1.43647426       3.72518257       0.00438164      -0.00692054      -0.00488154
N        3.79680478       3.53909902       3.91923652       0.01227333       0.00167557      -0.01064860
C        1.20120835       7.84762920       3.83808359       0.00170441      -0.00176040       0.00711226
C        0.00236804       9.96575541       3.70378418      -0.00300218      -0.00211732       0.00376351
C        7.41206714       1.40727359       3.66686654      -0.00205424       0.00068502      -0.01312756
C        6.19477229       3.54026539       3.67505962       0.00095450       0.00104472      -0.00557119
C        4.95389524       5.69164229       3.76081738       0.00914112       0.00296392      -0.00568339
C        3.71196096       7.77766375       3.76909305      -0.00566424       0.00707355       0.01228173
C        2.46372118       9.93396124       3.71817380      -0.00284083       0.00453304       0.00904175
C        9.87747652       1.40990319       3.66861592       0.01328313      -0.01050283       0.00666826
C        8.64094947       3.55124917       3.61866132      -0.00943086       0.00391026       0.00243409
C        7.41332460       5.69654660       3.63388780      -0.00415131      -0.00129368      -0.00422510
C        6.18233062       7.83764185       3.68525812      -0.00654357      -0.00373344      -0.00823198
C        4.93850494       9.95909249       3.70769211       0.01155005      -0.00942516       0.00380317
Y        2.47425259       4.98612748       4.97598786       0.00046331      -0.00174603      -0.00050252
