49
Lattice="12.336457 0.0 0.0 -6.168228499999997 10.683685154694365 0.0 0.0 0.0 15.0" Properties=species:S:1:pos:R:3:forces:R:3 energy=-437.2179158143704 free_energy=-437.2179158143704 stress="-0.0035548231922791773 0.0006566731484650819 -1.6435770051457781e-06 0.0006566731484650819 -0.00132551699156313 -1.679097743979933e-06 -1.6435770051457781e-06 -1.679097743979933e-06 -4.063175917008594e-07" pbc="T T T"
C        0.00389020      -0.00045674       3.74388009       0.00304824      -0.00057667      -0.00170096
C       -1.23298300       2.12908232       3.57268693      -0.00232188       0.00309787       0.00724193
C       -2.47711383       4.26625807       3.67651682      -0.00778011      -0.00658753      -0.00671794
C       -3.71187881       6.40480883       3.82474397       0.00806226      -0.00312121       0.00073452
C       -4.93982207       8.54323236       3.87662783       0.00376920       0.00014935       0.00569449
C        2.47220545      -0.00772855       3.78461626       0.00081214       0.00391643      -0.00302228
C        1.25587757       2.08818197       3.39875229       0.00271215      -0.01434238       0.01047653
C       -0.04365020       4.29894231       3.33636481       0.01289513      -0.00725164      -0.00990582
C       -1.27879150       6.43046339       3.63780461      -0.01058903       0.00292716       0.00648695
C       -2.47389281       8.55034995       3.82810590      -0.00158647       0.00291042       0.00367328
C        4.94348907      -0.00415229       3.82093894      -0.00829845      -0.00415190       0.00501154
C        3.71687046       2.15189993       3.69953678      -0.00036337       0.00195437       0.00046938
C        1.17104713       6.43625263       3.42115501      -0.00391066      -0.00156695      -0.00951975
C        0.00190736       8.53858160       3.75825993       0.00468903       0.00479304       0.00258320
C        7.41429805      -0.01599407       3.82098072       0.00707558      -0.00268443      -0.00550572
C        6.17694979       2.13097647       3.81719851       0.00204512      -0.00497630       0.01295581
C        4.91233158       4.28148924       3.82903631       0.00238420      -0.00514978      -0.00436269
O        3.79421376       6.45518193       4.18059424      -0.01209360       0.00919047      -0.00365056
C        2.49615685       8.51196205       3.85280598      -0.00446310      -0.00263980      -0.00064878
C        9.87430707      -0.01379050       3.79745218       0.00243598      -0.00432273       0.00374765
C        8.64155736       2.12595540       3.76651998      -0.00018578       0.00635336       0.00126702
C        7.39377169       4.26507830       3.82812743       0.00253639       0.00997898      -0.00140482
C        6.17069524       6.41168296       3.91597186       0.00249497      -0.00502096       0.00231159
C        4.94212733       8.53884579       3.92424451      -0.00144907      -0.00139134      -0.00010300
C        0.00234480       1.41566300       3.55723899      -0.00175134      -0.00208748      -0.00051886
C       -1.24839729       3.55401841       3.51479294      -0.00347740       0.00056928       0.00511444
C       -2.48620393       5.69579512       3.71881730      -0.00409181      -0.01271056      -0.00723783
C       -3.70429284       7.83221012       3.85147360       0.00486142      -0.00135696       0.01108039
C       -4.93269354       9.96999714       3.81173863       0.00435960       0.00413735      -0.00481383
C        2.48177164       1.40376367       3.63786528       0.00861597      -0.00313926      -0.00117094
P        1.39323861       3.62641343       2.53385582      -0.00076185       0.01006028      -0.00626367
C       -0.04678431       5.74986813       3.43846727      -0.00615150       0.00427425       0.00359305
C       -1.24414528       7.84058864       3.75322468      -0.00000654       0.00678935       0.00166475
C       -2.46359219       9.96831572       3.83099114      -0.00896620       0.00020575       0.00195264
C        4.95156112       1.41680733       3.79592238      -0.00401533      -0.00528413       0.00655496
C        3.70881719       3.55149967       3.66707986      -0.00842382       0.00907592      -0.00016012
C        1.23685712       7.79718701       3.69196333      -0.00094511       0.00199016      -0.00684730
C        0.00758438       9.95860364       3.81646374       0.00171637       0.00277613       0.00349959
C        7.41304245       1.41007776       3.81307262       0.00632014      -0.00070250       0.00198058
C        6.16778808       3.55648655       3.82825158       0.00612183       0.00064347      -0.00049908
C        4.97475672       5.70949644       3.95381992      -0.00235172      -0.00280654       0.00219214
C        3.73048064       7.85457232       3.98118908      -0.00620938       0.00545356      -0.00047661
C        2.48162553       9.94677250       3.83299130       0.00284372      -0.00912989      -0.00762684
C        9.87660569       1.41682166       3.71556476      -0.00215552       0.00066729       0.00119768
C        8.63548353       3.55320122       3.76406880      -0.00754718       0.00524386      -0.00152323
C        7.40035106       5.68682628       3.85950510       0.00865561       0.00462878      -0.00694055
C        6.17482674       7.83449866       3.92245070       0.00109318      -0.00407304      -0.00629437
C        4.93845723       9.96805684       3.82501700       0.00474082      -0.00368868       0.00289615
Y        2.20434643       4.94390454       4.72597186       0.00560718       0.00697578      -0.00746468
