50
Lattice="12.336457 0.0 0.0 -6.168228499999997 10.683685154694365 0.0 0.0 0.0 15.0" Properties=species:S:1:pos:R:3:forces:R:3 energy=-453.28598698256667 free_energy=-453.28598698256667 stress="-0.005237522606682852 -0.0016791009525837235 9.324001111358766e-06 -0.0016791009525837235 -0.0032685746251605737 3.869718517387828e-06 9.324001111358766e-06 3.869718517387828e-06 1.844987475131418e-06" pbc="T T T"
C        0.00520978      -0.00008864       3.67049862       0.00255930      -0.00835660       0.00242522
C       -1.24198328       2.12755117       3.64005482      -0.00864923      -0.00342282      -0.00393436
C       -2.47789768       4.26861420       3.64011238      -0.01008024      -0.00687349      -0.00304980
C       -3.69728370       6.41263824       3.67181248      -0.00040386       0.01011007       0.00243788
C       -4.92121706       8.55352298       3.70084349       0.00400077      -0.00140232      -0.00976962
C        2.47484234      -0.00037086       3.64977058       0.00189865      -0.00312014       0.00648865
C        1.23195677       2.11450578       3.59558037      -0.00129052      -0.00348001       0.00001434
C       -0.02419481       4.25847888       3.58955441       0.00933581       0.00279639      -0.01496769
C       -1.25297046       6.41824152       3.60380755      -0.00130812      -0.00138832       0.00095749
C       -2.46310001       8.55232222       3.65369232      -0.00082063      -0.00224259       0.00249943
C        4.94082805       0.00259427       3.69123470       0.00665997      -0.00284985       0.00070992
C        3.70118940       2.13946662       3.68567200       0.00062203       0.01181972      -0.00198144
C        2.44844676       4.21775482       3.64961298      -0.00206115      -0.00348998      -0.00517402
C        1.17695175       6.41977104       3.65967418      -0.00495362      -0.00073858       0.00101488
C        0.00340915       8.54360080       3.69376567       0.00820538      -0.00309602       0.00277721
C        7.40729779      -0.00805732       3.74185762       0.01187044       0.01431928       0.00590456
C        6.16602735       2.14293622       3.73816759       0.00965950       0.00143216       0.00434425
C        4.93637011       4.30828160       3.86173419      -0.00374430      -0.00764087       0.00316678
N        3.86608461       6.50262238       4.30420086       0.00865838       0.00584744      -0.00263023
C        2.49954138       8.52830472       3.87227894      -0.00857243       0.00176234       0.00194329
C        9.87250715      -0.00688114       3.74631140      -0.00498756       0.00170969      -0.00132141
C        8.63153458       2.13246359       3.70285980      -0.00199598      -0.00261117       0.01304273
C        7.39951995       4.27679658       3.74018962      -0.00383801       0.00247323       0.00332466
C        6.19234688       6.42922428       3.81820335      -0.00645447      -0.00292043       0.00091119
C        4.96441733       8.55525048       3.82164636      -0.00320192       0.00163494      -0.00064586
C       -0.00126786       1.41888779       3.62637004      -0.00584244      -0.00862316       0.00118879
C       -1.24895179       3.55091028       3.60936141       0.00433915       0.00347172      -0.00878411
C       -2.47166817       5.69766676       3.63015083      -0.00755572      -0.00196042      -0.00296883
C       -3.69123988       7.83805115       3.66934360       0.00197246       0.00462747      -0.00093313
C       -4.92573820       9.97655391       3.66767245       0.00423110      -0.00646267      -0.00263571
C        2.47127047       1.42563946       3.63829930       0.00160901       0.00009859       0.00384788
C        1.23069072       3.55095331       3.58618920       0.01540590      -0.00076814      -0.00024473
C       -0.00961347       5.69907510       3.59489495       0.00677049       0.00952136      -0.01263854
C       -1.22997682       7.83591726       3.64603068       0.00065551       0.00089718       0.00202796
C       -2.46018020       9.97474711       3.66384012       0.00084553      -0.00500698      -0.00206831
C        4.93483892       1.42963538       3.71121504       0.00452168       0.00398256      -0.00895632
C        3.68207942       3.58492693       3.74204870      -0.01336708       0.01046185       0.00959808
C        1.24557920       7.80423054       3.75486398      -0.00149320      -0.01581295      -0.00562163
C        0.00525102       9.96682559       3.71350306       0.01594360       0.00379689       0.00497393
C        7.39809827       1.42031030       3.72775903       0.00903115       0.00603460       0.00486256
C        6.15935702       3.57753116       3.77948922       0.00026876      -0.00259534       0.00792913
C        4.96914932       5.74551185       3.99113844      -0.00446056      -0.00927737      -0.00106282
C        3.76089192       7.83772624       3.99722411      -0.00422553       0.00388124      -0.00430793
C        2.47827440       9.95260887       3.78763607      -0.00135565       0.00610068       0.00345497
C        9.86577611       1.41742563       3.69253100      -0.00845923      -0.00366915      -0.00235974
C        8.62956730       3.55895611       3.68842703      -0.01101338      -0.00611605       0.00954680
C        7.40927200       5.70086078       3.73610644       0.00082547       0.00848149      -0.00229938
C        6.18803050       7.84441756       3.78382171       0.00205858       0.00244136      -0.00252949
C        4.94251776       9.97339686       3.73862629      -0.00199884       0.00279187       0.00536178
Y        2.14643711       5.50239560       5.39098032      -0.00981496      -0.00656870      -0.00386925
