49
Lattice="12.336457 0.0 0.0 -6.168228499999997 10.683685154694365 0.0 0.0 0.0 15.0" Properties=species:S:1:pos:R:3:forces:R:3 energy=-441.206917731161 free_energy=-441.206917731161 stress="-0.00673769796000223 0.0007267323524150625 -5.915883196704592e-06 0.0007267323524150625 -0.0016387867233390123 -3.895578732046402e-07 -5.915883196704592e-06 -3.895578732046402e-07 -9.493068333604257e-07" pbc="T T T"
C        0.00040349       0.00978780       3.69303811       0.00601621      -0.00095243      -0.00032653
C       -1.24610401       2.12954192       3.66417874       0.00380573       0.00284984      -0.01406181
C       -2.48196258       4.27310084       3.63300742      -0.00937177       0.00463008      -0.00037768
C       -3.70791729       6.41748337       3.64326267       0.00063016       0.00443193       0.00106666
C       -4.93049847       8.56415573       3.67523480      -0.00633026       0.00486089       0.00588205
C        2.47405772       0.03067226       3.73177277       0.00107998      -0.00056145       0.00190270
C        1.22864748       2.18155630       3.76301806       0.00529026      -0.00537499       0.01028335
C       -0.02593525       4.25770125       3.71892331      -0.00232787      -0.00220220      -0.00018783
C       -1.26160931       6.42735950       3.67155179      -0.00640193      -0.00487056      -0.00860932
C       -2.47915212       8.56244450       3.67852714      -0.00381295       0.00195928      -0.00452325
C        4.93353208      -0.00022951       3.71872914      -0.00461378       0.00508794       0.00387001
C        3.74136638       2.10975712       3.88539795      -0.00863323      -0.00529395      -0.00343599
C        1.18265854       6.42031280       3.84162503      -0.00209109       0.00205778      -0.00693707
C       -0.01449031       8.54428253       3.71349162       0.00417897      -0.00944125       0.00373541
C        7.40392170      -0.01472891       3.69431012      -0.00154877      -0.00665837       0.00412640
C        6.18177780       2.12431040       3.71598527       0.00690480       0.00192740       0.00072737
C        4.99849837       4.24826919       3.86327075       0.00241656       0.00657210      -0.00209983
C        3.73392647       6.41038565       3.88769024      -0.01145405      -0.00508592      -0.00171693
C        2.46764108       8.53435242       3.76867544       0.00709382      -0.00356801       0.00480087
C        9.86723258      -0.01210865       3.68317077      -0.00544048       0.00673772       0.00708739
C        8.63418940       2.12763889       3.65097651       0.00212882       0.00849282      -0.00204677
C        7.40791078       4.27609044       3.65988217       0.00897440      -0.00385424      -0.00692788
C        6.17616623       6.41328206       3.70668379       0.01659728      -0.00480495       0.00245237
C        4.94624345       8.54613840       3.71959176      -0.00669748      -0.00156713       0.00432308
C       -0.00564560       1.43117397       3.69750944       0.00764802      -0.00173471      -0.00487390
C       -1.26760433       3.54896199       3.65086677      -0.00988385       0.00339996      -0.00490004
C       -2.48239960       5.70527409       3.64091033      -0.00750474       0.00114861      -0.00429874
C       -3.70542365       7.84651052       3.66014509      -0.00681172       0.00603862       0.00161519
C       -4.92871555       9.98999529       3.69767076       0.00553404       0.00171251       0.00063751
C        2.49508983       1.46195185       3.80574486      -0.00343313      -0.00908127       0.01025968
C        1.15936499       3.55625627       3.78692938      -0.00412876      -0.00502118       0.00301481
C       -0.01763390       5.72288396       3.74014666       0.00046473      -0.00020209      -0.00726001
C       -1.24911746       7.84600876       3.68556466      -0.00164920      -0.00590092      -0.00245779
C       -2.47170827       9.98968002       3.71205129      -0.00218826       0.00332814      -0.00339265
C        4.94696687       1.42538041       3.76226410      -0.00097869       0.00594713      -0.00427059
O        3.83551693       3.49579124       4.13324986      -0.01672927      -0.00240750       0.00330115
C        1.22392152       7.80882241       3.77448677       0.01129984       0.00012366       0.00439272
C       -0.00124686       9.96177181       3.70377074      -0.00578602      -0.00657323       0.00912208
C        7.40027963       1.41255508       3.67784305       0.00626754      -0.00076936      -0.00442157
C        6.18334724       3.54673426       3.71676720       0.00851272       0.00430478       0.00195742
C        4.92829646       5.68474476       3.81871681       0.00327842       0.00916150      -0.00250282
C        3.70911613       7.79773186       3.79301456      -0.00450724      -0.00307751      -0.00777974
C        2.46759055       9.95105910       3.70684130      -0.00040289      -0.00502610       0.01057455
C        9.85997215       1.40926504       3.65829225      -0.00025464       0.01013988      -0.00725804
C        8.62975568       3.55790293       3.63570213       0.00066380       0.00275390       0.00362397
C        7.39614142       5.70020720       3.66263721       0.01499969      -0.00862872      -0.00678718
C        6.17371160       7.83856940       3.69433874      -0.00202740      -0.00217048       0.00455406
C        4.93629339       9.96522058       3.69229396      -0.00387736       0.00353786       0.00846790
Y        2.43101999       4.94254000       5.06496625       0.01510104       0.00362417      -0.00032474
