50
Lattice="12.336457 0.0 0.0 -6.168228499999997 10.683685154694365 0.0 0.0 0.0 15.0" Properties=species:S:1:pos:R:3:forces:R:3 energy=-449.0213121065987 free_energy=-449.0213121065987 stress="-0.0023368824942304944 -0.0003003747034120571 5.592225044245183e-06 -0.0003003747034120571 -0.0018912106096028328 9.989128768964416e-07 5.592225044245183e-06 9.989128768964416e-07 2.1712051516017645e-08" pbc="T T T"
C       -0.00970707      -0.00556692       3.72310949      -0.00693492       0.00064128       0.00229717
C       -1.24318945       2.13355095       3.80700883      -0.00152984      -0.00258966      -0.00067561
C       -2.47126722       4.26192025       3.81808511      -0.00000439      -0.00130624      -0.00554458
C       -3.70960207       6.39786310       3.73996161       0.00510816       0.00159861       0.00472229
C       -4.94382747       8.53790451       3.68192671       0.00143039      -0.00157997      -0.00010702
C        2.45737523      -0.00937053       3.69265074      -0.00897291       0.00265221      -0.00268552
C        1.22624497       2.12405555       3.81576528      -0.00758113       0.00429473      -0.00361839
C        0.01597296       4.28783667       3.96750196       0.00861087      -0.00563098      -0.00147163
C       -1.24728686       6.40264535       3.82834644       0.00656380      -0.00293415       0.00369535
C       -2.47301583       8.53284834       3.69386879       0.00119982      -0.00241319       0.00131471
C        4.92329266      -0.00902427       3.64541008       0.00712120       0.00122854       0.00679139
C        3.68367427       2.11804917       3.70207612      -0.00658996       0.00294756      -0.00616266
N        2.45980808       4.15313799       4.06021926       0.00111340      -0.00838309       0.00427352
O        1.10387023       6.47222236       4.07553134      -0.00261096      -0.00813559      -0.00108168
C       -0.02184840       8.53663409       3.66273903       0.00636297      -0.00045762       0.00606669
C        7.39350414      -0.01742302       3.65430038       0.00228346       0.00661365      -0.00406625
C        6.15402146       2.13134075       3.67341140      -0.00211231      -0.00147124       0.01456602
C        4.89432936       4.28094532       3.69801343      -0.00202633      -0.00502843       0.00399298
O        3.79316348       6.44693219       3.15856908       0.00096373      -0.01116905      -0.00752842
C        2.44960751       8.49479067       3.63192800       0.00216656       0.01237107       0.00096348
C        9.85305394      -0.01542823       3.69821200      -0.00323363      -0.00136898      -0.00928509
C        8.62343691       2.12551061       3.73014575      -0.00298609      -0.00419081      -0.00425487
C        7.38442250       4.26176840       3.72119357      -0.00946853       0.00340249       0.00695717
C        6.17017971       6.40739328       3.66307293       0.00449477       0.00313188       0.00356213
C        4.93512912       8.54368379       3.63085718       0.00701256       0.00765269      -0.00900946
C       -0.01172989       1.41959441       3.78402661      -0.00464994      -0.00057362       0.00570132
C       -1.23012391       3.55993982       3.86761802       0.00541417      -0.00123867      -0.00614238
C       -2.47979000       5.68201267       3.80129209       0.00540861       0.00052627      -0.01431364
C       -3.71010106       7.82273230       3.70648045       0.00101100      -0.00158319      -0.00083298
C       -4.94468200       9.96460312       3.69723626      -0.00843903      -0.00185538       0.00083240
C        2.45551620       1.41395056       3.73365049      -0.00989148       0.00700297       0.00143765
C        1.24270643       3.52666095       3.96528940       0.00627354      -0.00049211      -0.00327508
C       -0.06269242       5.69202682       3.97864165       0.00484130      -0.00707548       0.00597532
C       -1.25094708       7.82431802       3.72674096       0.00514233      -0.00254178      -0.00073210
C       -2.47707898       9.96188035       3.66610131       0.00013143       0.00187122       0.00832899
C        4.92326107       1.41620209       3.65968285      -0.00170708       0.00274270      -0.00896254
C        3.66187211       3.52427357       3.79797600      -0.00475772      -0.00047624       0.00457506
C        1.17866899       7.85113220       3.72935022       0.00474867      -0.00473594       0.00261663
C       -0.01215174       9.96670903       3.63640907       0.00990681       0.00150105       0.00562968
C        7.38995019       1.41466449       3.67984283      -0.00280286       0.00056662       0.00885793
C        6.14236047       3.55868472       3.69101647      -0.00557058      -0.00335603       0.00157488
C        4.96867751       5.69866446       3.58993604       0.00674928      -0.00602653       0.00355935
C        3.73168753       7.85384141       3.51478428       0.00411096       0.00939827      -0.00581806
C        2.45497212       9.94823526       3.65353891      -0.00218989       0.00803457      -0.00503810
C        9.85720722       1.41569921       3.74635956      -0.00229630      -0.00627316       0.00383675
C        8.62414278       3.54910512       3.75722799      -0.00880507      -0.00120745       0.00679773
C        7.39817997       5.68205825       3.71893224       0.00287569       0.00498351      -0.00295740
C        6.16666523       7.82898323       3.64980059       0.00518273       0.00320281      -0.00514622
C        4.92517512       9.97236347       3.69439387      -0.00294545       0.00335900      -0.00684908
Y        2.97519114       6.03215007       5.09042659      -0.00812178       0.00437085      -0.00336784
