50
Lattice="12.336457 0.0 0.0 -6.168228499999997 10.683685154694365 0.0 0.0 0.0 15.0" Properties=species:S:1:pos:R:3:forces:R:3 energy=-446.47025933171494 free_energy=-446.47025933171494 stress="-0.0005968279090217344 0.0016181031705946843 -1.2125675089610043e-05 0.0016181031705946843 -0.0026412477553621585 9.390663804717557e-07 -1.2125675089610043e-05 9.390663804717557e-07 -8.32028941070881e-06" pbc="T T T"
C       -0.01750110      -0.01024139       3.77060792       0.00381147      -0.00096059       0.00324240
C       -1.23646993       2.13956485       3.89389957      -0.00022494      -0.00687457      -0.01564171
C       -2.46367758       4.26623372       3.89320336      -0.00050971       0.00070769       0.00536974
C       -3.71885347       6.39453740       3.77630474       0.00292762       0.00567171      -0.00344577
C       -4.95988001       8.52928849       3.67337735       0.01193386       0.00008854       0.00448600
C        2.44583030      -0.01994605       3.79028195      -0.00293210      -0.00060652       0.00013779
C        1.22862250       2.12566221       3.88460997       0.00324132       0.00648986       0.00087382
C        0.03140327       4.29747854       3.99650980       0.00036626      -0.00253949      -0.00029770
C       -1.24380602       6.40359452       3.89310635      -0.00035846       0.00698672      -0.00207228
C       -2.48659202       8.52767136       3.78943977      -0.00572634      -0.00229379       0.00213676
C        4.91567920      -0.01501830       3.79460202       0.00459607       0.00428580      -0.00548461
C        3.68202768       2.09937974       3.78035260      -0.00435573       0.00220131      -0.00317944
N        2.48458943       4.16837664       4.00017711       0.00271908      -0.01714954       0.00324398
O        1.13220232       6.48179350       4.04032227      -0.00632539      -0.00534543      -0.00371043
C       -0.03555248       8.54289864       3.75427858       0.00769611      -0.00068807       0.00033694
C        7.38540960      -0.00961873       3.78781243       0.00609496       0.00140710      -0.00122840
C        6.15586734       2.12050288       3.80565303       0.00771062      -0.00471936      -0.00517928
C        4.91627464       4.23689424       3.59760475      -0.00558702      -0.00495768       0.00981932
S        3.72224964       6.40134344       2.15687759      -0.01271161      -0.00095217      -0.00403624
C        2.42452366       8.53734752       3.55855344      -0.00524448       0.00933973       0.00253932
C        9.85335751      -0.00440762       3.75622248      -0.00802779       0.00263380      -0.00312524
C        8.62772603       2.12941975       3.85287293      -0.00737812      -0.00674463       0.00818475
C        7.39196786       4.25830600       3.77124717       0.00118426      -0.00224487      -0.00095295
C        6.15857455       6.39221054       3.49963333       0.00148154      -0.00189336      -0.00011808
C        4.91638475       8.54519768       3.48357545       0.00772887       0.00508145      -0.00140542
C       -0.01120898       1.41792615       3.86187115       0.00801799       0.00122091      -0.00819129
C       -1.21838463       3.56842591       3.93767555       0.00109914      -0.00524504      -0.00114827
C       -2.48086880       5.68404991       3.86378496       0.00031206       0.00745745       0.00357551
C       -3.72662987       7.81721476       3.74812493       0.00141447      -0.00006369      -0.00241317
C       -4.95836946       9.95378850       3.74416527       0.00297895      -0.00376635       0.00341708
C        2.45084522       1.40302107       3.82272771      -0.00149663       0.00468042       0.00558200
C        1.26017745       3.53708065       3.97817985       0.00035794       0.00275612       0.00312356
C       -0.04569005       5.70261334       3.99747525      -0.00477600      -0.00492059       0.00044435
C       -1.26084680       7.82507213       3.81793450      -0.00012565       0.00716725       0.00085261
C       -2.48755008       9.95518696       3.78815572      -0.00262039      -0.00231480      -0.00680719
C        4.92229683       1.40622955       3.78998862       0.00075246       0.00773314       0.00315457
C        3.66996357       3.50799014       3.76043373      -0.00573156      -0.00128432      -0.00511723
C        1.17170433       7.86580590       3.71497379       0.00058233      -0.01224148      -0.00324478
C       -0.01865059       9.96991565       3.77336346       0.01043611       0.00269338       0.00317870
C        7.39089335       1.41605365       3.82759383       0.00244956      -0.00671442      -0.00034760
C        6.15719684       3.54165527       3.74134701       0.00083737      -0.00576024      -0.00249139
C        4.97043160       5.63548568       3.23269674      -0.01634358      -0.00612531       0.00107212
C        3.67871294       7.89417561       3.19093444      -0.00526675       0.01247547       0.00921193
C        2.44755813       9.96998942       3.71414163      -0.00356910       0.00445558      -0.00231092
C        9.86222671       1.42214501       3.84791010      -0.00991247      -0.00292297       0.00226701
C        8.63035692       3.55199224       3.85272594      -0.00228039      -0.00699698       0.00058933
C        7.38708986       5.67914401       3.70124231       0.00534644       0.00200075       0.00109691
C        6.14454388       7.81757923       3.51715615       0.01592752       0.00183373      -0.00889082
C        4.91654964       9.96767885       3.68973748      -0.00017677       0.00725984      -0.00275098
Y        3.15557352       6.12601682       4.79519322      -0.00032340       0.00969853       0.01565473
