50
Lattice="12.336457 0.0 0.0 -6.168228499999997 10.683685154694365 0.0 0.0 0.0 15.0" Properties=species:S:1:pos:R:3:forces:R:3 energy=-444.03164670505544 free_energy=-444.03164670505544 stress="-0.0009228754817463057 0.0012037983408166913 8.593963104349346e-06 0.0012037983408166913 -0.006709267595787011 -1.633799681218984e-05 8.593963104349346e-06 -1.633799681218984e-05 1.0959570281529737e-05" pbc="T T T"
C       -0.02717597      -0.00158596       3.67360277      -0.00665492       0.00747035       0.02425661
C       -1.25311377       2.13888449       3.81559332      -0.00279032       0.00758408      -0.02146801
C       -2.49186101       4.26811273       3.86778860       0.01245707      -0.00381468      -0.01628827
C       -3.73477723       6.40077150       3.74020742       0.00110165      -0.00931656      -0.00216418
C       -4.96771965       8.53361936       3.60344707      -0.00196850      -0.00119251       0.01675517
C        2.43253396      -0.01818389       3.75091793       0.00370383       0.00620292      -0.01723478
C        1.21695574       2.12462194       3.87368449       0.01093730      -0.07485684      -0.03552490
C       -0.01136949       4.24699440       4.13525065      -0.00828234      -0.00037143      -0.01254147
C       -1.28353985       6.40421590       4.10184653       0.01270849      -0.01465829      -0.01070155
C       -2.50312073       8.53444433       3.85188491       0.00708959       0.00213975      -0.01906173
C        4.89760795      -0.00351707       3.75693645      -0.00107052      -0.00653303      -0.02151066
C        3.66178841       2.10337454       3.67722284      -0.00336441      -0.03683718      -0.02716097
N        2.48845749       4.14851839       4.07177085      -0.04552282      -0.04157502       0.05388132
P        1.35032964       6.44567472       4.87489661       0.03106178      -0.08332493       0.23154082
C       -0.05063599       8.57487006       3.94209482       0.01369430      -0.00846735      -0.00739595
C        7.36389706       0.02238642       3.69845588      -0.00231594      -0.00985401       0.01453294
C        6.13506878       2.13267969       3.63152048      -0.00879936       0.00117706       0.00931134
C        4.89459289       4.23774912       3.37981766       0.02519060       0.03532180       0.00993102
S        3.53442024       6.48359838       2.33134945      -0.05506283      -0.00752081      -0.05210354
C        2.42685383       8.60535383       3.69442270       0.01084694      -0.04686907       0.02293892
C        9.84831827       0.02156975       3.63020149      -0.00197610      -0.00078543       0.00683974
C        8.61238207       2.14428684       3.69472061      -0.00209951       0.00014162       0.01225039
C        7.37460822       4.26755309       3.59567794      -0.00511715       0.00169813       0.02337469
C        6.14429776       6.39668268       3.34689062       0.07122105       0.00279119       0.02695172
C        4.91128034       8.54824743       3.47307815       0.02820042       0.04714844       0.02597505
C       -0.02219250       1.42188472       3.79727818      -0.00503276       0.01806694      -0.00978928
C       -1.24922962       3.55351925       3.94274493       0.00979023      -0.00772337      -0.02568558
C       -2.50851631       5.69094346       3.91138498      -0.00798689      -0.00349927       0.00033922
C       -3.73734259       7.82276803       3.73642475       0.00582338       0.00361917      -0.00854920
C       -4.96967110       9.95736640       3.67660749       0.00441923      -0.00557198       0.01847861
C        2.43449821       1.40358891       3.77642400       0.00288850       0.00872942      -0.02860092
C        1.24742826       3.52850375       4.05652641       0.00655664       0.06027033      -0.02553293
C       -0.09251173       5.65080880       4.33068619       0.07528710       0.05978820      -0.04532557
C       -1.27262193       7.83322960       4.00304471      -0.00656960       0.00337001      -0.01352544
C       -2.50152454       9.95852890       3.78969673       0.00310802      -0.00447207      -0.03021318
C        4.90239135       1.41475276       3.67358565      -0.01453087      -0.00019067      -0.02127280
C        3.64089356       3.50848974       3.64290654      -0.03396949       0.02098464      -0.00693931
C        1.21545050       7.93953377       4.01497423      -0.00548425      -0.06126699      -0.02581409
C       -0.03822898       9.98909104       3.78144986      -0.01317689       0.00697284       0.00874767
C        7.37244365       1.43618740       3.66615004      -0.00052584      -0.00584954       0.01769520
C        6.14191107       3.54906793       3.53454394      -0.01280426       0.00100266       0.03130605
C        4.96725730       5.64411313       3.00612562       0.00740663      -0.04684815       0.01431926
C        3.65476972       7.87435098       3.43980778      -0.01100802       0.04588211       0.01408455
C        2.43755797      10.01412267       3.64768416       0.00497639       0.02952251       0.01725886
C        9.84951610       1.43814327       3.71109360      -0.00757590       0.00690705      -0.00476133
C        8.61402373       3.56202638       3.72160291       0.00333889      -0.00524166       0.00304534
C        7.37552559       5.68646553       3.56156074      -0.01528639       0.00554238       0.01249519
C        6.13372529       7.82782184       3.43002080       0.02720588       0.01893745       0.02587341
C        4.90838515       9.98204659       3.59109377      -0.00629995      -0.00670288       0.02451440
Y        3.84426137       5.72642485       5.05396127      -0.09373811       0.09207267      -0.17753182
