49
Lattice="12.336457 0.0 0.0 -6.168228499999997 10.683685154694365 0.0 0.0 0.0 15.0" Properties=species:S:1:pos:R:3:forces:R:3 energy=-432.0924880813693 free_energy=-432.0924880813693 stress="-0.002694682249906485 -0.0018561203727415986 1.4073984418675665e-06 -0.0018561203727415986 -0.0037445171176973594 -1.892780215992759e-06 1.4073984418675665e-06 -1.892780215992759e-06 -2.6778172717837753e-06" pbc="T T T"
C       -0.01924317      -0.03430325       3.86811445      -0.00083100       0.00711628      -0.00583767
C       -1.25901488       2.11628593       4.04590458       0.00668587      -0.00871332       0.00049851
C       -2.49089262       4.25545785       3.88543693       0.00109307      -0.00063652      -0.00433561
C       -3.69725761       6.39072181       3.66909285       0.00507160       0.00061293       0.00154295
C       -4.94126040       8.52454899       3.67070304      -0.00102786       0.00432597      -0.00643136
C        2.45868146      -0.05825130       3.74696472      -0.00136802       0.00365636       0.00502810
C        1.23985942       2.01989302       4.16232423       0.00335913       0.00099665       0.01501522
C       -0.08849637       4.32427576       4.34980755      -0.00433140      -0.00700161      -0.00125121
C       -1.26040913       6.41030252       3.90358836      -0.01129131       0.00389141       0.00049431
C       -2.47073858       8.51835139       3.69644391       0.00344306       0.00034785      -0.00644167
C        4.92363544      -0.02611631       3.59912071      -0.00244281      -0.00649405       0.00586177
C        3.64302425       2.04956004       3.44580986      -0.00739427       0.00196600       0.00662388
N        1.13748017       6.44139474       4.22271820      -0.01178384       0.01127969      -0.00692084
C       -0.01181952       8.51693259       3.76608355       0.00536402      -0.00379982      -0.00876166
C        7.38870617      -0.02706820       3.67394835      -0.00154245      -0.00621972      -0.00082824
C        6.14222205       2.12801696       3.45981566      -0.00367584       0.00143362       0.00306516
C        4.98507196       4.33635398       3.16291758      -0.01075676       0.00252656       0.00627354
O        3.77454815       6.45679699       3.11137009      -0.01400772      -0.00575678       0.00937535
C        2.45842244       8.48261265       3.76060792       0.00994315       0.00494020      -0.01018662
C        9.84592501      -0.02874066       3.80597499      -0.00325053      -0.00110787       0.00317956
C        8.61322781       2.11819549       3.74172394       0.01327967      -0.00066282      -0.01016894
C        7.39448875       4.26010022       3.53574317       0.00721189      -0.00375506      -0.00330986
C        6.21117456       6.42966048       3.40573373       0.00657309      -0.00511292       0.00525731
C        4.93087540       8.53099121       3.65567619      -0.00373100       0.00146092      -0.00932009
C       -0.02243066       1.38515759       4.05366930       0.00786641       0.00245568       0.00010878
C       -1.26626822       3.55203902       4.10490385      -0.00421843      -0.00957302       0.00135265
C       -2.47689505       5.67806199       3.81980518      -0.00328955      -0.00140241      -0.00714349
C       -3.70214286       7.81142568       3.67104257       0.00184694       0.00273638       0.00581622
C       -4.95110277       9.93765300       3.77698744      -0.00216698       0.00706774       0.00674451
C        2.45299389       1.35291690       3.80882700      -0.00177296       0.00031905       0.00975777
P        1.39200203       3.58003002       4.92205698      -0.00331963      -0.00255363       0.01168324
C       -0.05326190       5.73935693       4.17422116      -0.01102528       0.00327248       0.00771671
C       -1.24190726       7.81303973       3.77778741       0.00187529       0.00001052      -0.01279513
C       -2.47027861       9.93663544       3.66206810      -0.00259408      -0.00053104      -0.00027811
C        4.90538546       1.40938174       3.47367336      -0.00721826      -0.00416053       0.00642845
S        3.40912302       3.66336646       2.81872049       0.00334290       0.00611277       0.01480977
C        1.19632825       7.78829450       3.89834160       0.01013387       0.01260619      -0.00516689
C       -0.00877248       9.94333245       3.66091522      -0.00118159      -0.01023021      -0.00034675
C        7.37413382       1.41049681       3.61730217       0.00681131      -0.00098497      -0.00468931
C        6.15752989       3.55705471       3.36842237      -0.00241398       0.00399217      -0.00704134
C        5.03843921       5.74238531       3.16669391      -0.00039587       0.00190065      -0.00151937
C        3.71768000       7.83949353       3.63493665      -0.00046916      -0.00465941      -0.00097560
C        2.45090972       9.92914261       3.74274677       0.00003288       0.00049757      -0.00633735
C        9.84832899       1.40670974       3.87201300       0.00711976      -0.00513465       0.00205169
C        8.62019746       3.54300813       3.72461076       0.01014096      -0.00021440      -0.01222943
C        7.41912784       5.68057427       3.53197661       0.01235462      -0.00547937       0.00936965
C        6.17304887       7.83607830       3.57114670      -0.00087588       0.00033133      -0.01376564
C        4.91477648       9.95290090       3.79262035      -0.00346355       0.00317872      -0.00115250
Y        3.09223743       5.55404044       4.96360605      -0.00170948       0.00514844       0.00917960
