49
Lattice="12.336457 0.0 0.0 -6.168228499999997 10.683685154694365 0.0 0.0 0.0 15.0" Properties=species:S:1:pos:R:3:forces:R:3 energy=-426.6701661559157 free_energy=-426.6701661559157 stress="-0.005517530031664724 -3.14424978767062e-06 2.00917593011279e-06 -3.14424978767062e-06 -0.008361879537296498 -1.4179750537312795e-05 2.00917593011279e-06 -1.4179750537312795e-05 5.509982756985176e-06" pbc="T T T"
C       -0.04613104      -0.01763997       4.02326906      -0.00527881      -0.00420592       0.00288079
C       -1.27735953       2.13138741       4.20884812      -0.01129341       0.01478348       0.00081679
C       -2.52935830       4.26749383       4.01936244       0.00085968       0.00548875      -0.00549417
C       -3.74800556       6.40233287       3.77371506       0.00102650      -0.00166489       0.01572708
C       -4.99225352       8.52237560       3.78553022      -0.00384095      -0.00441538       0.00787478
C        2.42015562      -0.04585264       3.83591617       0.00972945       0.00550631      -0.00300485
C        1.22789656       2.06673265       4.13361921      -0.00608749       0.00218158      -0.00253729
C       -0.10352444       4.30962279       4.22272994       0.01079060       0.00277757      -0.00110223
C       -1.30509916       6.41161728       3.83987876       0.00752894      -0.00066840       0.00142555
C       -2.50726126       8.52579003       3.80087367      -0.00965993      -0.00614236      -0.00925396
C        4.88828541      -0.01223850       3.77796612       0.00553282      -0.00192063       0.00088387
C        3.64152638       2.03889198       3.40180359       0.01295874       0.00385490      -0.01284599
S        1.25867870       6.32661812       3.03565067      -0.00983280      -0.00262984      -0.00349100
C       -0.04974217       8.54790892       3.82080185      -0.00187039      -0.00017040      -0.00286406
C        7.35177589       0.01049047       3.94729276      -0.00255424       0.00681297      -0.00920409
C        6.13253972       2.11712034       3.57456470       0.00348307      -0.01137550       0.01139372
C        5.11364608       4.21625383       2.77215715       0.01233525       0.00263114      -0.01351141
O        4.08269533       6.21168075       2.14718879       0.00202558      -0.00743337       0.00546119
C        2.44393101       8.57052958       3.98138640       0.00121818       0.00258505       0.01505978
C        9.82695604       0.01189258       4.09350838      -0.00493965      -0.00973681      -0.01332640
C        8.58659269       2.13854290       3.97218642       0.00460846      -0.00516835      -0.00265433
C        7.38273925       4.26302718       3.60420715      -0.00998467      -0.00051690      -0.01244793
C        6.18608220       6.41882711       3.33318399      -0.01153155       0.00336998       0.00117502
C        4.86627095       8.52828596       3.90700864       0.00324582      -0.00519358       0.00409045
C       -0.03461144       1.41099986       4.15727419      -0.01520464       0.00380306      -0.01107688
C       -1.30728461       3.55359238       4.19900663       0.00226238       0.01688634       0.00481042
C       -2.53127829       5.68757941       3.90299961       0.01021651       0.00485688       0.01101970
C       -3.74977575       7.81943296       3.77274953      -0.00863255      -0.00705265       0.01000956
C       -4.98893274       9.94239918       3.90099766       0.00493378      -0.00104129      -0.00140207
C        2.42799225       1.37170923       3.80137861       0.00501276       0.01335435      -0.00228598
P        1.44189967       3.68225528       4.76690530       0.00489453       0.00778770       0.00679346
C       -0.12724559       5.65292304       3.81244682       0.00352254      -0.00232482       0.00667528
C       -1.27886003       7.82473674       3.78236502      -0.00493675      -0.00076190       0.00817171
C       -2.50887973       9.94718791       3.79735663       0.00532151      -0.00368242      -0.01293008
C        4.89352693       1.40896889       3.57826226       0.00727603      -0.00300446       0.00503640
S        3.54929955       3.46277416       2.39864386      -0.00334232      -0.00121924       0.01125601
C        1.19401834       7.90436296       3.74307669      -0.00037843       0.00163798      -0.00476046
C       -0.04723240       9.97781111       3.87140795       0.00254801       0.00216223       0.00251909
C        7.34789416       1.43322370       3.85175495       0.00584649      -0.00148174       0.00445815
C        6.18240831       3.52597278       3.34543807      -0.00782780      -0.01175916      -0.00012611
C        5.15962992       5.68075843       2.61123841       0.00630676       0.00302631       0.00207846
C        3.64957405       7.89311190       4.03099214       0.00396506       0.00412292       0.00115479
C        2.41939631      10.00870546       4.04912102      -0.00696794       0.00434558      -0.01242117
C        9.82360311       1.43585686       4.11937900       0.00062748      -0.00644955      -0.00417293
C        8.58774730       3.55536261       3.89286327      -0.00448264      -0.00143005      -0.00693886
C        7.37791133       5.68433245       3.57561589      -0.00892129       0.00706992       0.00721565
C        6.11734831       7.81690544       3.67438423      -0.00432591       0.00177667      -0.00071892
C        4.88804540       9.97475415       4.02733397      -0.00432903      -0.00836721      -0.00539351
Y        3.54016207       5.56114118       4.27907863       0.00814625      -0.01100483       0.00597700
