49
Lattice="12.336457 0.0 0.0 -6.168228499999997 10.683685154694365 0.0 0.0 0.0 15.0" Properties=species:S:1:pos:R:3:forces:R:3 energy=-426.8008857419913 free_energy=-426.8008857419913 stress="-0.0013733092183091488 0.001858460279930156 6.539533205876857e-07 0.001858460279930156 1.9438809317910227e-05 4.4885203307728025e-06 6.539533205876857e-07 4.4885203307728025e-06 2.833146739407123e-07" pbc="T T T"
C       -0.03199198      -0.02908780       3.83011025       0.00051505      -0.00307987      -0.00451656
C       -1.24796119       2.13412709       3.94039186       0.00739454       0.00023932       0.00147409
C       -2.51042016       4.26343710       4.16930855      -0.00210035       0.00178202       0.00446481
C       -3.74719868       6.39525533       4.07820095      -0.00497435       0.00186076      -0.00502732
C       -4.96769780       8.52634669       3.89178511       0.00349457       0.00127757       0.00143437
C        2.44216138      -0.03641156       3.78773391      -0.00286283       0.00348426       0.00237761
C        1.21456926       2.05595972       3.54680421      -0.00113322       0.00407777      -0.00175453
C       -0.09807627       4.35028727       4.13253363       0.00339404      -0.00154934       0.00453261
C       -1.30325548       6.42959401       4.37105692      -0.00667789      -0.00315769       0.00322722
C       -2.50475059       8.53567769       4.10552062      -0.00010146      -0.00015290       0.00176154
C        4.91009793      -0.02149291       3.84689641       0.00178236      -0.00046211       0.00834781
C        3.70240336       2.01513708       3.22590879      -0.00297449      -0.00227468      -0.00342769
O        1.12279896       6.43731462       4.20938724      -0.00773879       0.00399665      -0.00348934
C       -0.04411324       8.53134453       4.10408425       0.00069153      -0.00396052      -0.00818351
C        7.37728455      -0.03260516       3.90200309       0.00331075      -0.00156990      -0.00131369
C        6.16206330       2.10858797       3.59336461      -0.00211530       0.00105161       0.00129114
C        5.13790823       4.25264090       2.88141081       0.00991474      -0.00085140       0.00235129
P        3.77862072       6.64399765       1.98698215      -0.00424010       0.00476625       0.00130648
C        2.40748094       8.49253853       3.78825363       0.00435491      -0.00527456       0.00295058
C        9.83983695      -0.03264021       3.87317184      -0.00280103       0.00329430      -0.00364865
C        8.61519916       2.11549576       3.93161900      -0.00463957       0.00294990       0.00049091
C        7.39480601       4.25440576       3.78178229       0.00599707       0.00069231       0.00072179
C        6.19945953       6.40583532       3.49144770       0.00313723       0.00445195       0.00030047
C        4.90661165       8.51241991       3.64237215      -0.00303484      -0.00129358       0.00547331
C       -0.02039201       1.41214731       3.79539435       0.00598875      -0.00220215       0.00182309
C       -1.27344917       3.55451298       4.11591926       0.00316332       0.00031701      -0.00051296
C       -2.52262411       5.68628361       4.24925922      -0.00789863       0.00151367      -0.00330918
C       -3.74381592       7.82100894       4.04929971       0.00053975       0.00087252      -0.00169225
C       -4.96694183       9.94735454       3.85897924       0.00026007       0.00065571      -0.00194758
C        2.45145052       1.36604017       3.49551589       0.00052246      -0.00107486       0.00274992
S        1.25981304       3.75426098       3.28152292      -0.00490363      -0.00893500      -0.00275753
C       -0.10648139       5.73102422       4.35265657      -0.00205540       0.00181940      -0.00379664
C       -1.28326730       7.84151970       4.23310522       0.00018977      -0.00475489      -0.00175118
C       -2.49414994       9.95257168       3.92263441      -0.00216733       0.00080832       0.00221730
C        4.92303521       1.39100751       3.55723268       0.00059041      -0.00268286      -0.00679786
S        3.78625299       3.42899618       2.16636059       0.00033410       0.00304606      -0.00162450
C        1.17124730       7.84159641       4.01352860       0.00242073       0.00246967       0.00558108
C       -0.02665658       9.95318833       3.96163062       0.00358857      -0.00476017      -0.00908334
C        7.37679365       1.40300152       3.82802387      -0.00402482       0.00118565      -0.00881061
C        6.20824490       3.52708421       3.44223372       0.00940832       0.00063164       0.00543107
C        5.13319991       5.72395331       2.79360561      -0.00626775       0.00398563      -0.00272723
C        3.65392264       7.78597701       3.40992735      -0.00474638      -0.00869965       0.00277873
C        2.43451294       9.92932220       3.87866548       0.00255068      -0.00470933      -0.00095077
C        9.85655089       1.40480617       3.94177581      -0.00185070       0.00431807       0.00860192
C        8.60643390       3.53964905       3.99193682      -0.00039536       0.00310666       0.00371764
C        7.38616497       5.67901697       3.81147944       0.00078577      -0.00123772      -0.00043600
C        6.14399392       7.81820659       3.67788676       0.00358245       0.00384176      -0.00060659
C        4.90059040       9.93605359       3.81648031      -0.00339093      -0.00063279      -0.00010455
Y        3.26712785       5.44180065       4.19753515       0.00518323       0.00081952       0.00286329
