49
Lattice="12.336457 0.0 0.0 -6.168228499999997 10.683685154694365 0.0 0.0 0.0 15.0" Properties=species:S:1:pos:R:3:forces:R:3 energy=-426.00125739378313 free_energy=-426.00125739378313 stress="-0.0019911380011463273 0.001093253814752183 3.315827365733468e-06 0.001093253814752183 -0.005705511372589519 2.9607193797942132e-06 3.315827365733468e-06 2.9607193797942132e-06 -1.0689142149281158e-05" pbc="T T T"
C       -0.04188948       0.00892570       3.69396464      -0.00237217      -0.00222023      -0.00047893
C       -1.25671998       2.16921476       3.83997623       0.00234518      -0.00098642      -0.01442909
C       -2.50577237       4.30361275       3.84366702      -0.00078409      -0.00202205      -0.00321548
C       -3.73685979       6.43129718       3.72910322      -0.00457982      -0.00111750       0.00779280
C       -4.98666034       8.54923531       3.68745039       0.00247471       0.00311579       0.00850558
C        2.42789089      -0.02650445       3.49782923      -0.00400648      -0.00048138      -0.00650520
C        1.23372547       2.08339755       3.73603568      -0.00871418       0.00600383      -0.00291102
C       -0.11455361       4.32614236       4.36188830      -0.00045499      -0.00473252       0.00132731
C       -1.31101991       6.45989594       4.17809307       0.01653703       0.00011290      -0.00609332
C       -2.50588920       8.56442457       3.77612276      -0.00220180      -0.00402650       0.00442259
C        4.90277344       0.00819923       3.49616853      -0.00037003      -0.00105870       0.00526256
C        3.65819805       2.07518606       3.03460049      -0.00228216      -0.01278675      -0.00360866
P        1.25777527       6.51199797       5.30988269      -0.00842609       0.00158621      -0.00129291
C       -0.05799631       8.62088672       4.06056308      -0.00150294       0.00568278       0.00635431
C        7.36207533       0.04954996       3.65594068       0.00660401      -0.00325053       0.00649860
C        6.15692037       2.14723194       3.21333561       0.00694016       0.00025839       0.00686513
C        5.02223592       4.34607532       2.77962442       0.00851659       0.01165311       0.00411203
P        3.53483066       6.20310540       4.34322744       0.01198745       0.00110107      -0.01326561
C        2.41425902       8.65359754       4.08954288      -0.00367191       0.00174312       0.00960151
C        9.83876283       0.04519912       3.74175288       0.00222146       0.00617411      -0.00489301
C        8.61489177       2.17107720       3.57967234      -0.00446156       0.00136569      -0.00423392
C        7.39801978       4.30215195       3.41207811      -0.00634773       0.00041482       0.00053912
C        6.13972695       6.42556132       3.55447983      -0.00089957      -0.00473331       0.00073627
C        4.88468639       8.56494581       3.84221586       0.00416686      -0.01059634       0.00588170
C       -0.03328674       1.43564088       3.76500080      -0.00070267      -0.00129249      -0.01215736
C       -1.27865116       3.58765602       4.00617978       0.00468784      -0.00250870       0.00220477
C       -2.51677515       5.72831827       3.90770504       0.00593666       0.00248151      -0.00467527
C       -3.74335568       7.85056207       3.72940673      -0.00352045      -0.00011028       0.00623017
C       -4.98291403       9.96739976       3.63485649      -0.00221259       0.00243759      -0.00406768
C        2.42448187       1.38252085       3.39189044      -0.01002020       0.00133068      -0.01242321
P        1.47659769       3.60828251       4.53843730      -0.01127127      -0.00037485       0.01377288
C       -0.14809726       5.73128913       4.52633149       0.00361463      -0.00077414       0.01168455
C       -1.29059701       7.88254440       4.03248373       0.00060785       0.00421089       0.00388943
C       -2.49803695       9.97287766       3.57434690      -0.00306677      -0.00704804      -0.01040585
C        4.91814576       1.42279585       3.22200093       0.00080419      -0.00164789       0.00264985
S        3.58128749       3.57376227       2.05701437       0.00036953       0.00785054       0.00062311
C        1.17564676       8.00814816       4.37669110      -0.00420969      -0.00437319      -0.00821541
C       -0.04187784      10.01632297       3.72087475       0.00238971       0.00204911       0.00860768
C        7.38183770       1.45671466       3.45841416       0.00476601      -0.00499261      -0.00395675
C        6.18558254       3.57968028       3.10357228      -0.00418547       0.00480928      -0.00686307
C        4.92426189       5.68160449       3.35845384       0.00330411       0.00210017       0.00286643
C        3.64260812       7.91901650       4.08159063      -0.00205084       0.00061572      -0.00300329
C        2.42616089      10.04382166       3.80865767       0.00470212       0.00176425      -0.00278222
C        9.84795415       1.46622221       3.71122375      -0.00013443       0.00697853      -0.00466544
C        8.61833438       3.59223042       3.59705302      -0.00932445       0.00059616      -0.00171723
C        7.37520221       5.71816045       3.54385525      -0.00238975      -0.00177228      -0.00000550
C        6.11396670       7.84009969       3.72520500       0.00884176      -0.00683306      -0.00222569
C        4.89395566       9.99591620       3.76131794       0.00028302      -0.00646053       0.00799607
Y        4.09555019       3.72255460       4.86494078       0.00206322       0.00976404       0.00966667
