49
Lattice="12.336457 0.0 0.0 -6.168228499999997 10.683685154694365 0.0 0.0 0.0 15.0" Properties=species:S:1:pos:R:3:forces:R:3 energy=-423.09219398759893 free_energy=-423.09219398759893 stress="-0.004728158384688651 3.2346142787466293e-06 -1.2504086856942773e-05 3.2346142787466293e-06 -0.0054912664482599585 -4.3323515997957e-06 -1.2504086856942773e-05 -4.3323515997957e-06 9.631667722507354e-07" pbc="T T T"
C        0.03421410       0.01403632       3.99597835       0.00552851      -0.00604721      -0.00367061
C       -1.21118137       2.13818966       3.80524369       0.00080852       0.00008605       0.00148935
C       -2.44302340       4.27366150       3.97004175      -0.00795346       0.00275441       0.00628594
C       -3.65841323       6.41159895       4.16242469      -0.00213728       0.00146940      -0.00529809
C       -4.90956319       8.54562832       4.11623665       0.00710015       0.00818083       0.01303636
C        2.49424056      -0.01759070       3.96376077       0.00476745       0.00470617      -0.00302949
C        1.24532588       2.09105193       3.43278545       0.00653170      -0.01428779      -0.01093148
C       -0.26518213       4.24793886       2.87693490       0.00719018      -0.01079708       0.00546353
C       -1.26239103       6.41507068       3.62054106       0.00080896      -0.00151655       0.00791467
C       -2.43174366       8.53362866       4.02843719       0.00104249      -0.00910639       0.00065751
C        4.96733790      -0.02331856       4.01250119      -0.01244538       0.00178100       0.00290452
C        3.74679165       2.02619581       3.58521704       0.00029682       0.00036147      -0.00435090
S        1.02710674       6.70838814       2.05084648      -0.00221427       0.00366812      -0.00493982
C        0.02354487       8.52930382       3.77935564       0.01103079       0.00449457      -0.00307514
C        7.42813954      -0.00673694       4.04568577       0.01039938      -0.00337948       0.00419057
C        6.20046636       2.12332781       4.02829055       0.00417572      -0.00498313      -0.01199700
C        5.09571326       4.28919971       3.71370224      -0.00366383      -0.00602891       0.00660819
S        3.78529269       6.39998616       2.83492450      -0.01533779       0.00571209       0.00881729
C        2.49263688       8.57851282       3.65591923       0.00001753      -0.00341762      -0.00049981
C        9.89924880       0.00669257       4.02564483      -0.00096356       0.00592650      -0.00414590
C        8.66828195       2.13469174       4.12456807      -0.00376605       0.00010438      -0.00101825
C        7.45369057       4.27042535       4.20711152      -0.00107713      -0.00260244      -0.00189140
C        6.23552352       6.42694918       4.05334647       0.00125159       0.00428247       0.00244036
C        4.97403503       8.56298513       3.91191154      -0.00928078       0.00341772       0.00124301
C        0.02396683       1.43688932       3.77809694       0.00577072      -0.00463619       0.00297902
C       -1.26166288       3.55147832       3.62194088      -0.00080889       0.00250217       0.00075599
C       -2.44342522       5.69263889       3.96905555      -0.00703312       0.00032450       0.00942845
C       -3.66865744       7.83169893       4.12452372       0.00016299      -0.00128047      -0.00341775
C       -4.90840024       9.97307824       4.04587313       0.01047985       0.00438724       0.00001608
C        2.49264796       1.38815057       3.65671081       0.00310381       0.00100010      -0.00350726
S        1.02741974       3.25908497       2.05151255      -0.00392686      -0.00515159      -0.00338888
C       -0.26448060       5.71855794       2.87715498      -0.00651491       0.01120875       0.00414537
C       -1.21180822       7.82803668       3.80571001       0.00731075       0.00245629      -0.00291485
C       -2.43707570       9.95973399       4.02574274      -0.00794574      -0.00812811      -0.00103271
C        4.97408903       1.40296287       3.91211638      -0.00532668       0.00354641       0.00044398
S        3.78435403       3.56684742       2.83653275      -0.00604827      -0.00571969       0.00629591
C        1.24483788       7.87639091       3.43178364       0.01038404       0.00399483      -0.00794195
C        0.03442142       9.95206054       3.99699612       0.00054399       0.00876182      -0.00434071
C        7.42717816       1.42066894       4.11661984       0.00464790      -0.00532167       0.01180907
C        6.23578600       3.53942785       4.05303552      -0.00132897      -0.00606856       0.00368554
C        5.09535406       5.67756004       3.71392964       0.00036224      -0.00265698       0.00657982
C        3.74660975       7.93961903       3.58595820      -0.00396667       0.00243699      -0.01139409
C        2.49418768       9.98410663       3.96326180       0.00851021      -0.00587855      -0.00259200
C        9.90525539       1.43286244       4.02835533      -0.00321831       0.00575084      -0.00049630
C        8.67850433       3.55474940       4.16295903      -0.00618753      -0.00169737      -0.00656557
C        7.45337937       5.69592931       4.20740412       0.00372851      -0.00004297      -0.00481441
C        6.20042082       7.84275766       4.02741953       0.00189186       0.01242036      -0.00647712
C        4.96696104       9.98933029       4.01187030      -0.00400620       0.00263814       0.00338174
Y        1.69743787       4.98411103       3.94874649      -0.00269501       0.00037517       0.00315925
