49
Lattice="12.336457 0.0 0.0 -6.168228499999997 10.683685154694365 0.0 0.0 0.0 15.0" Properties=species:S:1:pos:R:3:forces:R:3 energy=-427.6198884739197 free_energy=-427.6198884739197 stress="-0.002693257625483892 0.0016517996689990823 2.996947424507083e-06 0.0016517996689990823 -0.006410332909179708 -3.65386730470593e-06 2.996947424507083e-06 -3.65386730470593e-06 -6.583475515347092e-07" pbc="T T T"
C       -0.00960814      -0.02075965       3.86049951      -0.00150379       0.00857846       0.00591719
C       -1.22467465       2.13774755       3.91881791       0.00677408      -0.00621238      -0.00195087
C       -2.45914143       4.26788768       3.91129614       0.00163210       0.00104105       0.00401556
C       -3.70792480       6.39513136       3.83535742       0.00211215      -0.00522404      -0.00011718
C       -4.95870367       8.51690909       3.76484847       0.00668664       0.00206677       0.00780140
C        2.45525130      -0.05778194       3.92914836      -0.00732362       0.00958898      -0.00389536
C        1.24817137       2.07922417       3.91417892       0.00481213      -0.00312844       0.00122845
C        0.02880556       4.30440176       3.90085216      -0.00224809      -0.00182667      -0.00691101
C       -1.25834537       6.42377969       3.91286863      -0.00328797      -0.00161526       0.00529448
C       -2.48283269       8.52680612       3.90668551       0.00892288       0.00538647       0.00222159
C        4.92924533      -0.01888701       3.92369269       0.00149093      -0.00287687      -0.01043673
C        3.68298022       2.07274774       3.86116962      -0.00225452      -0.00360496      -0.00062696
N        1.12642202       6.47957360       3.75349057      -0.00003708       0.00368066      -0.00537629
C       -0.01847131       8.54518370       3.84363931       0.00037663      -0.00101450      -0.00406543
C        7.39763361      -0.00443707       3.86485713      -0.00042344      -0.00007353      -0.00268618
C        6.16342608       2.12815537       3.85080946      -0.00459459      -0.00292714       0.00361206
C        4.93614683       4.27097769       3.52135701      -0.00023778       0.00418239      -0.00866657
S        3.81621163       6.48777240       2.22027298       0.00928943      -0.00751915       0.00060729
C        2.45464531       8.54644911       3.55950695      -0.00812333       0.00171022       0.00156399
C        9.86459021      -0.00149728       3.81113025      -0.00603252      -0.00229241       0.00258333
C        8.63778607       2.13210630       3.89396602      -0.00097772       0.00930734       0.00227068
C        7.40472978       4.25924148       3.78391598       0.00009774      -0.00199225      -0.00035147
C        6.19326989       6.40290716       3.47962254       0.00406383      -0.00525570      -0.00195309
C        4.92730178       8.55067662       3.52222918      -0.00169228      -0.00191110      -0.00386071
C       -0.00337403       1.40785999       3.91566654       0.00935669       0.00355092       0.00490176
C       -1.20689330       3.56864146       3.92752166      -0.00001556      -0.00491229      -0.00538852
C       -2.47445916       5.68886510       3.90351664      -0.00119950      -0.00396097       0.00382550
C       -3.71682018       7.81291165       3.83979829       0.00927454       0.00033983       0.00867337
C       -4.95345322       9.93602415       3.86161721      -0.00523893       0.00919948      -0.00172218
C        2.46148588       1.35365604       3.91919916      -0.00037478       0.00154885      -0.00695603
B        1.35417149       3.55820800       3.85871327      -0.00587810      -0.01293718      -0.00150535
C       -0.01828823       5.74956367       3.87360994      -0.00309420       0.00159567      -0.00180806
C       -1.24795861       7.83190882       3.90079865       0.00500156      -0.00166808      -0.00197756
C       -2.47231445       9.94162279       3.92788226      -0.00399734       0.00740050      -0.00001894
C        4.93529968       1.40394598       3.88681372      -0.00411846      -0.00588954       0.00282084
B        3.60212569       3.53635804       3.68919870       0.00407905      -0.00226056       0.00412315
C        1.19532199       7.82859549       3.69780970      -0.00374929       0.00468737       0.00246085
C       -0.00595879       9.96531397       3.88327108       0.00366478      -0.00430455      -0.00472560
C        7.39968174       1.42000588       3.88440039      -0.00051012       0.00335879       0.00717678
C        6.16385933       3.54825118       3.73532922      -0.00213912       0.00152687       0.00121418
C        5.04043948       5.65468534       3.18289689      -0.00934152       0.01049986      -0.00448271
C        3.69024027       7.92904914       3.23041565      -0.00961235       0.00287706       0.00096982
C        2.46018659       9.96807070       3.76648423      -0.00656075      -0.00222466       0.00547700
C        9.87369551       1.42565802       3.89377769      -0.00239365      -0.00123071      -0.00248718
C        8.64192636       3.55563599       3.87944975       0.00018900       0.00855630       0.00086931
C        7.40922600       5.68043213       3.72017247       0.00449356      -0.00850579      -0.00395585
C        6.15889381       7.82341552       3.55216627       0.00853902      -0.00640531      -0.00019588
C        4.92626749       9.96607123       3.75606676      -0.00093151       0.00083977       0.00035920
Zn       2.51717706       5.19948319       3.52393073       0.00703517       0.00025042       0.00613390
