49
Lattice="12.336457 0.0 0.0 -6.168228499999997 10.683685154694365 0.0 0.0 0.0 15.0" Properties=species:S:1:pos:R:3:forces:R:3 energy=-422.9242781233267 free_energy=-422.9242781233267 stress="0.0024841843281489142 0.0009405330363961089 -9.613035868294296e-07 0.0009405330363961089 -0.00489754305949615 -1.083809485971311e-05 -9.613035868294296e-07 -1.083809485971311e-05 3.421134157240115e-06" pbc="T T T"
C        0.00070647      -0.01017480       3.85204778       0.00280427       0.00302321       0.00252140
C       -1.21198009       2.15548251       3.94855349       0.00232331       0.00404282       0.00341998
C       -2.44245491       4.27732316       3.87896745      -0.00027886      -0.00542271       0.00488547
C       -3.69714341       6.39755449       3.76147615       0.00027707       0.00381080       0.00500614
C       -4.95328197       8.51737866       3.71529673      -0.00169149       0.00166993      -0.00689668
C        2.46454101      -0.06410176       3.90400582      -0.00135599      -0.01181466      -0.00004100
C        1.26300095       2.08637871       4.02267214       0.00761262       0.00015912      -0.00143257
C        0.07680144       4.29795860       3.79917872      -0.00055285      -0.00379173      -0.01448952
C       -1.23067638       6.40814295       3.57260561       0.00403304      -0.00380627      -0.00043620
C       -2.46347129       8.52369390       3.70775172       0.00390815       0.00058874      -0.00526434
C        4.93385856      -0.01280478       3.86417161      -0.00423636      -0.00094910      -0.00020536
C        3.67639173       2.07865444       4.04934212       0.00054055      -0.00097743      -0.00484671
P        1.16850049       6.39345282       2.32165375      -0.01282945      -0.00220024      -0.00077570
C       -0.00245954       8.57460666       3.46681940      -0.00404046       0.00283230       0.00293725
C        7.39547269       0.03287260       3.78486685      -0.00320478       0.00518430       0.00582853
C        6.15767592       2.14607116       3.98898969       0.00139397      -0.00476397      -0.00072534
C        4.87882489       4.28205251       3.88074826       0.00708684      -0.00016994       0.00699387
S        3.65642546       6.33104566       2.64301332       0.00336353       0.00074467       0.00452838
C        2.46046072       8.64141164       3.30927071      -0.00210993      -0.00344878      -0.00281943
C        9.87451619       0.03134414       3.78478251       0.00968705       0.00251799      -0.00482562
C        8.64148895       2.15414102       3.94923038      -0.00133819       0.00380226      -0.00598350
C        7.39459109       4.27319422       3.90622682      -0.00421189       0.00230915       0.00337552
C        6.16657278       6.40115643       3.61240365      -0.00882416      -0.00006329       0.00900362
C        4.92898754       8.56485179       3.51667240       0.00925719      -0.00436278      -0.00804672
C        0.01207994       1.41959041       3.95311258       0.00342188       0.00328443       0.00716725
C       -1.18449872       3.57807814       3.90446479       0.00111270      -0.00004442       0.00479451
C       -2.45661305       5.69438598       3.76423320       0.00285510      -0.00450705       0.00205603
C       -3.70540628       7.81493929       3.72449914       0.00128340       0.00564402       0.00269295
C       -4.94515066       9.93727823       3.82186516      -0.00244507      -0.00294956       0.00035120
C        2.46767216       1.35324581       4.01041620       0.00377676      -0.00887008      -0.00146887
B        1.45191584       3.58560042       4.07599210      -0.00140035       0.00844732      -0.00025226
C       -0.01031605       5.66886739       3.43528783       0.00377735      -0.00269169      -0.00185225
C       -1.22988311       7.83097216       3.55066350       0.00271521      -0.00097807      -0.00318940
C       -2.46405201       9.93836916       3.82676396      -0.00066415      -0.00410756      -0.00504903
C        4.92906323       1.41364844       3.98789077       0.00084359      -0.00186412      -0.00823453
B        3.49818875       3.58035222       4.10833644      -0.00806657       0.01151385      -0.00387643
C        1.22723021       7.94979685       3.13284940      -0.00452324      -0.00784716       0.00399009
C       -0.00315580       9.98957785       3.71989055      -0.00634403       0.00500525      -0.00231997
C        7.39778427       1.44673636       3.93209479       0.00010443       0.00293215      -0.00144632
C        6.14056225       3.56806584       3.95855500       0.00413486      -0.00606142       0.00277149
C        4.97242423       5.63987302       3.50445285      -0.00756198      -0.00175472       0.00679254
C        3.69697616       7.95941063       3.21075285       0.00393789       0.00120441       0.00111990
C        2.46663385      10.02895298       3.65182391       0.00141691       0.00399898       0.00237769
C        9.88225159       1.45008354       3.91602414       0.00261875       0.00671696      -0.00154578
C        8.64543555       3.57337897       3.93795858      -0.00455108       0.00126735       0.00334251
C        7.40140201       5.68942029       3.78442076      -0.00722434       0.00510355       0.00314869
C        6.14930701       7.81981461       3.58035780       0.00121070      -0.00418650       0.00296512
C        4.93513239       9.98745280       3.72881529       0.01051858      -0.00259811      -0.00699837
Zn       2.46506027       4.77897098       5.49245091      -0.00856048       0.00442781       0.00095175
