49
Lattice="12.336457 0.0 0.0 -6.168228499999997 10.683685154694365 0.0 0.0 0.0 15.0" Properties=species:S:1:pos:R:3:forces:R:3 energy=-425.95903552022696 free_energy=-425.95903552022696 stress="-0.0047912210080261605 -0.0024894815612821965 2.7233879273295974e-06 -0.0024894815612821965 -0.008120571640848446 1.2951263615120794e-06 2.7233879273295974e-06 1.2951263615120794e-06 6.046085982006195e-07" pbc="T T T"
C       -0.00108071      -0.03397952       3.72994735      -0.00147084      -0.00028278      -0.00227423
C       -1.24036206       2.10697333       3.82981094      -0.00183582       0.00671686      -0.00082037
C       -2.48546038       4.24923063       3.71291979      -0.00286059      -0.00234031       0.00316570
C       -3.70236581       6.38893123       3.60800837       0.00826389      -0.00183406      -0.00444082
C       -4.92850890       8.52033947       3.62053783       0.00111838      -0.00232592       0.00372344
C        2.47026472      -0.07074625       3.54479186      -0.00524411       0.00227956       0.00772253
C        1.26374032       2.02243137       3.90251443       0.00640028      -0.00134266       0.00012843
C       -0.06816607       4.27998276       4.05616495      -0.00984057       0.00145708      -0.00268059
C       -1.26683336       6.40699546       3.80226049       0.00069768      -0.00606151       0.00235443
C       -2.45871453       8.51588011       3.58774618       0.00136340       0.00731714      -0.00136490
C        4.93805067      -0.02809924       3.49099924      -0.00209371      -0.00669877       0.00157864
C        3.66942279       2.04741995       3.29899177       0.00192142       0.00071432       0.00050136
B        1.13923566       6.45673320       4.40777227      -0.00158022       0.00894376      -0.00071091
C       -0.00395053       8.54388687       3.80367207       0.00053859      -0.00280257       0.00236764
C        7.40254463      -0.01282845       3.65863622       0.00460435      -0.00063183       0.00227351
C        6.15488174       2.12897888       3.44527641      -0.00310226       0.00098847      -0.00133853
C        4.93239728       4.33653117       3.49939702      -0.00307801      -0.00035181      -0.00317927
N        3.84603157       6.45010296       4.19262540       0.00039910       0.00513700       0.00083898
C        2.48902169       8.53626057       3.97660086       0.00614252      -0.00562575       0.00447060
C        9.86782035      -0.01684110       3.76385860      -0.00146149      -0.00144819      -0.00660977
C        8.62614602       2.11860303       3.64519026       0.00225829       0.00286248      -0.00260523
C        7.38759380       4.26071635       3.57864172       0.00541596      -0.00089212      -0.00852339
C        6.19012210       6.41958944       3.67173647      -0.00157091       0.00075890      -0.00161246
C        4.94830023       8.53081274       3.79272825      -0.00473073       0.00345372       0.00080723
C       -0.00221987       1.38498205       3.84185611       0.00180691       0.00433221      -0.00206532
C       -1.25510876       3.52820528       3.85363281      -0.00742645       0.00743028       0.00102398
C       -2.48409225       5.67634625       3.68004397       0.00248383      -0.00791864       0.00555779
C       -3.69473469       7.80843266       3.59031397       0.00628863       0.00224150      -0.00090820
C       -4.93752496       9.93205037       3.63302502      -0.00213196      -0.00161716       0.00824289
C        2.46893698       1.33308410       3.56251405       0.00468613       0.00215271       0.00521361
P        1.50380480       3.64773009       4.47404325      -0.00107374      -0.01386340       0.00312417
C       -0.07780326       5.69690513       4.06129686       0.00335657      -0.00085324       0.00026213
C       -1.23020444       7.81978829       3.72682384      -0.00278826      -0.00219614       0.00369932
C       -2.45612985       9.92860937       3.51604803      -0.00641694       0.00437728      -0.00100528
C        4.92792597       1.40128208       3.37660500      -0.00252356      -0.00773841       0.00436731
P        3.38656231       3.73081841       2.85111059      -0.00051691       0.00188105      -0.00095691
C        1.23621385       7.87310816       4.05724234       0.00338376       0.00137783      -0.00232087
C       -0.00147221       9.96022182       3.63361348       0.00228642      -0.00266862       0.00558260
C        7.38987904       1.41340189       3.56827339       0.00080408       0.00474247      -0.00191357
C        6.13748845       3.56597886       3.49271453      -0.00220571       0.00366173      -0.00328947
C        4.95887846       5.74559655       3.77712764      -0.00370985      -0.00049969       0.00096299
C        3.73981536       7.80620482       4.00277603       0.00107311       0.00241016      -0.00044405
C        2.47389905       9.95616867       3.78936152       0.00351390      -0.00818315       0.00283818
C        9.86343848       1.40671733       3.73810848       0.00020248       0.00114503      -0.00485151
C        8.61952279       3.54356476       3.63138649       0.00256384      -0.00163141      -0.00113438
C        7.40196304       5.68233325       3.60464642       0.00619010       0.00045662      -0.00581804
C        6.17756173       7.82634074       3.69807040      -0.00493033       0.00241500      -0.00550864
C        4.93353626       9.94904762       3.76122924      -0.00244462       0.00067589      -0.00263878
Zn       2.62712582       5.40372564       5.41202734      -0.00272605      -0.00012091      -0.00179200
