49
Lattice="12.336457 0.0 0.0 -6.168228499999997 10.683685154694365 0.0 0.0 0.0 15.0" Properties=species:S:1:pos:R:3:forces:R:3 energy=-430.2718185036886 free_energy=-430.2718185036886 stress="-0.005773984924277509 -0.00019386212036582876 -2.6261952223653016e-07 -0.00019386212036582876 -0.007281430936248218 -5.673280234491775e-07 -2.6261952223653016e-07 -5.673280234491775e-07 5.846427818585601e-07" pbc="T T T"
C       -0.00295371      -0.01370162       3.74559770      -0.00478053       0.00826941       0.00236008
C       -1.23102241       2.13288994       3.74297615      -0.01744320      -0.00942284       0.00059822
C       -2.46940694       4.26610370       3.73349830      -0.00387135      -0.00965263       0.00512956
C       -3.70398934       6.39847835       3.73563445       0.00499411       0.00344534      -0.00100106
C       -4.93944731       8.53056516       3.74836018      -0.00097416       0.00285504      -0.01532671
C        2.46663876      -0.04850611       3.74751804       0.00488417       0.00114394      -0.00320383
C        1.24608606       2.07557255       3.75653918       0.00287258       0.00175179       0.00177532
C        0.00600705       4.29999388       3.75554257      -0.00246067       0.01501689      -0.00338193
C       -1.26484037       6.42366165       3.73243326      -0.00808263       0.00376572       0.01094814
C       -2.47153279       8.53231643       3.73465095       0.00350353       0.00299277       0.00473589
C        4.93708433      -0.01737557       3.74375870       0.00212850       0.00122088       0.00731547
C        3.68809323       2.07814695       3.76654400      -0.00176514       0.01048322      -0.00556255
N        1.11250401       6.46586267       3.78300981       0.00364693      -0.00164041      -0.01417384
C       -0.00858185       8.54216293       3.74371777       0.00209997      -0.00951550       0.00473414
C        7.40591399      -0.01155743       3.74797657       0.00432556       0.00074568       0.00378292
C        6.16302896       2.13591004       3.75559864       0.00739248      -0.01408306      -0.00314707
C        4.92181723       4.31293607       3.77644711       0.00433335       0.01097188      -0.00503503
O        3.82121744       6.47836106       3.82630743      -0.00576581       0.00373792       0.00958930
C        2.47947289       8.50655867       3.76534249      -0.00041484      -0.00364663       0.00155890
C        9.86512948      -0.01172896       3.74872725       0.00080425      -0.00951117      -0.00492591
C        8.63407648       2.13058372       3.74331190       0.00238063       0.00042874      -0.00049310
C        7.39569288       4.26664719       3.74641278       0.00108633       0.00351518       0.00226590
C        6.19269009       6.42198508       3.75692538      -0.00351263       0.00297650       0.00058397
C        4.94325479       8.54927363       3.75468178       0.00051756      -0.01022466       0.00343020
C       -0.00464091       1.40872966       3.74632262      -0.00703860       0.00583017       0.00730216
C       -1.22160023       3.56354204       3.74170482      -0.00467968      -0.00660846       0.00384414
C       -2.47758683       5.68781619       3.72926642       0.00019952      -0.00740886       0.00859526
C       -3.70317444       7.81981999       3.74062190       0.00485593       0.00410503      -0.01393322
C       -4.94039339       9.94880544       3.74692194       0.00120116       0.00441356      -0.00185746
C        2.46734182       1.35976041       3.75762769       0.00260267       0.00044035      -0.00247697
B        1.31354419       3.54412947       3.76836955       0.00980643       0.00624283       0.00313052
C       -0.03520603       5.74388538       3.75517960      -0.00409008       0.01692884      -0.00312232
C       -1.24168174       7.83293158       3.73377946      -0.00169952       0.00021918       0.00323862
C       -2.46280488       9.94705081       3.74038518       0.00520305       0.00114284       0.00577094
C        4.93828153       1.40583620       3.75635522      -0.00220922       0.00313735      -0.00277312
B        3.61142972       3.54434584       3.78191367      -0.01250967       0.00871597       0.00210779
C        1.20538211       7.81116323       3.76497382       0.00319832      -0.00685550      -0.00426267
C        0.00207373       9.96281276       3.74357541       0.00193402      -0.00626317       0.00100443
C        7.39965397       1.41865119       3.74838209       0.01314848      -0.00487344      -0.00151670
C        6.15324110       3.56485556       3.75987757       0.00488951      -0.00787320      -0.00301319
C        4.99914157       5.72904364       3.77990630      -0.00463342       0.01105681       0.00390333
C        3.73500030       7.87516669       3.77214523      -0.00217780      -0.00388657      -0.00170833
C        2.46936149       9.94463947       3.75302096       0.00199763      -0.00523325      -0.00107051
C        9.86967559       1.42066118       3.74351979      -0.01195496      -0.00753782      -0.00125790
C        8.63426457       3.55536764       3.73873538      -0.00234892      -0.00100849       0.00484426
C        7.41141653       5.68407537       3.74465191      -0.00327331       0.00717715      -0.00078488
C        6.17635352       7.83624503       3.75345960      -0.00012705      -0.00398325       0.00090069
C        4.93177260       9.97231997       3.74773551      -0.00083375      -0.00854592       0.00011235
Zn       2.45961449       5.15175437       3.81477557       0.01264024      -0.00495618      -0.00953419
