49
Lattice="12.336457 0.0 0.0 -6.168228499999997 10.683685154694365 0.0 0.0 0.0 15.0" Properties=species:S:1:pos:R:3:forces:R:3 energy=-427.30759107614017 free_energy=-427.30759107614017 stress="-0.007935225984145403 -0.0019882520359657345 9.067100643008261e-07 -0.0019882520359657345 -0.006577157493052025 1.500875725387942e-06 9.067100643008261e-07 1.500875725387942e-06 -2.156808968034347e-08" pbc="T T T"
C        0.00223561      -0.00796619       3.83498852      -0.00133901       0.00406385      -0.00493674
C       -1.25235384       2.11406904       3.58028930      -0.00532568       0.00060182      -0.00121344
C       -2.49230557       4.26508251       3.75217396       0.00357815      -0.00599288      -0.00515608
C       -3.69373250       6.40951858       3.99487800      -0.00247041       0.00279343      -0.01244342
C       -4.91604746       8.55164012       4.03028222      -0.00234602       0.00394999       0.01004137
C        2.46615989      -0.02335031       3.79744377       0.00497303      -0.00719576       0.00569162
C        1.21686091       2.01380825       3.25848893       0.01247922      -0.00365612      -0.00252032
C       -0.15397672       4.26874501       3.11375276       0.00464742       0.00477608      -0.00363561
C       -1.26894663       6.40901977       3.69181435      -0.01235217       0.00364054      -0.00737952
C       -2.45702448       8.54181471       3.92645720       0.00727957       0.00267470      -0.00638989
C        4.94000053      -0.00631917       3.84930566      -0.00922274      -0.00405248       0.00876128
C        3.68750586       2.09193601       3.59243003       0.01071675      -0.00556539       0.00871615
B        1.11518258       6.46806899       3.44153865       0.01539420      -0.00274078       0.00496900
C       -0.00372576       8.55255593       3.81681283       0.00042897       0.01020696       0.00076817
C        7.40587749      -0.00220668       3.91002713       0.00517270      -0.00257046      -0.01233378
C        6.16179718       2.13957606       3.85543283      -0.00396349      -0.00350464       0.00282361
C        4.97293563       4.32461107       3.80972016      -0.00051990       0.00096243      -0.01857481
N        3.81988997       6.47149207       3.79518778       0.00533107       0.01407737      -0.00757585
C        2.49962420       8.54728661       3.86136317      -0.00604126      -0.00424799      -0.01589882
C        9.87590913      -0.00270412       3.90672552       0.00382482      -0.00574190      -0.00370170
C        8.63135427       2.13142916       3.87320106      -0.00488842       0.00357347      -0.00672332
C        7.40867389       4.27566263       3.96627363       0.00434573       0.00042961       0.01099584
C        6.20487719       6.44210627       4.06391907      -0.00259162      -0.00531850       0.00364544
C        4.95991852       8.55191244       4.01581483      -0.00333318      -0.00378012      -0.00805362
C       -0.01745908       1.39639383       3.55754439       0.00094986       0.00630764       0.00088177
C       -1.28973671       3.53073218       3.46802870       0.00667144      -0.00024016       0.00835125
C       -2.48515320       5.69045259       3.82931965      -0.01021381      -0.00761796      -0.01137722
C       -3.68764150       7.83356224       4.00538163       0.00488825       0.00879360      -0.00405565
C       -4.93055903       9.96697582       3.90304496      -0.00100168       0.00537502      -0.00112268
C        2.45011146       1.37989720       3.54759757       0.01386362      -0.00707414       0.01080788
S        1.18030161       3.47594652       2.32789575      -0.01385935      -0.00282358      -0.00160386
C       -0.09548587       5.66858706       3.36463771      -0.00118978       0.00928587       0.00455907
C       -1.22776488       7.82765203       3.82042545       0.00333837       0.00497620       0.00932528
C       -2.45996643       9.96169389       3.87481572      -0.00186412      -0.00472572       0.01690232
C        4.93890509       1.41629357       3.77170186      -0.00071447      -0.01039477       0.01093137
B        3.77047737       3.53161836       3.55547455      -0.00337764      -0.00160175       0.00728210
C        1.25353587       7.87248755       3.73215873      -0.00812695       0.00163874      -0.00632889
C        0.00187802       9.97265093       3.88470428      -0.00358082       0.00836446       0.00035133
C        7.39924699       1.42151408       3.90265221      -0.00212950      -0.00032351       0.00653562
C        6.17677847       3.56822851       3.89119434      -0.00136136       0.00188198       0.00621597
C        4.97679254       5.76821249       3.91893540      -0.00294247       0.00261850      -0.00969428
C        3.74329826       7.82205656       3.90358887      -0.00748477       0.00846236      -0.00167739
C        2.48132769       9.96869527       3.92312058       0.00496366      -0.00942563      -0.00702745
C        9.87024590       1.42002877       3.80847500      -0.00817084      -0.00238807      -0.00823561
C        8.62723421       3.55496025       3.88526723       0.00385245       0.00114431       0.01035245
C        7.41649932       5.70077881       4.03343461       0.00164972      -0.00210140       0.01318229
C        6.19085808       7.85140279       4.06778852      -0.00383463      -0.00634771       0.01065113
C        4.94079923       9.97007392       3.94395331       0.00380451      -0.00687021      -0.00042789
Zn       2.52218002       5.07986514       3.29525718       0.00209259       0.00570274      -0.00465449
