49
Lattice="12.336457 0.0 0.0 -6.168228499999997 10.683685154694365 0.0 0.0 0.0 15.0" Properties=species:S:1:pos:R:3:forces:R:3 energy=-430.665916455624 free_energy=-430.665916455624 stress="-0.006745284679766885 -0.0019072876826183147 3.0504083931914852e-06 -0.0019072876826183147 -0.004130282656100086 -9.308028569056286e-06 3.0504083931914852e-06 -9.308028569056286e-06 -5.187192953486256e-08" pbc="T T T"
C       -0.00487183      -0.00348462       3.85653983      -0.00219189      -0.00587500       0.01279162
C       -1.25381818       2.11496104       3.89228003       0.00210615       0.00950093       0.01190047
C       -2.48117287       4.26570757       3.92109748      -0.00941234       0.00076973       0.00111459
C       -3.69230177       6.41357658       3.89382360       0.00658787      -0.00016143      -0.00262728
C       -4.92042403       8.56063855       3.88182129       0.00095392      -0.00782407      -0.01349560
C        2.46319969       0.01407832       3.77367657      -0.00224616       0.00455884       0.00549836
C        1.19446090       2.14949008       3.73241703       0.00439304       0.00277746      -0.00109784
C       -0.03476149       4.20378172       3.92344539      -0.00079584       0.00170102      -0.00458961
C       -1.23579741       6.40147657       3.96514755      -0.00323121      -0.00687866       0.00581382
C       -2.46329345       8.55410457       3.90021226      -0.00043603      -0.00077232       0.00884545
C        4.92760406       0.00833931       3.73364449      -0.00054669       0.00274092       0.00045833
C        3.68367071       2.07479550       3.27934599      -0.00021069       0.01363955      -0.00494842
B        1.22187439       6.43061452       3.92228513      -0.00895347       0.00418150       0.00164638
C       -0.01442846       8.56566243       3.91191288       0.00052966       0.00190484      -0.00459821
C        7.39576569       0.00436710       3.80927080       0.00601511       0.00407087      -0.00032325
C        6.17193480       2.13480075       3.54022467      -0.00275089      -0.00490709       0.00016804
C        5.03876843       4.32178812       3.22104196      -0.00700265      -0.01515103      -0.00423924
C        3.74807935       6.41123794       3.64274488      -0.00229036       0.00424949       0.00797758
C        2.47628572       8.55552808       3.86323359       0.00005466       0.00265247       0.00127280
C        9.86463512      -0.00827899       3.86559226       0.00172228       0.00074149      -0.00643973
C        8.62467431       2.13261535       3.81464489      -0.00091798      -0.00299037      -0.00166174
C        7.41668229       4.28035451       3.71150629       0.00783970       0.00201011       0.00152598
C        6.20488572       6.43530056       3.71557555       0.00117298      -0.00357767       0.00423167
C        4.94640907       8.54127020       3.83269872      -0.00098991      -0.00470078      -0.00244875
C       -0.01985722       1.41684222       3.83953680       0.00082991       0.00004501      -0.00372980
C       -1.26783366       3.52490384       3.93364801      -0.00605154       0.01100878       0.00539331
C       -2.47287449       5.69274382       3.94107855      -0.00186008      -0.00538248      -0.00371609
C       -3.69287723       7.84189029       3.90469211       0.00278506      -0.00369475      -0.00452081
C       -4.93086667       9.98142626       3.85747763       0.00000535      -0.00664358      -0.00010322
C        2.45181391       1.43186735       3.58898910       0.00260589       0.00659562       0.00327774
N        1.13153483       3.50478739       3.80951451       0.00774566       0.00329747       0.00462227
C       -0.02674191       5.65136956       3.95945713      -0.00290625      -0.00167951      -0.00494943
C       -1.23124718       7.83532258       3.93457136       0.00012426      -0.00357681       0.00841041
C       -2.46978899       9.98039848       3.80818275      -0.00243968       0.00254214       0.00241494
C        4.93154804       1.42122133       3.51102311      -0.00434034       0.00079225      -0.00629541
P        3.73023231       3.56154503       2.29994155       0.00498245      -0.01216212       0.00102954
C        1.23612811       7.88334970       3.91929518      -0.00093993       0.00145693      -0.01237826
C       -0.01156694       9.98632486       3.82827771       0.00476136       0.00551683       0.00454424
C        7.39169793       1.42607680       3.72913884      -0.00008300      -0.00049847      -0.00854982
C        6.20235465       3.56586575       3.47784483       0.00727763      -0.00402326       0.01050737
C        4.97249420       5.74181279       3.51257159      -0.00576320      -0.00423617      -0.00004164
C        3.70212316       7.79817437       3.78843223      -0.00204955       0.00536065       0.00373633
C        2.46589711       9.97419628       3.85579296       0.00317749       0.00068102      -0.00228599
C        9.85269835       1.41132960       3.87156867       0.00278578       0.00390294       0.00085732
C        8.62700851       3.55871914       3.82941782      -0.00154242      -0.00493849      -0.00289864
C        7.41892307       5.70619272       3.77806529       0.00757496       0.00288802      -0.00375743
C        6.18572770       7.84772845       3.82710125      -0.00048175      -0.00563607      -0.00082556
C        4.93213457       9.95883013       3.86767784      -0.00320973      -0.00636025      -0.00205860
Zn       2.49067042       4.91290462       3.67723961      -0.00238759       0.01208349      -0.00545821
