49
Lattice="12.336457 0.0 0.0 -6.168228499999997 10.683685154694365 0.0 0.0 0.0 15.0" Properties=species:S:1:pos:R:3:forces:R:3 energy=-432.4099369125702 free_energy=-432.4099369125702 stress="-0.009761120724423644 -0.0007490855534156583 -1.6821663467978325e-09 -0.0007490855534156583 -0.004255415619425434 9.394200922351105e-08 -1.6821663467978325e-09 9.394200922351105e-08 7.307504860144886e-07" pbc="T T T"
C        0.00017216       0.00049686       3.74367774      -0.00248967       0.00903120       0.00304529
C       -1.25432280       2.12241399       3.73261336      -0.00193029      -0.00266566      -0.00118800
C       -2.47864455       4.27808314       3.72678274       0.00051682       0.00379600       0.00201484
C       -3.69234357       6.41813440       3.73546812      -0.00164078       0.00010448      -0.00014924
C       -4.92721192       8.56091138       3.74598030      -0.00734326       0.00293483      -0.00130205
C        2.45695331       0.03621151       3.75224777      -0.00390625       0.00058042      -0.00546562
C        1.18621839       2.10666650       3.75824845       0.00126885      -0.00581639      -0.00218873
C       -0.07801725       4.25074644       3.74436250       0.00607201      -0.00856098      -0.00070904
C       -1.24450623       6.41348168       3.73749562       0.00313210      -0.00035041      -0.00440641
C       -2.47429918       8.56559905       3.73776760       0.00452269      -0.00348635       0.00438904
C        4.93302672       0.00648044       3.74768588       0.00004456       0.00566076       0.00621809
C        3.70492376       2.18446577       3.77841814      -0.00426446      -0.00067129      -0.00793296
C        1.20608058       6.39261273       3.77168568      -0.00958552       0.00869092      -0.00090073
C       -0.01118968       8.53941665       3.74954073       0.01050702      -0.00265138      -0.00467636
C        7.39796936      -0.00990955       3.74567535      -0.00072677      -0.01197938       0.00318985
C        6.18308111       2.12008735       3.75442729       0.00665828      -0.00523828       0.00441129
C        4.98997474       4.24454308       3.78789800       0.00574589      -0.00164688      -0.00810683
B        3.72999471       6.43007364       3.79880218       0.00287029       0.00538828      -0.00652475
C        2.45649242       8.54821932       3.76787665       0.00166259       0.00399254      -0.00652651
C        9.86374651      -0.00891628       3.74672131      -0.00015488      -0.00318018      -0.00460901
C        8.63345310       2.12723028       3.73672452      -0.00473663       0.00534690      -0.00536438
C        7.42737744       4.27079141       3.74575279      -0.00648926       0.00745365       0.00278116
C        6.19871407       6.41854106       3.76389198       0.00210475       0.00124152       0.00438259
C        4.95130340       8.55952560       3.76198487      -0.00102940       0.00002155       0.00306297
C       -0.02049480       1.42081442       3.74087099      -0.00074658       0.00496838       0.00375468
C       -1.26266391       3.54503283       3.72851519       0.00156866      -0.00245602      -0.00094759
C       -2.46402065       5.69975869       3.73023094       0.00074582       0.00159052       0.00083500
C       -3.69766782       7.84719967       3.73804698      -0.00355296       0.00123224       0.00276032
C       -4.93198294       9.99099987       3.74627394      -0.00637929       0.00594558       0.00308197
C        2.43697391       1.46688605       3.76640118      -0.00186300      -0.00332480      -0.00696148
O        1.09454202       3.49836969       3.77112153       0.00624629      -0.01141594       0.00844466
C       -0.00359795       5.68360727       3.74991475       0.00102031      -0.00307332       0.00139966
C       -1.24202071       7.83980036       3.73980335       0.01079474      -0.00194888       0.00401221
C       -2.47599884       9.99101343       3.74555148      -0.00010418       0.00064467       0.00270628
C        4.94094942       1.42666026       3.76025156      -0.00003358       0.00457445       0.00317111
C        3.79721488       3.54953495       3.79856209       0.00732636      -0.00136718      -0.00406313
C        1.23292375       7.78644833       3.76487228       0.00677889       0.00703806      -0.00126094
C       -0.00414998       9.96118087       3.74497329      -0.00116718      -0.00588971       0.01272534
C        7.40967657       1.40802830       3.74351310       0.00388020      -0.01067608      -0.00151739
C        6.21824075       3.53682070       3.76382555       0.00301417      -0.00321634      -0.00229153
C        4.99697043       5.68196123       3.78762253       0.00235104       0.00179915       0.00029900
C        3.70121525       7.87791576       3.77735478      -0.00272790       0.00755785       0.00555438
C        2.45890053       9.96591413       3.75304975       0.00008888      -0.00452519      -0.00383819
C        9.86553827       1.41525657       3.73646309      -0.00552018      -0.00077926      -0.00277011
C        8.64302989       3.55533755       3.73249163      -0.00664346       0.01124557       0.00394632
C        7.42950352       5.70111854       3.74629904      -0.00189842       0.00258485       0.00373510
C        6.18164037       7.84621463       3.75805296      -0.00265452      -0.00282288      -0.00445966
C        4.93703892       9.97513028       3.74884281       0.00259826       0.00010377       0.00312362
Zn       2.47668584       4.93163830       3.81008520      -0.01393107      -0.00578535      -0.00488412
