49
Lattice="12.336457 0.0 0.0 -6.168228499999997 10.683685154694365 0.0 0.0 0.0 15.0" Properties=species:S:1:pos:R:3:forces:R:3 energy=-424.3857217429127 free_energy=-424.3857217429127 stress="0.0011894575104124596 0.0010287445355131085 6.205845088455458e-06 0.0010287445355131085 -0.011264676908416774 -9.194754459015426e-06 6.205845088455458e-06 -9.194754459015426e-06 -1.341424064834955e-06" pbc="T T T"
C        0.00045839      -0.01812992       3.65193546       0.00099883      -0.00699702       0.00935964
C       -1.21730764       2.14762669       3.53654975       0.00512008       0.00359894       0.00145154
C       -2.45702178       4.27639082       3.61861686       0.00063314      -0.00180073      -0.00887594
C       -3.70389341       6.39490184       3.70076865      -0.00222150      -0.00356900      -0.00122548
C       -4.95030332       8.51088373       3.69449079       0.00696372      -0.00360881       0.00123583
C        2.45995123      -0.08257376       3.89654788       0.00376738       0.00299736       0.01177791
C        1.27819074       2.02267192       3.50982044       0.00254487       0.00106844      -0.00518332
C        0.00724224       4.31606657       3.41353595      -0.00420849      -0.00470392       0.00663235
C       -1.21906694       6.41035787       3.77777007       0.00686769       0.00309167       0.00259416
C       -2.46695574       8.51161539       3.91991508      -0.00735379       0.00305886       0.00068867
C        4.93340957      -0.02148198       4.05532303       0.00300142       0.00227493       0.01081927
C        3.67724012       2.05861108       3.96925474       0.00207312       0.00556383      -0.00287060
B        1.40110386       6.40130539       3.89633877      -0.00921095      -0.00504497      -0.00868518
C        0.00257326       8.55827655       4.02685393      -0.00398629       0.01002906      -0.00396291
C        7.39910636       0.04108266       3.99163615      -0.00134705       0.00517401      -0.00767516
C        6.16209589       2.14457843       3.94165375      -0.00336837       0.00059388       0.00273954
C        4.90201421       4.26631799       3.70180588       0.00009146       0.00159577      -0.00441280
P        3.32144399       6.31542961       2.95618657      -0.00103957      -0.00430413      -0.00380786
C        2.46291933       8.63989835       3.83322667       0.00130420      -0.00315526       0.00761207
C        9.87945207       0.04121595       3.74530737      -0.00400001       0.00220020       0.00618669
C        8.64010321       2.15800984       3.76545797       0.00073633      -0.01097398       0.01477959
C        7.39241150       4.27242948       3.70742873       0.00089763      -0.00624551      -0.00985048
C        6.14917483       6.40033177       3.50806973      -0.00563319       0.00261075      -0.00489049
C        4.92241977       8.56115808       3.55420410       0.00279035      -0.00227197       0.00590717
C        0.01098524       1.40628909       3.54767146       0.00406155      -0.00061823       0.01439732
C       -1.21586241       3.56679992       3.49423391       0.00360738       0.00311521      -0.00677794
C       -2.45886391       5.69510020       3.69868999       0.00362848       0.00171386       0.00260802
C       -3.70708188       7.80952474       3.77453770      -0.00077805      -0.00461673      -0.00420863
C       -4.94662429       9.92624627       3.74989584       0.00626191      -0.00502921       0.00414864
C        2.47064254       1.32620647       3.83625825       0.00168567       0.00623393       0.00124964
P        1.61603629       3.64997721       2.95408750      -0.00470497       0.00535046      -0.00827840
C        0.03213220       5.70059295       3.68498110       0.00182084      -0.00809742      -0.00526018
C       -1.22759145       7.82090989       3.93652698      -0.00526237       0.00775984       0.00476660
C       -2.46523404       9.92450058       3.99125462       0.00301685       0.00298167       0.00130506
C        4.93190547       1.40645563       4.03014274       0.00021836       0.00034788      -0.00568600
B        3.53372453       3.56374541       3.90679743       0.00035051       0.00464306      -0.01415177
C        1.25700199       7.90641773       3.96307526      -0.00554670      -0.00212599      -0.00075200
C        0.00075722       9.98615566       4.05708904       0.00309068       0.00885913      -0.01088058
C        7.40136442       1.45432554       3.91815326      -0.00546087      -0.00003761       0.00220605
C        6.15310875       3.55629034       3.79055786      -0.00110757      -0.00194271      -0.00730010
C        4.92612155       5.65123055       3.43161444       0.00463445      -0.00551292      -0.00815493
C        3.65619118       7.94372322       3.51169692       0.00105549       0.00383395      -0.00938372
C        2.47359958      10.04877539       3.89453423      -0.00269128       0.00171107       0.00908782
C        9.88269701       1.45645922       3.68334085       0.00622163       0.00070251       0.01406687
C        8.63737869       3.57306779       3.69663706       0.00181174      -0.01260237       0.00204839
C        7.39056430       5.69118828       3.62849163      -0.00544950      -0.00090790      -0.00591990
C        6.15023283       7.81950681       3.54673562       0.00443830       0.00240686       0.01143624
C        4.93290643       9.98616539       3.65305747      -0.00430437      -0.00232218       0.00223122
Zn       2.46453930       4.98192055       5.20196008      -0.00601916       0.00297144      -0.00314194
