49
Lattice="12.336457 0.0 0.0 -6.168228499999997 10.683685154694365 0.0 0.0 0.0 15.0" Properties=species:S:1:pos:R:3:forces:R:3 energy=-432.37284533376254 free_energy=-432.37284533376254 stress="-0.009660821982716554 0.001825754787039218 7.913845307242565e-07 0.001825754787039218 -0.005450918102754734 -6.896375726404501e-07 7.913845307242565e-07 -6.896375726404501e-07 -1.6004357823266624e-06" pbc="T T T"
C        0.00297828       0.01701310       3.75280600       0.00131221       0.00153203       0.00263554
C       -1.24409226       2.13055090       3.74600556      -0.00890480       0.00194057      -0.00162985
C       -2.48485149       4.27676011       3.73767186      -0.01214664       0.00175691      -0.00631683
C       -3.71177765       6.41671529       3.74013403       0.00260180       0.00345384       0.00292037
C       -4.94117620       8.55926469       3.75146917       0.00510699      -0.00257842      -0.00431862
C        2.47182834       0.03138891       3.74955270       0.00131799       0.00301647       0.00418153
C        1.23355272       2.18581065       3.75363583       0.00381923       0.00600751       0.00763815
C       -0.04388150       4.26191374       3.74564593       0.00287190      -0.00394625       0.00429851
C       -1.26728872       6.42926628       3.74847966       0.00238929       0.00059870      -0.00515346
C       -2.48614897       8.56097142       3.75044284      -0.00284461       0.00093670      -0.01549626
C        4.93496581      -0.01165939       3.73212907      -0.00225008      -0.00469109       0.00276413
C        3.75174971       2.09420368       3.77595341      -0.00260891       0.00495654       0.00771376
C        1.17893959       6.41828986       3.76760792      -0.00100324       0.00697392      -0.00702593
C       -0.01703367       8.54049102       3.75056322      -0.00363633      -0.00110965      -0.00185783
C        7.40110684      -0.01232297       3.74154025       0.00625922       0.00527578      -0.00783124
C        6.19229562       2.11118518       3.72283754      -0.00160402      -0.00633356       0.00044133
C        5.01264708       4.21358230       3.77967079      -0.00508052      -0.00242861       0.01574280
B        3.71726544       6.43380945       3.77624040      -0.00870630       0.00046649       0.00447785
C        2.45613777       8.55680785       3.76094108       0.00324238      -0.00460144      -0.00434127
C        9.86812259      -0.00025091       3.75197888      -0.00021569       0.00038755      -0.00227781
C        8.63759479       2.13040506       3.73483306       0.00869530      -0.01031540      -0.00245642
C        7.41779292       4.27283245       3.72223615       0.00333970      -0.00740201      -0.00252747
C        6.16927988       6.39960637       3.74859344      -0.00148039       0.00252339      -0.00253610
C        4.94671998       8.56549353       3.75781651       0.00068705       0.00726306       0.00306927
C       -0.00338234       1.43674822       3.75056163      -0.00238080       0.00300441      -0.00289892
C       -1.27327183       3.54975231       3.74166690      -0.01084840       0.00413363      -0.00460751
C       -2.48712041       5.70592305       3.74153797      -0.00060584       0.00302702      -0.00549588
C       -3.71278599       7.84485035       3.74859690       0.00539170      -0.00216346      -0.00379837
C       -4.93204983       9.98926134       3.75280307       0.00762168      -0.00543418      -0.00752531
C        2.49622028       1.46216746       3.76047887       0.00172087       0.00282666       0.00584485
C        1.13255814       3.55044734       3.75062584       0.00645450       0.00266922       0.00505900
C       -0.02833659       5.72208878       3.75228272       0.00690315      -0.00043931      -0.00182953
C       -1.25535925       7.84777826       3.75060430      -0.00424192       0.00233704      -0.00492780
C       -2.47478794       9.98637166       3.74485825      -0.00280888      -0.00104913      -0.00211156
C        4.95790490       1.40729992       3.72870887      -0.00604331      -0.00482990       0.00524941
O        3.84843789       3.47320579       3.96301715      -0.00842557      -0.00064506       0.00785433
C        1.22800093       7.80724771       3.75952726      -0.00167438       0.00358156       0.00791325
C       -0.00176447       9.95573388       3.73997792       0.00252356      -0.00151418       0.00089690
C        7.40722166       1.41005491       3.73033353       0.00679427       0.00176814      -0.00407768
C        6.20738062       3.52696648       3.72210532      -0.00009720      -0.00570943       0.00454410
C        4.95970394       5.63421770       3.76825665      -0.00363515      -0.00024565       0.00412946
C        3.69717109       7.87983011       3.76517875       0.00546435      -0.00241503      -0.00050553
C        2.46238800       9.97196519       3.75210945       0.00368906      -0.00259454       0.00020784
C        9.86202471       1.41670376       3.74636736       0.00086449      -0.00281243      -0.01270541
C        8.63567403       3.55780399       3.72918394       0.00025778      -0.01391771      -0.00059507
C        7.40202737       5.69456341       3.73378962      -0.00072851      -0.00082019       0.00639317
C        6.16386336       7.83296286       3.75307586      -0.00161409       0.00698214      -0.00169283
C        4.94043609       9.98494309       3.75422171      -0.00425675       0.00762011       0.00345052
Zn       2.44851204       4.94753297       3.81606444       0.00851385       0.00295726       0.00911440
