49
Lattice="12.336457 0.0 0.0 -6.168228499999997 10.683685154694365 0.0 0.0 0.0 15.0" Properties=species:S:1:pos:R:3:forces:R:3 energy=-423.2327399042194 free_energy=-423.2327399042194 stress="-0.000517555579403798 0.000777845649980378 -4.117768839129981e-06 0.000777845649980378 -0.009702467544309026 -9.73515660319917e-06 -4.117768839129981e-06 -9.73515660319917e-06 1.8059130099698097e-06" pbc="T T T"
C        0.00352329      -0.01163543       3.66104965      -0.01018949      -0.00009342       0.00364567
C       -1.21365391       2.14964550       3.49653239      -0.00015708      -0.00653555       0.00464712
C       -2.45993862       4.28082131       3.59445304       0.00191703      -0.00562779      -0.00221268
C       -3.69798775       6.40294316       3.71476408       0.00395938       0.00878032      -0.00297767
C       -4.94300893       8.52148555       3.71430432      -0.00706801       0.00068971      -0.00451090
C        2.46143872      -0.05458366       3.87693840       0.00425717      -0.00159657       0.00562831
C        1.27346098       2.03466914       3.47219242      -0.00675217      -0.00081020       0.00506941
C       -0.03389728       4.31683875       3.26272118       0.00639214      -0.00597549       0.00981225
C       -1.21405243       6.41300779       3.71045799      -0.01047007       0.00141840       0.00106196
C       -2.46234944       8.52490968       3.88456318       0.00484825      -0.00692803      -0.00762115
C        4.93719583      -0.00987562       4.02018588       0.00320934      -0.01276660      -0.00528186
C        3.67350972       2.08792007       4.02687522       0.00419757       0.00485645      -0.00032773
B        1.38659178       6.39230221       3.81926389       0.01661568      -0.00183830      -0.01058706
C        0.00313555       8.56180159       3.95825295       0.00222998      -0.00037608       0.00802712
C        7.40263076       0.04039312       3.95860851       0.00151452      -0.00941316      -0.00867774
C        6.16755928       2.14802720       3.98339869       0.00455688      -0.01136900      -0.00095001
C        4.94530497       4.27390425       3.89319338       0.00263247       0.00716340      -0.00368111
P        3.33891257       6.27612245       3.06331052       0.00250344      -0.00047465      -0.01234995
C        2.46297986       8.63496375       3.80631088      -0.00080621       0.00086996       0.00429948
C        9.88376599       0.03833620       3.73794362      -0.00618731       0.00486921       0.01124260
C        8.64547358       2.15698696       3.76865603      -0.00366241       0.01199330       0.00446390
C        7.41009113       4.27661942       3.77275676      -0.00316238       0.01687372      -0.00166721
C        6.15613864       6.40528229       3.60156273       0.01012646      -0.00301795      -0.00062961
C        4.92715857       8.55830072       3.59447451       0.00279988      -0.00661888      -0.00521282
C        0.01022316       1.41426181       3.53186882      -0.00411535      -0.00413718       0.00557344
C       -1.22733496       3.56447971       3.41656996       0.00474150      -0.01070097       0.00552779
C       -2.45511114       5.70069537       3.67363307      -0.00496505      -0.00439249      -0.00568840
C       -3.70154600       7.81985382       3.77411072      -0.00162263       0.00508840      -0.00918037
C       -4.93965105       9.94150330       3.74967940      -0.00482178       0.00290728       0.00901128
C        2.46456924       1.36789766       3.84176372       0.00127731       0.00197235       0.00392131
S        1.44683010       3.57160380       2.72055690      -0.00532522      -0.00058274      -0.00211185
C        0.03448664       5.69058719       3.57360138      -0.00749233       0.00455182       0.00057512
C       -1.22451133       7.82735709       3.87691021       0.00403439       0.00068743       0.00047482
C       -2.46268220       9.94184752       3.95637865       0.00500102      -0.01107486       0.00730335
C        4.93208227       1.42090211       4.03973790       0.00059789      -0.01073338       0.01199395
B        3.65445734       3.55225456       4.18659433      -0.01039361       0.01389551      -0.00010709
C        1.25337546       7.90318823       3.89929847       0.00075829       0.00330548      -0.00180351
C        0.00320975       9.99069254       4.00555409       0.00332483      -0.00665674      -0.00427578
C        7.40723076       1.45326624       3.91929121       0.00663803      -0.00953751       0.00091302
C        6.17940729       3.56027750       3.89942205       0.00228173      -0.00021191       0.00642861
C        4.93468682       5.65200410       3.58961827      -0.00042918       0.01001306      -0.01539262
C        3.66469965       7.93190071       3.54147182       0.00204472      -0.00176903       0.00112944
C        2.47566512      10.04468593       3.86836772      -0.00183822      -0.00218806       0.00088075
C        9.89013298       1.45674631       3.67005538      -0.00590974       0.00798949       0.00908026
C        8.64413818       3.57223315       3.71488991      -0.00723959       0.01482553      -0.00158274
C        7.40047614       5.69663674       3.69113700       0.00778080       0.01243310      -0.00661608
C        6.15743788       7.82464850       3.60285348       0.00121212      -0.01098594      -0.00363852
C        4.93561526       9.98510373       3.66758853      -0.00813681      -0.00122953       0.00295104
Zn       2.34552311       4.87473511       5.15099636      -0.00070818       0.01245809      -0.00657754
