49
Lattice="12.336457 0.0 0.0 -6.168228499999997 10.683685154694365 0.0 0.0 0.0 15.0" Properties=species:S:1:pos:R:3:forces:R:3 energy=-429.40411111148074 free_energy=-429.40411111148074 stress="-0.01167248679252254 0.0006565948791723011 -6.571360780420419e-08 0.0006565948791723011 -0.005821175368828767 3.196314314956174e-07 -6.571360780420419e-08 3.196314314956174e-07 7.576663148349272e-07" pbc="T T T"
C        0.00051889      -0.00816259       3.74771888      -0.00127227       0.00674097       0.00969532
C       -1.24105205       2.12075184       3.74444969      -0.00973687      -0.00457314      -0.00176438
C       -2.50629124       4.26874466       3.72775578      -0.00410251      -0.00452510       0.00389890
C       -3.71748369       6.41852388       3.73456293       0.00332729       0.00078376      -0.00422040
C       -4.92824102       8.55862653       3.74775294      -0.00566888      -0.00343712       0.00056445
C        2.48573956       0.01649047       3.75083559       0.00656162       0.00391172      -0.00353704
C        1.24449212       2.11443910       3.76933300       0.00927167      -0.01047740      -0.00887771
C       -0.09757562       4.27497258       3.75374230       0.01107458       0.00029571      -0.00268643
C       -1.28810472       6.43090968       3.72927015      -0.00957343       0.00089802       0.00700563
C       -2.47440930       8.55954998       3.73563010       0.00477653       0.00433377      -0.00016921
C        4.93696714       0.00321117       3.74363973       0.00069678       0.00849037       0.00417348
C        3.74712245       2.11525064       3.76654010      -0.00212429       0.00595082       0.00522869
B        1.13521780       6.45135776       3.77074529      -0.00197864       0.00881585       0.00109751
C       -0.01443110       8.55903878       3.74441431      -0.00075544       0.00010289       0.00411561
C        7.41272459      -0.01559179       3.74768575       0.00668131       0.00888099       0.00392853
C        6.18776064       2.12333614       3.75235130       0.00307513      -0.00774525      -0.00292907
C        5.00397351       4.26503572       3.77879578      -0.00509467      -0.00426256      -0.00398640
N        3.78669108       6.42070015       3.79325973       0.00959741       0.00762694      -0.00795863
C        2.49704020       8.53069309       3.76720804      -0.00163278       0.00512382      -0.00349775
C        9.87681063      -0.01462245       3.74883412       0.00930428      -0.01358573       0.00335004
C        8.63876185       2.12264160       3.74164487       0.01127451       0.00504786      -0.00678374
C        7.40333609       4.27471305       3.74416740      -0.01099535       0.00774860       0.00304171
C        6.18421530       6.41726793       3.76408920      -0.00935043      -0.00373560      -0.00370536
C        4.95004832       8.53186013       3.76395590      -0.00571015      -0.01030907       0.00045424
C       -0.00380599       1.41493859       3.75290118      -0.00446328       0.00467928       0.00625985
C       -1.28551088       3.53917878       3.73876951      -0.00020586      -0.00188558       0.00098275
C       -2.50977954       5.70127661       3.72441688      -0.00319272      -0.00828451       0.00732618
C       -3.70334420       7.84489995       3.73914512       0.00481590       0.00166517      -0.00803349
C       -4.92362031       9.98304875       3.74732251       0.00408598       0.00239570       0.00931191
C        2.50838634       1.44513171       3.76456926       0.00663253      -0.00334865      -0.00289008
B        1.13981550       3.53915550       3.78195973       0.01028580      -0.01319568      -0.00396911
C       -0.10095531       5.69568420       3.74735999      -0.00283377       0.00726678       0.00106516
C       -1.24807546       7.85058058       3.73399455       0.00017421       0.00193961       0.00341865
C       -2.46313463       9.98476692       3.74289908       0.00472155       0.00430529      -0.00258118
C        4.95407652       1.42689457       3.75257811      -0.00548831       0.00378446       0.00300337
O        3.81631601       3.50949566       3.79607049      -0.00745358      -0.00182178       0.00887021
C        1.24052007       7.87460563       3.76170242       0.00133117       0.01053350      -0.00213656
C       -0.00091723       9.97530284       3.74326485       0.00117884       0.00154572       0.00313278
C        7.40664872       1.41127423       3.74718026       0.01562346       0.00645539      -0.00735127
C        6.18360936       3.54870945       3.75787763      -0.00375146      -0.00535140       0.00017283
C        4.96095114       5.70025809       3.78172940      -0.00420985       0.00004430      -0.00217241
C        3.72988501       7.78268595       3.77749787      -0.00582699       0.00117770      -0.00913649
C        2.48555301       9.95315002       3.75457022       0.00394208       0.00070997      -0.00159165
C        9.86744184       1.40736376       3.74212550      -0.00202958      -0.01117818       0.00251566
C        8.62147761       3.55058362       3.73502408      -0.00755300       0.00645754       0.00095287
C        7.39605510       5.69499532       3.74653367      -0.00761784       0.00663680      -0.00144555
C        6.17885157       7.83816033       3.76011057      -0.01098511      -0.01016613      -0.00513303
C        4.93870186       9.95508339       3.75115443       0.00507386      -0.01265962       0.00868959
Zn       2.46441577       5.01158664       3.80557938       0.00010055      -0.00380678      -0.00569900
