49
Lattice="12.336457 0.0 0.0 -6.168228499999997 10.683685154694365 0.0 0.0 0.0 15.0" Properties=species:S:1:pos:R:3:forces:R:3 energy=-425.2013912164706 free_energy=-425.2013912164706 stress="0.0061941010157390945 -0.000570775001319666 -2.531201752724239e-06 -0.000570775001319666 -0.008414174830391178 6.150656227655441e-06 -2.531201752724239e-06 6.150656227655441e-06 2.5194025838859733e-06" pbc="T T T"
C        0.00174974      -0.02493883       3.85736419      -0.00930444      -0.00401417      -0.00484420
C       -1.20851774       2.15405484       3.69741916      -0.00489690      -0.00397027       0.00242340
C       -2.44124487       4.27951213       3.63850857       0.00299224       0.00474462      -0.00068388
C       -3.69451517       6.38780924       3.77499595       0.00852184       0.00501573      -0.00452909
C       -4.94134240       8.50312618       3.89572475       0.00087491      -0.00036703      -0.00179918
C        2.47403976      -0.09102144       3.79998060       0.01047425      -0.00977172      -0.01099900
C        1.27207324       2.04676474       3.71473749      -0.00505930      -0.00212627       0.00212652
C        0.07526743       4.28695049       3.64624691      -0.00453340       0.00207129       0.01189772
C       -1.18045411       6.39932356       3.75310284      -0.00008611       0.00756856       0.00583343
C       -2.44934405       8.50469236       3.80385988       0.00143177      -0.01283310       0.00489887
C        4.93695749      -0.02000157       3.65104268       0.00421823       0.00491654       0.00384129
C        3.65679639       2.01388296       3.40761605       0.00116365       0.00475261      -0.00784897
B        1.46764604       6.41165394       3.98212919       0.00913307      -0.01650802      -0.00087671
C        0.01756209       8.55641493       3.80106688      -0.00830852      -0.00053386       0.00927861
C        7.39495095       0.04598264       3.68542589      -0.00061732       0.00429319      -0.00424985
C        6.14248614       2.15770599       3.47203815      -0.00327121       0.00374907       0.00570518
C        4.90941995       4.33135858       3.46274922      -0.00787402      -0.00312616       0.01141666
B        3.47472472       6.39789841       4.04541865       0.00921633      -0.01297282       0.00168603
C        2.47112257       8.63787915       3.90311790      -0.00331287       0.01101255      -0.00244483
C        9.87940456       0.04522972       3.79233105       0.00237933       0.01148477      -0.00029158
C        8.63823065       2.16537988       3.60633122      -0.00196550      -0.00486255       0.00579482
C        7.38637310       4.28146769       3.60478250      -0.00287512       0.00070232      -0.00907101
C        6.12923753       6.39647510       3.84805109       0.00373970      -0.00193579       0.00466244
C        4.92588715       8.55369986       3.94537053      -0.00083187       0.00046932       0.00021949
C        0.01561490       1.40846002       3.77605651      -0.00892184      -0.00711591      -0.00150368
C       -1.18144171       3.57382316       3.62819610      -0.00144615      -0.00379403       0.00317226
C       -2.43902795       5.69321898       3.71240545       0.00869821       0.01060749      -0.00204554
C       -3.69422886       7.80093219       3.84023963       0.00110687      -0.00180396      -0.00708151
C       -4.94185195       9.91799800       3.87748048       0.00053773      -0.00229055       0.00351811
C        2.46752293       1.31763265       3.67107934      -0.00133831      -0.00406160      -0.01152116
B        1.42723888       3.52457611       3.69009781       0.00679796       0.00593910      -0.00265233
C        0.08602478       5.69287270       3.76980380      -0.01082441       0.00000105      -0.00290000
C       -1.20519169       7.81475695       3.78952478      -0.00305013      -0.00024740       0.01234718
C       -2.45035269       9.92133050       3.75996193       0.01294626      -0.01336957      -0.00191672
C        4.91987965       1.41058842       3.48886899       0.00140437       0.00948626      -0.00683978
S        3.34019747       3.65191838       2.89286891       0.00608029      -0.00334256       0.00296459
C        1.26826859       7.90187583       3.89297034      -0.00200874      -0.00193331      -0.00123980
C        0.00628705       9.98526858       3.71087738      -0.00215650       0.00114499       0.00169277
C        7.38560570       1.46467677       3.57441654      -0.00456799      -0.00001284       0.01098593
C        6.12760418       3.57906785       3.47601041      -0.00703383       0.00051152       0.00488995
C        4.85572522       5.68899776       3.80729392       0.00327753       0.00032360      -0.00021603
C        3.67116331       7.90006168       3.97975375      -0.00356546       0.00021950      -0.00033477
C        2.46849207      10.04953277       3.79600213       0.00381657       0.01904943      -0.00106355
C        9.88294486       1.46103340       3.69422589      -0.00012873       0.00449711      -0.00091946
C        8.64262662       3.58099168       3.60366490       0.00038513      -0.00233478      -0.01181615
C        7.38327350       5.69165510       3.74672308       0.00479650       0.00212681      -0.00210701
C        6.15093180       7.81276693       3.92234978       0.00095174      -0.00149195       0.00210875
C        4.93412337       9.98365320       3.87845520      -0.00865171       0.00211464      -0.01044552
Zn       2.41745215       4.92955899       5.18598115       0.00168590      -0.00198185       0.00077730
