49
Lattice="12.336457 0.0 0.0 -6.168228499999997 10.683685154694365 0.0 0.0 0.0 15.0" Properties=species:S:1:pos:R:3:forces:R:3 energy=-423.7313526565739 free_energy=-423.7313526565739 stress="-0.0016124019713184177 -0.0027046391216361747 9.839351825157288e-06 -0.0027046391216361747 -0.005587551604976371 2.6006149705214458e-06 9.839351825157288e-06 2.6006149705214458e-06 2.595687414079475e-06" pbc="T T T"
C        0.00585809      -0.02454104       3.51958051       0.00298193       0.00165848       0.00015475
C       -1.23984124       2.11760452       3.44912976       0.00272131      -0.00099120      -0.00002051
C       -2.47823241       4.25405373       3.61473073      -0.00391914      -0.00369333       0.00120795
C       -3.69143241       6.39268884       3.66678677      -0.00572432      -0.00806094      -0.00467440
C       -4.91847393       8.52346175       3.60898698      -0.00162662      -0.00532506      -0.00053557
C        2.47886323      -0.06775797       3.68754680       0.00441330      -0.00029956      -0.00255093
C        1.26143762       2.03846702       3.35515851       0.00187927       0.00336085      -0.00546384
C       -0.03060731       4.29342838       3.52168708       0.00857525      -0.00830540       0.00547759
C       -1.24148370       6.39053545       3.85228366       0.00191725       0.00280730       0.00244920
C       -2.44472929       8.51476269       3.80424792      -0.00042768      -0.00199416       0.00240495
C        4.94469934      -0.02610598       3.88592267       0.00305634       0.00165197      -0.00355024
C        3.66253854       2.05012355       3.95896837      -0.00645706      -0.00619243       0.00604178
B        1.17468807       6.39793407       4.38232615       0.00729051      -0.00182831       0.00327247
C        0.02782926       8.52171310       3.96937816       0.00576236       0.00827673       0.00525335
C        7.41096879      -0.00988924       3.82624259      -0.00215382       0.00378452       0.00475852
C        6.15129199       2.14509949       3.84724252      -0.00171580       0.00118545      -0.00776562
C        4.93509723       4.37462118       3.77922379       0.00280829       0.00044535      -0.00329360
O        3.77752903       6.48071423       3.64913971       0.01190515       0.00058645       0.00393932
C        2.51243338       8.52281446       3.86958183       0.00154728      -0.00097220      -0.00188022
C        9.87102784      -0.01277742       3.63054902      -0.00268886      -0.00229750      -0.00038551
C        8.62633906       2.12482979       3.65381689      -0.00166127       0.00196503       0.00116664
C        7.38742218       4.26864973       3.66132228      -0.00504592       0.00867451      -0.00378840
C        6.19158178       6.42712624       3.55020101      -0.00435551       0.00456011       0.00437479
C        4.95640622       8.54443827       3.61740970      -0.00153531      -0.00292999      -0.00469607
C        0.00321356       1.39832977       3.41310657       0.00463928       0.00345850       0.00882276
C       -1.24044903       3.54103954       3.50241980       0.00018318      -0.00394817      -0.00377531
C       -2.47017223       5.67770961       3.71119652      -0.00171956      -0.00319016      -0.00143412
C       -3.67926131       7.81281494       3.69027786      -0.00272406      -0.00917002       0.00280134
C       -4.92759033       9.93844646       3.59394196       0.00463137      -0.00215337       0.00549927
C        2.46557183       1.33880537       3.66593309      -0.00375270      -0.00038312      -0.00241468
P        1.50403067       3.71201828       2.84375030      -0.00131379      -0.00091932      -0.00596378
C       -0.02396810       5.66273149       3.88727682       0.00201165      -0.00130300       0.00182285
C       -1.21057707       7.80590513       3.90866083       0.00608383       0.00621669      -0.00173899
C       -2.44870568       9.93059011       3.80929055       0.00416403      -0.00018134       0.00242865
C        4.92877383       1.40749346       3.92462630      -0.00175802      -0.00040378      -0.00900919
P        3.38368192       3.74214024       4.33012588      -0.00044525      -0.00167909      -0.00508381
C        1.28000826       7.82873017       4.05661447       0.00113056       0.00493556       0.00296498
C        0.01241712       9.95496213       3.90010275       0.00169848       0.00620966      -0.00459383
C        7.39025462       1.42233579       3.77505791      -0.00110910       0.00188460       0.00460753
C        6.13910663       3.58186466       3.75972478       0.00323530       0.00362452       0.00210283
C        4.97311118       5.76531295       3.61664288       0.00471116       0.00378795       0.00619906
C        3.75286360       7.84887712       3.72667357       0.00243860      -0.00392644       0.00097875
C        2.48637716       9.95466039       3.77224076      -0.00465795      -0.00028445      -0.00180375
C        9.86540110       1.41525039       3.56700036       0.00074010      -0.00003817       0.00725342
C        8.62453032       3.54819723       3.63658771      -0.00781814       0.00349868      -0.00905294
C        7.41019355       5.68616392       3.60716955      -0.01156948       0.00496307       0.00704889
C        6.19077165       7.83597063       3.56824407      -0.00384197      -0.00055918      -0.00507116
C        4.93783259       9.96462476       3.58570583       0.00018950      -0.00187189      -0.00087870
Zn       2.19876612       5.16157976       5.74088505      -0.01269396      -0.00463440      -0.00360647
