49
Lattice="12.336457 0.0 0.0 -6.168228499999997 10.683685154694365 0.0 0.0 0.0 15.0" Properties=species:S:1:pos:R:3:forces:R:3 energy=-430.1821487021852 free_energy=-430.1821487021852 stress="-0.00649961986167544 0.0012245469974721352 7.332251817102289e-06 0.0012245469974721352 -8.860045365686618e-05 -2.4471166674658497e-06 7.332251817102289e-06 -2.4471166674658497e-06 -1.3742712876597123e-06" pbc="T T T"
C       -0.01098663       0.00270787       3.83376789       0.00139569      -0.00305910      -0.00300446
C       -1.24576118       2.12633170       4.01915539       0.00236484      -0.00155139       0.00001246
C       -2.47367096       4.27259312       4.06932484      -0.00534730       0.00200397      -0.00373899
C       -3.70350162       6.41399889       3.90684085      -0.00990750       0.00184667      -0.00152272
C       -4.94133410       8.55853504       3.74826253       0.00053834      -0.00478388       0.00598409
C        2.45976633       0.03338466       3.79037642       0.00730982      -0.00295195       0.00716498
C        1.21405771       2.17965403       3.80334666       0.00321072      -0.00271861      -0.00058555
C       -0.02125679       4.29095767       4.00965227      -0.00813293      -0.00449141      -0.01116173
C       -1.25931774       6.43188819       4.06388939       0.01357722       0.00124260       0.00812958
C       -2.47959557       8.56427164       3.91589996       0.00491314       0.01073252      -0.01336910
C        4.93338874       0.01063426       3.84113465       0.00322930      -0.00626191      -0.00022807
C        3.72115436       2.16535276       3.59049825       0.00826021      -0.00717804      -0.00199840
O        1.11782413       6.46347754       3.92893172      -0.00655520       0.00081908      -0.00525686
C       -0.01834572       8.54352810       3.90477731       0.00144062       0.00090135       0.00245504
C        7.40522855      -0.02734369       3.90511027      -0.00080343       0.00743378      -0.00538025
C        6.19623113       2.11519168       3.78738432      -0.01148378      -0.00159858      -0.00201369
C        5.02905959       4.22095257       3.34276691       0.00562528       0.00341941       0.00519838
P        3.75862830       6.44627329       2.25622288       0.00039632       0.00182742      -0.00858892
C        2.43706369       8.50452043       3.65821463      -0.00201172       0.00065926      -0.00252452
C        9.85950875      -0.02698191       3.88234700      -0.00217943       0.00064778       0.00856372
C        8.64006223       2.11821018       3.98554180      -0.00236456       0.00330616       0.00258845
C        7.43427944       4.26277923       3.80976691      -0.00363290      -0.00668781      -0.00301364
C        6.22129215       6.40934223       3.47539157      -0.00508634       0.00254763      -0.01395224
C        4.92689979       8.54511710       3.54976053       0.00260090       0.00388499      -0.00424067
C       -0.02028937       1.42241124       3.91112297       0.00458017      -0.00212603      -0.00460615
C       -1.25680369       3.55585669       4.08701041      -0.00588784      -0.00298545      -0.00791249
C       -2.48227880       5.69849898       4.04053458      -0.00084364       0.00606745      -0.00626431
C       -3.71190830       7.84541464       3.86205484       0.00373895       0.00613255       0.00841608
C       -4.93971178       9.98758285       3.79234040       0.00423328      -0.00398592      -0.00059881
C        2.46431240       1.45825706       3.71457542       0.00716996      -0.00520527      -0.00049326
C        1.13072673       3.56260701       3.77350650      -0.00994830      -0.00325485      -0.00007313
C       -0.06304495       5.73207504       4.03930514       0.00788501      -0.00111390      -0.01180683
C       -1.25985791       7.85267508       3.98001118       0.00058494       0.00538795       0.00642816
C       -2.47806043       9.99384217       3.84240984       0.00576960       0.00569219       0.00832645
C        4.95624573       1.42318792       3.74285762      -0.00193567      -0.01369869      -0.00587964
C        3.82698312       3.52509659       3.33402627       0.01154765      -0.00541752       0.01157233
C        1.18084079       7.84788830       3.79518987      -0.00151526       0.00325054       0.00342336
C       -0.00351204       9.96984101       3.88783050       0.00228178       0.00264734      -0.00069066
C        7.41681814       1.39962061       3.91395985      -0.00918467       0.01136474       0.00737346
C        6.23413110       3.52868113       3.65854017      -0.00374827      -0.00283772       0.00377714
C        5.08221622       5.65419312       3.12317960       0.00721909      -0.00585947       0.01143834
C        3.68469762       7.87680518       3.31680151       0.00705908       0.00838685       0.01090020
C        2.45682308       9.93126176       3.84616967      -0.00138826      -0.00126433       0.01112481
C        9.86154725       1.39904141       3.99309498       0.00112656       0.00077256      -0.00041500
C        8.64292878       3.54860315       3.98435951      -0.00485236      -0.00009911       0.00536128
C        7.42789728       5.69230285       3.74971610      -0.01243848      -0.00197251       0.00077433
C        6.17833903       7.84131089       3.56438954      -0.00162518       0.00087335      -0.01281999
C        4.92689722       9.96120610       3.78075739      -0.00306702      -0.00120238       0.01441260
Zn       2.42078150       4.84491179       3.14261077      -0.00411843       0.00045768      -0.01128516
