49
Lattice="12.336457 0.0 0.0 -6.168228499999997 10.683685154694365 0.0 0.0 0.0 15.0" Properties=species:S:1:pos:R:3:forces:R:3 energy=-429.17416039450853 free_energy=-429.17416039450853 stress="-0.006002787492185644 -0.0022281529866112655 -6.029201045338511e-06 -0.0022281529866112655 0.0006933938563286734 4.3105942633585267e-07 -6.029201045338511e-06 4.3105942633585267e-07 8.708378635077028e-07" pbc="T T T"
C       -0.00241938      -0.00199881       3.87171208      -0.00458586      -0.00043385       0.00359331
C       -1.26640167       2.11130138       3.95172493       0.01178779       0.00683960      -0.00211359
C       -2.48699272       4.26312361       4.02602296      -0.00465213      -0.00512125      -0.00480655
C       -3.69271987       6.41657144       3.99033890      -0.00617905      -0.00112585       0.01263449
C       -4.91964530       8.56556048       3.91812331      -0.00040850       0.00257126       0.00031274
C        2.45979044       0.03194484       3.84802995      -0.00020708       0.00378647       0.00343307
C        1.17863049       2.11730882       3.78692898      -0.00362414       0.00269066       0.00202895
C       -0.06410415       4.22604589       4.03032525       0.00368742      -0.00376743      -0.00725352
C       -1.26182970       6.40615533       4.08227052      -0.00205111      -0.00234633      -0.00747212
C       -2.47114287       8.56158793       3.98793637      -0.00162438       0.00324005       0.00342710
C        4.92638604       0.00160683       3.77308195       0.00705196      -0.00531086       0.00278130
C        3.68331731       2.07970652       3.31727755      -0.00644939      -0.00038730       0.00374886
C        1.12119066       6.39551572       3.77730361       0.00011805      -0.00344154      -0.00533827
C       -0.01291849       8.53600956       3.89080864       0.00179127       0.00329785       0.00207352
C        7.39552959      -0.02726862       3.75577039       0.00123543       0.00075657       0.00222194
C        6.16271303       2.13314577       3.55437531       0.00063357      -0.00125655      -0.00026562
C        5.06915420       4.34244978       3.16938838      -0.00618062      -0.00523958       0.01170419
N        3.86871869       6.46173816       3.37550316       0.00537277       0.01114086       0.00509959
C        2.48005705       8.48832956       3.70367401      -0.00364780       0.00324556      -0.00034611
C        9.85596228      -0.03135610       3.81071408       0.00005596       0.00278423       0.00444579
C        8.61735485       2.12037868       3.83079094       0.00520775      -0.00374671       0.01061351
C        7.41596883       4.27635810       3.76614758       0.00420801       0.00306505      -0.00830250
C        6.23388330       6.44497236       3.68956934      -0.00279402      -0.00488177       0.00341754
C        4.96035909       8.54441474       3.74663742       0.00505385      -0.00382317       0.00238862
C       -0.01879162       1.42469733       3.88490645       0.00169102       0.00000077      -0.00014196
C       -1.26433216       3.52875557       4.04331995       0.00091985       0.00262641       0.00121816
C       -2.47634278       5.68948770       4.06500888      -0.00557046      -0.00452760      -0.00759094
C       -3.69338490       7.84550803       3.98815656      -0.00280334       0.00149171       0.00086641
C       -4.93117719       9.99384979       3.90172796      -0.00180836       0.00522568       0.00006039
C        2.43858616       1.46397614       3.66526776      -0.00823537       0.00233041      -0.00123360
O        1.11643970       3.49755970       3.93403118       0.00153573       0.00193060      -0.01161268
C       -0.02991068       5.66637735       4.00762847       0.00323066      -0.00623930      -0.00697980
C       -1.24248649       7.83481079       4.00947880      -0.00083526       0.00221895      -0.00856629
C       -2.47472439       9.98986874       3.87986549       0.00291548       0.00234727       0.00702769
C        4.92044167       1.42538825       3.54921841      -0.00152273      -0.00806362      -0.00628177
S        3.73831095       3.54116190       2.34903523      -0.00223470      -0.00036813      -0.00665263
C        1.22214185       7.77371260       3.78938969      -0.00310631       0.00006081       0.00012113
C       -0.00783566       9.95718039       3.80955254       0.00698640      -0.00070584       0.00227221
C        7.38245489       1.40973525       3.71817178       0.00173857      -0.00082056       0.00054268
C        6.19543467       3.56873480       3.49956829       0.00518698       0.00249960      -0.00179079
C        5.04149130       5.76182712       3.38475730      -0.00193230      -0.00022773      -0.00062936
C        3.74917488       7.79751133       3.60869144       0.00195228       0.00719840       0.00700552
C        2.46329306       9.92044343       3.75870380      -0.00266341       0.00199742      -0.00026978
C        9.85046775       1.39981752       3.87838173       0.01190833       0.00476110       0.00323669
C        8.62685586       3.54945247       3.89488944      -0.00157323      -0.00449471      -0.00281465
C        7.43128930       5.70222673       3.83106506      -0.00282879      -0.00064883       0.00713585
C        6.19681809       7.85663044       3.79820731       0.00344145      -0.00655923       0.00222778
C        4.93196466       9.96015236       3.82442293      -0.00248253      -0.00405919      -0.00500951
Zn       2.46037267       5.15608143       3.22681754      -0.00770969      -0.00051036      -0.01016698
