49
Lattice="12.336457 0.0 0.0 -6.168228499999997 10.683685154694365 0.0 0.0 0.0 15.0" Properties=species:S:1:pos:R:3:forces:R:3 energy=-422.4447088901274 free_energy=-422.4447088901274 stress="-0.0070423512049575705 0.00015024544166463645 -1.5095026520692735e-06 0.00015024544166463645 -0.0067434753920898784 -1.1312465624355337e-06 -1.5095026520692735e-06 -1.1312465624355337e-06 -4.477869105705883e-06" pbc="T T T"
C       -0.00062059      -0.00564006       3.75666932      -0.00288873      -0.00345022      -0.00078141
C       -1.23189954       2.13662716       3.59257787      -0.00585272       0.00080673       0.00472908
C       -2.47532889       4.27746840       3.69689491      -0.00050250       0.00514287       0.00344679
C       -3.69990779       6.41389122       3.81838934      -0.00480333       0.00191366       0.00025139
C       -4.93801368       8.54236472       3.79086872       0.00311934      -0.00010822       0.00005363
C        2.46437942      -0.01937515       3.90197285      -0.00192750      -0.00023994      -0.00136216
C        1.25369368       2.06228169       3.52198296      -0.00706941      -0.00211941       0.01502081
C       -0.09457896       4.30131466       3.21622148      -0.00385444       0.00139012      -0.00455240
C       -1.27330509       6.43435664       3.61179235       0.00463503      -0.00283618       0.00568848
C       -2.47617231       8.54984960       3.84211971       0.00262850      -0.00466095       0.00649602
C        4.93639489      -0.00836949       3.98368633       0.00167908      -0.00133147      -0.00279231
C        3.68854666       2.06461648       4.26160713       0.00341132       0.00326951       0.00824661
C        1.15708677       6.44404653       3.47007121      -0.00308962       0.00242911      -0.00302373
C       -0.01579659       8.55738286       3.72798696      -0.00037609      -0.00788741      -0.00482346
C        7.40389843       0.00074447       3.88008873       0.00211938      -0.00328837      -0.00233220
C        6.17889739       2.13124823       4.14906329       0.00150290       0.00452350       0.00015203
C        5.02112423       4.31678975       4.22956184       0.00659975       0.01133681      -0.00314276
P        3.76033132       6.30139024       2.61087685       0.00108993      -0.00410110      -0.00661475
C        2.46645934       8.56516227       3.55509832       0.00200532       0.00003542       0.00282477
C        9.87069169       0.00488997       3.74336925       0.00212678      -0.00199640      -0.00364020
C        8.64222195       2.13825088       3.87422894       0.00078993      -0.00416454       0.00334159
C        7.42745587       4.27306345       3.97227971      -0.00387072      -0.00187797       0.00126153
C        6.19894516       6.41464896       3.77415879      -0.00003617       0.00592239      -0.00246939
C        4.94461783       8.55750145       3.59305445       0.00011070       0.00203187       0.00287819
C        0.00035049       1.42055955       3.63610857      -0.00777690      -0.00259289       0.00400131
C       -1.25239489       3.55900677       3.49384564      -0.00078900       0.00242225       0.00023968
C       -2.47836391       5.70274241       3.71473385      -0.00093094       0.00698760       0.00181774
C       -3.70351223       7.83592290       3.82438465       0.00190083      -0.00013653      -0.00200522
C       -4.93773760       9.96451955       3.81412933      -0.00214678      -0.00177910      -0.00540587
C        2.46916808       1.40973534       3.90732244       0.00053347       0.00125690       0.00320199
S        1.26800935       3.46202211       2.48546350       0.00359847       0.00194035       0.00109682
C       -0.04337826       5.72986477       3.40991087       0.00196608      -0.00059638      -0.00522162
C       -1.24632472       7.84888199       3.73961766       0.00053653      -0.00640179      -0.00393517
C       -2.46704122       9.96534750       3.93003270      -0.00011459      -0.00267728      -0.00611454
C        4.93917639       1.41443933       4.14889081       0.00503169       0.00537036      -0.00310843
S        3.67455460       3.59060362       5.10448734      -0.00026505      -0.00443646       0.00413410
C        1.21924599       7.82884540       3.56965185       0.00140353      -0.00084912      -0.00135958
C        0.00018488       9.96946906       3.87326536       0.00117872      -0.00698900      -0.00796574
C        7.40373216       1.42512798       3.98575538      -0.00084929      -0.00046972      -0.00269594
C        6.20445847       3.55361554       4.15215175      -0.00289896       0.00283323      -0.00054545
C        4.99192549       5.65845500       3.74572377       0.00621999      -0.00647098      -0.00205357
C        3.70500321       7.90625959       3.36069872       0.00097294       0.00533913       0.00001994
C        2.46612698       9.98007466       3.74222410       0.00399113       0.00068614      -0.00156685
C        9.87872061       1.43254083       3.75105046      -0.00150302      -0.00460959      -0.00232019
C        8.64775339       3.55948036       3.86453435      -0.00085356      -0.00185734       0.00010286
C        7.42111685       5.69659249       3.88050225      -0.00502857       0.00066244      -0.00156641
C        6.17570175       7.83631544       3.68383972       0.00125632       0.00535898       0.00572203
C        4.93359283       9.97668591       3.71136112      -0.00065671      -0.00181617       0.00315921
Zn       2.39820346       4.99693610       3.85041209      -0.00232305       0.00808514       0.00351276
