50
Lattice="12.336457 0.0 0.0 -6.168228499999997 10.683685154694365 0.0 0.0 0.0 15.0" Properties=species:S:1:pos:R:3:forces:R:3 energy=-446.6026933625994 free_energy=-446.6026933625994 stress="-0.0030320376123409497 -0.000811108548688735 5.716762245973145e-08 -0.000811108548688735 -0.002092159859694336 -2.652065801642583e-07 5.716762245973145e-08 -2.652065801642583e-07 -3.592893469571719e-06" pbc="T T T"
C       -0.00159416      -0.00297936       3.51975097       0.00031811      -0.00311210       0.00588221
C       -1.24048474       2.13039115       3.64572042       0.00165893      -0.00571266       0.00021772
C       -2.47435706       4.26829433       3.64458886      -0.00962816      -0.00023599       0.00607729
C       -3.70287270       6.40753107       3.51980820       0.00280855       0.00389675       0.00824926
C       -4.93303588       8.54597272       3.46468622       0.00408851       0.00423428      -0.00723821
C        2.46721016      -0.00689242       3.49189770      -0.00452220       0.00225856       0.00167553
C        1.22938695       2.10775181       3.68229111       0.00663266       0.00084076       0.00210416
C       -0.01185418       4.26451131       3.90077238      -0.00145071       0.00628454       0.00881243
C       -1.25896543       6.41859279       3.68287384      -0.00111647      -0.00000557       0.00064576
C       -2.47175296       8.54761405       3.49249508      -0.00163510      -0.00282228      -0.00255688
C        4.93330368      -0.00212702       3.57274430      -0.00457086      -0.00480392       0.01056445
C        3.69426827       2.12101236       3.71421973      -0.00146299       0.00811743      -0.00199611
C        2.44687056       4.11093317       4.28259216       0.00426017      -0.01453869      -0.00237370
C        1.08342614       6.47181771       4.28348712      -0.00338596       0.00881615      -0.00702630
C       -0.01550144       8.54677794       3.71360565       0.00630719      -0.00615333       0.00583404
C        7.40072464      -0.01105789       3.69129298       0.00944938       0.00423487      -0.00011006
C        6.15972551       2.13915712       3.69107393       0.00052854       0.00047191       0.00245573
C        4.92596911       4.29728123       3.93124371       0.00136772      -0.00075999      -0.00172769
N        3.91696685       6.53288554       4.33765857       0.00000035       0.00831295      -0.00006311
C        2.48508710       8.52543366       3.93126997      -0.00079790      -0.00754213      -0.00086586
C        9.86650939      -0.01065831       3.65840064      -0.00815195       0.00003912       0.00266277
C        8.62830860       2.13074154       3.65353006       0.00244340       0.00526997      -0.00253025
C        7.39275106       4.27377750       3.65910084       0.00121555      -0.00448501      -0.00628634
C        6.18487579       6.42272168       3.65589473      -0.00217243      -0.00604230       0.00250607
C        4.95519263       8.55246241       3.65646284      -0.00427476      -0.00024623      -0.00150986
C       -0.00491037       1.41661214       3.59493264       0.00712912      -0.00488462       0.00681617
C       -1.23571352       3.55814933       3.71429237      -0.00492797       0.00078688       0.00465734
C       -2.47483160       5.69542334       3.59614898      -0.00184223      -0.00084485      -0.00323349
C       -3.69993920       7.83120639       3.46707981       0.00144407       0.00351339       0.00484413
C       -4.93538752       9.97125958       3.46761795      -0.00006743       0.00147724      -0.00090320
C        2.46504097       1.41466318       3.61255161       0.00204743       0.00367396       0.00001378
C        1.23268084       3.52970824       3.94364208       0.00567570       0.00326515      -0.00570867
C       -0.02582030       5.70994859       3.94296229       0.00204541       0.01010993       0.00069758
C       -1.24164221       7.83524148       3.61306085       0.00209101      -0.00378654      -0.00219270
C       -2.46629582       9.97027156       3.49818639      -0.00909342      -0.00378809      -0.00165638
C        4.92991596       1.42222076       3.64472330      -0.00501807       0.00095817      -0.00125166
C        3.67533435       3.55061398       3.97035051       0.00501371       0.00074492       0.00028195
C        1.21298158       7.81585290       3.97080898       0.00293648       0.00078367      -0.00293019
C       -0.00338906       9.96621730       3.64486303       0.00843096      -0.00173089      -0.00344941
C        7.39357742       1.41800190       3.66791745       0.00670028       0.00689807      -0.00474808
C        6.14822132       3.57554388       3.75075603       0.00113149      -0.00115925      -0.00201744
C        4.96981653       5.74682176       3.96574572      -0.00821563       0.00070075       0.00080063
C        3.76225922       7.83783669       3.96583167      -0.00194366       0.00127615       0.00145328
C        2.47105648       9.94480515       3.75015064      -0.00010510      -0.00961059       0.00094186
C        9.86320202       1.41665398       3.63829967      -0.00284665       0.00006356      -0.00949240
C        8.62745864       3.55731501       3.63620076      -0.00392177      -0.00020342       0.00518093
C        7.40169478       5.69561173       3.59040591       0.00428596      -0.00418982      -0.00713233
C        6.17546163       7.83715602       3.57032075       0.00045409      -0.00083136      -0.00662394
C        4.93417687       9.96981390       3.59014933      -0.00713284       0.00324608      -0.00518684
Zn       2.48317228       5.70581110       5.42619853      -0.00218052      -0.00278557       0.00743607
