49
Lattice="12.336457 0.0 0.0 -6.168228499999997 10.683685154694365 0.0 0.0 0.0 15.0" Properties=species:S:1:pos:R:3:forces:R:3 energy=-431.81913331411226 free_energy=-431.81913331411226 stress="-0.008145410023452865 0.0007896802907713187 1.2456482714102213e-06 0.0007896802907713187 0.0029962767173204187 4.507941189183754e-07 1.2456482714102213e-06 4.507941189183754e-07 1.4481238975546022e-06" pbc="T T T"
C        0.00326448       0.00966413       3.74635907      -0.00073543       0.00140034       0.00992990
C       -1.24592992       2.12713097       3.73975703      -0.00660453      -0.00420103      -0.00198135
C       -2.47751326       4.27383647       3.73073769       0.00321317      -0.00526936      -0.00901972
C       -3.69924363       6.42023932       3.73668994       0.00267524       0.00398265      -0.00441466
C       -4.92323063       8.57312352       3.74600786       0.00305473       0.00869829       0.00414178
C        2.46369389       0.06143607       3.75333828       0.00279845       0.00629858      -0.00636449
C        1.20479754       2.14732722       3.76408841       0.00146078       0.00410124      -0.00795586
C       -0.07576523       4.28266451       3.73867078       0.00632552       0.00174812      -0.00046315
C       -1.26851458       6.42021519       3.72760132       0.00186376      -0.00003886       0.00032745
C       -2.47185780       8.56965458       3.73872233      -0.00442440      -0.00021237       0.00235858
C        4.93303744       0.01153229       3.74652342      -0.00559231       0.01132349       0.01076368
C        3.73409544       2.19210557       3.77472932      -0.00342905       0.00114059      -0.00023222
O        1.11178769       6.42785298       3.73466762       0.00882979      -0.00449754       0.00828839
C       -0.01428773       8.53384008       3.74271846       0.00075494      -0.00823758       0.00630437
C        7.40716637      -0.03784656       3.74743981      -0.00392860       0.01134098       0.00743102
C        6.18988763       2.11658675       3.75046044       0.01150011      -0.00350183       0.00757413
C        4.99289788       4.22962115       3.78782445      -0.00671948      -0.00863170      -0.01196858
C        3.79957572       6.38624624       3.81320355       0.00208624       0.00547558      -0.00089215
C        2.43913817       8.47594221       3.77002612      -0.01191953      -0.00432922      -0.00195269
C        9.86289576      -0.03562077       3.75216952      -0.00293731       0.00382384      -0.00007453
C        8.64024483       2.11402591       3.74024923       0.00448454       0.00499842      -0.00767256
C        7.42553823       4.26588066       3.74151520       0.00370267      -0.00370101       0.01460060
C        6.21332917       6.42037711       3.76311367       0.00006146      -0.00466988       0.00696861
C        4.94400820       8.53265587       3.76780306       0.00479079      -0.01048303       0.00151717
C        0.00045424       1.44339340       3.74629456      -0.00261515       0.00053978       0.01487245
C       -1.25573882       3.55248464       3.73259036       0.00526959      -0.00267995      -0.00032345
C       -2.48340096       5.69391167       3.73015921       0.00240726      -0.00342369      -0.00474483
C       -3.70233940       7.85295035       3.74023977      -0.00216812       0.00204039      -0.00676845
C       -4.92731504      10.00750140       3.74696235       0.00658372       0.00420405       0.00829264
C        2.45492621       1.50837024       3.76712428      -0.00333438       0.00369885      -0.00686976
O        1.13475699       3.55874344       3.77748048       0.01421005       0.00039721      -0.00676635
C       -0.08752467       5.69378775       3.72891791       0.00506212       0.00372243       0.00881639
C       -1.25754141       7.84642867       3.73517066      -0.00161381       0.00138195      -0.00836201
C       -2.47810194      10.00720691       3.74637736      -0.00213998       0.00157674      -0.00060660
C        4.94342371       1.43743604       3.75597477      -0.00058020       0.01151210       0.00452014
N        3.81589596       3.54902888       3.79887466      -0.00750554      -0.00561111      -0.00380398
C        1.19108485       7.82878515       3.75364166      -0.00168941      -0.01375571      -0.00067541
C       -0.00091634       9.96175286       3.74564141      -0.00597826      -0.00142207      -0.00457619
C        7.41392335       1.39535053       3.74390210       0.01412772       0.00500515       0.00138669
C        6.21122864       3.53336105       3.75828596       0.00193466      -0.00494072       0.00011611
C        4.98442992       5.69100948       3.79235267      -0.00741836      -0.00320144      -0.00644042
C        3.71037805       7.76444049       3.78860001      -0.00690394      -0.00340233      -0.01651299
C        2.46028977       9.91342478       3.75732465      -0.00546128       0.00369238      -0.00764587
C        9.87369010       1.39962382       3.74270870      -0.00692732       0.00892341      -0.00145145
C        8.64185898       3.54595716       3.73424412       0.00411309      -0.00241384       0.00485647
C        7.42329892       5.69719057       3.74425395      -0.00111898      -0.00246304       0.00499277
C        6.18730851       7.84703001       3.75769477       0.00832791      -0.00302808       0.00487588
C        4.93815087       9.95636075       3.75353985      -0.00438908      -0.00403962       0.00620007
Zn       2.49615720       4.97452765       3.82194674      -0.01350386      -0.00287152      -0.01059558
