49
Lattice="12.336457 0.0 0.0 -6.168228499999997 10.683685154694365 0.0 0.0 0.0 15.0" Properties=species:S:1:pos:R:3:forces:R:3 energy=-422.3951201164065 free_energy=-422.3951201164065 stress="-0.004927888955157743 0.0004199706707853898 1.8197470779725735e-05 0.0004199706707853898 -0.0033844688431714613 -1.8025771045982295e-05 1.8197470779725735e-05 -1.8025771045982295e-05 3.779745259498076e-07" pbc="T T T"
C        0.00390709      -0.01513790       3.95254103       0.00100343       0.00294615      -0.00080998
C       -1.23481334       2.12095406       3.78412581       0.00005902      -0.00331199      -0.00047099
C       -2.46907848       4.26696976       4.02809562      -0.00527482      -0.00447399      -0.00641763
C       -3.69102636       6.41088679       4.21400309      -0.00198277      -0.00355830       0.00559535
C       -4.92390071       8.55113162       4.16949622       0.00294770       0.00743824       0.00583223
C        2.47233916      -0.00596638       3.93231178      -0.00693619      -0.00317536      -0.00664328
C        1.21005111       2.00570310       3.29895693      -0.00290505       0.00183696      -0.00312666
C       -0.21015378       4.30137899       3.16085895       0.00488136       0.00341849       0.00528024
C       -1.28491130       6.42497575       3.74888118      -0.00156181       0.00837294       0.00399818
C       -2.45654818       8.54557677       4.09882999      -0.00208757       0.01478489      -0.01249369
C        4.93851946      -0.00234364       4.02600163       0.00423206      -0.00439493      -0.00981134
C        3.74036136       2.03918321       3.40987459      -0.00735824      -0.01041018      -0.00699619
S        0.95209962       6.66605622       2.23058930      -0.00667014      -0.00094350       0.00264360
C       -0.01486424       8.56233054       3.80952370       0.00398492      -0.00371296       0.00511868
C        7.41420068      -0.01399764       4.03972956      -0.00263789      -0.00300542      -0.00378287
C        6.19196270       2.12247793       3.95505847       0.00046465       0.00013192      -0.01208106
C        5.08595052       4.29800781       3.53952096       0.00372888      -0.00478627       0.00840190
C        3.80734241       6.42601270       3.52299437       0.00679948      -0.00604634       0.00614269
C        2.45947675       8.53895688       3.68648698       0.00079586       0.00437820      -0.01680199
C        9.87635578      -0.01908975       4.00006210       0.00293960       0.00405312      -0.00729142
C        8.65162447       2.12419623       4.10949574      -0.00342738       0.00225857      -0.00791984
C        7.42926250       4.26811100       4.16526940      -0.00276702       0.00424578      -0.00292947
C        6.20520793       6.41786145       4.09395792      -0.00554662       0.00014845      -0.00244102
C        4.94191297       8.52983536       3.97752620       0.00238227       0.00180358      -0.00479405
C       -0.00633363       1.39622982       3.69740159       0.00065192      -0.00076689       0.00514071
C       -1.27860110       3.54626840       3.69720581       0.00205504      -0.00144491       0.01162948
C       -2.47432382       5.69398403       4.05401802      -0.00128036      -0.00374839       0.00504489
C       -3.69388888       7.83581285       4.19249194       0.00254251       0.00557045       0.00706658
C       -4.92645891       9.97099813       4.04160455      -0.00136685       0.00496876       0.00284898
C        2.47445854       1.38091463       3.53958703      -0.00756549      -0.00778934      -0.00767155
S        1.03847283       3.42176824       2.28851523       0.01380004      -0.00765404      -0.00420398
C       -0.21755922       5.70719356       3.17155190       0.00882524       0.00363588       0.01283333
C       -1.24399012       7.84342245       3.87899430      -0.00190093       0.00946381       0.00437972
C       -2.46287242       9.97435612       4.05298806      -0.00332207       0.00976586      -0.00561305
C        4.94970826       1.41150534       3.83368856       0.00291473      -0.00783045      -0.01523458
P        4.00374817       3.47851958       2.39844261       0.00796053      -0.00110881      -0.00438717
C        1.19916611       7.95264420       3.39381037      -0.00320200      -0.00318780       0.00669494
C        0.00510161       9.97263703       4.02155460       0.00154846      -0.00715617       0.00396066
C        7.41544072       1.41358052       4.08778054      -0.00301447      -0.00134568       0.00331320
C        6.21994067       3.55134151       3.93532278       0.00009026       0.00393856       0.00207442
C        5.00252549       5.72258939       3.74104238      -0.00321936      -0.00710642       0.01172091
C        3.71247963       7.79684585       3.72399617       0.00328711      -0.00039510      -0.00386200
C        2.47220759       9.95225095       3.95202511       0.00082134       0.00115513       0.00105143
C        9.88739188       1.41247349       4.00488986       0.00026449       0.00297681       0.00172844
C        8.64956103       3.54889883       4.16177677      -0.00482628       0.00097072       0.00907479
C        7.42097696       5.69498350       4.20345964      -0.00720337      -0.00163528       0.01178096
C        6.17856547       7.83579501       4.11594847       0.00176196       0.00174478      -0.00069404
C        4.93851083       9.95008079       3.99785644       0.00392155       0.00332365       0.00487398
Zn       2.51788753       5.14938402       2.81457532       0.00139227      -0.00434320      -0.00175242
