49
Lattice="12.336457 0.0 0.0 -6.168228499999997 10.683685154694365 0.0 0.0 0.0 15.0" Properties=species:S:1:pos:R:3:forces:R:3 energy=-421.33977468236554 free_energy=-421.33977468236554 stress="-0.0024038393350557397 0.0031831167422404286 -1.359845085444698e-05 0.0031831167422404286 -0.004689555298609604 5.4820944050578154e-06 -1.359845085444698e-05 5.4820944050578154e-06 1.707094356134221e-06" pbc="T T T"
C       -0.01083655      -0.01868943       3.73730704       0.00360928       0.00003066       0.00796263
C       -1.21012361       2.14732848       3.91710850      -0.00610690       0.00572078      -0.00678037
C       -2.48701702       4.27207962       4.04439955      -0.00155906       0.00495678      -0.00252960
C       -3.73228061       6.39665119       3.88564307       0.00939144       0.00517650      -0.01202535
C       -4.97640704       8.51377744       3.71142976       0.00035022      -0.00752891      -0.00172746
C        2.45482657      -0.05284781       3.61245910       0.00051477      -0.00239585      -0.00753215
C        1.26045565       2.04885108       3.58491822       0.00222351      -0.00299139       0.00582664
C       -0.07037074       4.34191629       4.24506233       0.00132018      -0.00232658       0.00738632
C       -1.31556748       6.44075684       4.27970194       0.00129455      -0.00384643       0.00654905
C       -2.51001963       8.53748432       3.93443786       0.00071753       0.00032345      -0.00048047
C        4.92463596      -0.02700706       3.71599121      -0.00443754       0.00215767      -0.01291076
C        3.72406334       1.98974503       3.06558970       0.00588110       0.00416174       0.00239428
C        1.13756353       6.48099948       4.58187001       0.00109727       0.00547009       0.01104918
C       -0.04983174       8.56307336       4.13959749      -0.00524248       0.00338250      -0.01531935
C        7.39120958      -0.00513585       3.89531732       0.00215177       0.00380882      -0.00334467
C        6.19115909       2.09548750       3.44226821      -0.00399316       0.00682910      -0.00566993
C        5.12703259       4.23779899       2.83022044      -0.00282618      -0.00680560      -0.00663753
S        3.49694732       6.35180601       2.78639337      -0.01359017       0.01049653       0.00526428
C        2.44868106       8.54556350       4.00851685       0.00451134      -0.00594830      -0.00555185
C        9.86810061      -0.00275403       3.87383272       0.00309277       0.00279917       0.00494959
C        8.64319970       2.12878686       3.83181591       0.00639025      -0.00925589       0.00775982
C        7.42362758       4.25104508       3.61200501       0.00350486      -0.00272704       0.00318155
C        6.18380074       6.38893211       3.40540437      -0.00681749      -0.00812071       0.00577252
C        4.90736413       8.52976051       3.63366096       0.00253486       0.00773941      -0.00539921
C        0.01204550       1.42174797       3.77333205      -0.00789813       0.00323415      -0.01132496
C       -1.23821601       3.56500451       4.08548079      -0.00427673       0.00558985      -0.00785116
C       -2.50990703       5.69745615       4.09424564       0.00173372       0.00576355      -0.00536323
C       -3.73845160       7.81651970       3.85078031       0.00537298      -0.00032784       0.00052876
C       -4.96062185       9.94093074       3.69744379       0.00087301      -0.00691693       0.00192684
C        2.47655255       1.34692746       3.38375285       0.00553412      -0.00354084      -0.00686933
S        1.43483441       3.74263828       3.71023186       0.00297818       0.00243497      -0.00977374
C       -0.06620598       5.75419722       4.45420962      -0.00709251      -0.00683907       0.01560704
C       -1.28654278       7.85186833       4.14694308      -0.00306227      -0.00168967      -0.00060093
C       -2.48108892       9.94189683       3.75019116       0.00044696       0.00244021       0.00100780
C        4.95060196       1.37421035       3.39753174      -0.00154868       0.00898228      -0.00105715
S        3.78584415       3.41051073       2.06741857      -0.00544963      -0.00017567       0.00599979
C        1.19848416       7.83610582       4.26023229       0.00028778      -0.00090315       0.00800851
C       -0.01949764       9.96586974       3.92648523      -0.00394375       0.00759313      -0.00131880
C        7.40130995       1.41062967       3.73144622      -0.00229508       0.00425253       0.01112808
C        6.23839624       3.50957189       3.29312260      -0.00973185       0.00375000      -0.00022499
C        5.07072413       5.63195149       2.98833068       0.00048266      -0.00813732       0.00027662
C        3.64032442       7.87784389       3.61678989       0.00295387      -0.01188623       0.00006851
C        2.46061902       9.97527529       3.95755461       0.00561516       0.00096397       0.00291814
C        9.88760247       1.43064641       3.89347558       0.00410313      -0.00315840       0.00792077
C        8.63946085       3.55009829       3.84574866       0.01026909      -0.00902516      -0.00607110
C        7.40457035       5.67460944       3.63833785      -0.00016309      -0.00152517       0.01014891
C        6.13243046       7.80688266       3.56838007      -0.00355630       0.00008401       0.00190534
C        4.91989856       9.95821703       3.77695649       0.00254204       0.00647400       0.00861588
Zn       2.70401292       5.53152974       5.27134697       0.00181263      -0.00854368      -0.00779278
