50
Lattice="12.336457 0.0 0.0 -6.168228499999997 10.683685154694365 0.0 0.0 0.0 15.0" Properties=species:S:1:pos:R:3:forces:R:3 energy=-436.0766171726369 free_energy=-436.0766171726369 stress="-0.0038016879382134503 2.9921732362361064e-06 6.803626990942066e-06 2.9921732362361064e-06 -0.004574475602095456 5.720021781364175e-06 6.803626990942066e-06 5.720021781364175e-06 -2.2486175088902036e-06" pbc="T T T"
C       -0.00064340      -0.01037570       3.84017110      -0.00556990      -0.00124172       0.00402571
C       -1.23671043       2.12478916       3.94772282       0.00559515      -0.00033847       0.00130496
C       -2.47118671       4.26232931       3.96397676      -0.00040465       0.00687987      -0.00085514
C       -3.70297618       6.40138437       3.90946217      -0.00218808       0.00153201      -0.00563360
C       -4.94319664       8.53078591       3.79795189       0.00115778      -0.00026902      -0.00778493
C        2.46556730      -0.02413820       3.89892759       0.00081543       0.00052201       0.00399502
C        1.23402859       2.10752547       3.96933405       0.00251566      -0.00088755       0.00637974
C       -0.00525877       4.26420486       3.85638732      -0.00173430      -0.00505062       0.00088243
C       -1.25648054       6.40256048       3.70081905      -0.00441447      -0.00104038       0.00077480
C       -2.46141522       8.53002668       3.79615986      -0.00086627      -0.00149905      -0.01061517
C        4.93203378      -0.01176017       3.83911419       0.00376213       0.00117231      -0.00632777
C        3.69683976       2.10562991       3.96723251      -0.00282525       0.00186532       0.00149080
C        2.46568941       4.21091669       4.18348044       0.00284263       0.00235362      -0.00070690
S        1.04522662       6.35186563       2.36724913       0.00578233       0.01679282       0.00328931
C       -0.01476316       8.55344119       3.50160733      -0.00611831      -0.00309399      -0.00314037
C        7.39753403       0.00468775       3.72349094       0.00071356      -0.00218639       0.00431398
C        6.16695259       2.12416054       3.93914622      -0.00229291       0.00166119       0.00303719
C        4.93507551       4.26301997       3.85305875       0.00078883      -0.00118956       0.00270144
S        3.90195333       6.36209024       2.35185687       0.00754612       0.00405660      -0.00825969
C        2.46522794       8.59607016       3.24211909      -0.00193556      -0.00011227      -0.00729155
C        9.86937730       0.00486492       3.72939216      -0.00171881       0.00173966      -0.00447615
C        8.63319372       2.12824513       3.93065898       0.00166827       0.00399163       0.00583752
C        7.40130401       4.26242723       3.95944140      -0.00025380       0.00406410       0.00216963
C        6.18639304       6.40431698       3.70723673       0.00276203      -0.00590917       0.00207302
C        4.94596309       8.55446059       3.51013620       0.00326404      -0.00589749      -0.00069224
C       -0.00078561       1.41056208       3.92478232       0.00334509      -0.00121853      -0.00112037
C       -1.23983026       3.55036107       3.95490854      -0.00234868      -0.00080544      -0.00283663
C       -2.47424494       5.68583238       3.90378483      -0.00366258       0.00522581       0.00158107
C       -3.70250244       7.82058849       3.84568058      -0.00087821      -0.00057578       0.00161417
C       -4.93814573       9.95740793       3.84650011      -0.00260448       0.00189554       0.00028645
C        2.46518523       1.39975129       3.95805606      -0.00015766       0.00125847      -0.00749431
C        1.24864212       3.55153546       3.99735677       0.00705789      -0.00068402       0.00139051
C       -0.07742168       5.64058527       3.50074328      -0.00710164      -0.00446072       0.01311368
C       -1.23623122       7.82312430       3.64101608      -0.00353882      -0.00205423      -0.00303245
C       -2.46706272       9.95672382       3.84682616       0.00310652      -0.00009082      -0.00635745
C        4.93173104       1.40910204       3.92147925      -0.00282938       0.00248943      -0.00759455
C        3.68224045       3.54891508       3.99551921      -0.00095494       0.00024355       0.00071674
C        1.20511174       7.91203604       3.16996293      -0.00599569      -0.00308805       0.00176030
C       -0.00455218       9.97493172       3.69937087       0.00262184      -0.00396945       0.00303741
C        7.39857071       1.41922181       3.88148561      -0.00020897       0.00004087       0.01175016
C        6.17019042       3.54978156       3.94574851       0.00004224       0.00286433       0.00298892
C        5.00293909       5.64586298       3.51211873       0.00280392      -0.00368876       0.00688551
C        3.72637797       7.90959708       3.18140141       0.00157283      -0.00583820      -0.00110170
C        2.46546164       9.99661736       3.57266393      -0.00081942      -0.00272972      -0.00010268
C        9.86803114       1.41925239       3.88863499       0.00361291       0.00269762       0.00055249
C        8.63315405       3.54910345       3.98357959       0.00072457       0.00705998      -0.01026541
C        7.40431544       5.68636507       3.90429467       0.00148053      -0.00006839       0.00223018
C        6.16732185       7.82445420       3.64745245       0.00446813      -0.00657766       0.00105860
C        4.93561590       9.97599307       3.70477151      -0.00527719      -0.00425844       0.00542090
Zn       2.50443819       6.05347093       4.79638728      -0.00335044      -0.00158284      -0.00097361
