49
Lattice="12.336457 0.0 0.0 -6.168228499999997 10.683685154694365 0.0 0.0 0.0 15.0" Properties=species:S:1:pos:R:3:forces:R:3 energy=-423.16864303610225 free_energy=-423.16864303610225 stress="-0.003482821085919024 0.001711399998987292 -4.125209917341291e-06 0.001711399998987292 -0.006108681065226029 1.797447714376842e-05 -4.125209917341291e-06 1.797447714376842e-05 -1.5505845580652064e-06" pbc="T T T"
C       -0.00829060      -0.03862965       3.69815239       0.00050079      -0.00701043      -0.00473107
C       -1.22234119       2.12732772       3.69346188      -0.00090139       0.00314329       0.00520938
C       -2.45194826       4.26104061       3.77794913       0.00731318       0.00536726      -0.00139812
C       -3.69636127       6.38926505       3.68993857      -0.00247464       0.00413525       0.00488601
C       -4.95374872       8.50571781       3.63160238      -0.00483611      -0.01200148       0.00651276
C        2.45431154      -0.07364363       3.86467832       0.00872766      -0.00053854       0.00251498
C        1.25528931       2.03528945       3.56991003      -0.00304266       0.00940822       0.00174901
C        0.00445498       4.33287760       3.72660485       0.00053492      -0.00110550      -0.00036095
C       -1.25440907       6.41633528       3.91353298       0.00093385       0.00334228      -0.00402786
C       -2.47950711       8.51814977       3.87515723       0.00009889      -0.00263660      -0.00296267
C        4.93021373      -0.02773814       3.98421940       0.00059438       0.00863384       0.00147504
C        3.67877991       2.04511543       4.04987901       0.00431303      -0.00360781      -0.00437673
N        1.12532870       6.46669580       4.28736484       0.00169589      -0.01047877       0.00506146
C       -0.01348633       8.53397430       3.96672582      -0.00161771       0.00237657      -0.00092983
C        7.40296215      -0.01326705       3.94023248      -0.00147020      -0.01158356       0.00314868
C        6.17208300       2.12391383       3.89915146       0.00173509       0.00519238      -0.00596970
C        4.99797692       4.28724312       3.44173348      -0.01523490       0.00277672      -0.00658798
S        3.61087535       6.41819615       2.42312791       0.00414250      -0.00832096      -0.00348667
C        2.45172887       8.51757091       3.77646323       0.00170550       0.00235175       0.00274106
C        9.86683553      -0.01956850       3.77155332       0.00111329       0.00819794       0.00368300
C        8.64560936       2.12119534       3.81979168      -0.00561595      -0.00901764       0.00224015
C        7.42391985       4.24999740       3.64866137       0.00757385       0.00646215       0.00177200
C        6.21039020       6.39556947       3.29279630      -0.00115801       0.00050364       0.00083402
C        4.92135010       8.52409866       3.48614589      -0.00282909       0.00050954       0.00060468
C        0.00018960       1.39210216       3.65289628      -0.00218318      -0.00092443      -0.00200203
C       -1.20549520       3.56338168       3.73850390       0.00224688       0.00098259       0.00661088
C       -2.46614738       5.68337724       3.80175789      -0.00027820       0.00787725       0.00668347
C       -3.70971995       7.80595106       3.72747390      -0.00150405      -0.00340444       0.00337300
C       -4.95177260       9.92192190       3.73458523       0.00634714      -0.01084422       0.00116487
C        2.45800688       1.33485825       3.85670611      -0.00016173       0.00262382       0.00485161
P        1.46645354       3.66961681       2.93744994      -0.00926520       0.01484733      -0.00360658
C       -0.01762834       5.73853991       3.98601254      -0.00243810      -0.00174677      -0.01184768
C       -1.24657263       7.82332013       3.93954807       0.00004464       0.00289444      -0.00048134
C       -2.47129444       9.93241233       3.92825097       0.00806192      -0.00106682       0.00184725
C        4.93640772       1.39997476       4.00335974       0.00556162       0.00681279      -0.00597146
P        3.48764954       3.77591323       4.19627288       0.00514027      -0.01191007       0.00101242
C        1.20541954       7.80890302       4.00209749      -0.00015378      -0.00707529       0.00119576
C       -0.00143683       9.95634465       3.96787957      -0.00686423       0.00276586       0.00188704
C        7.40496023       1.41392261       3.90164251      -0.00592693      -0.01500292      -0.00601535
C        6.19246967       3.53524697       3.67626907       0.00017824       0.01075383      -0.00472175
C        5.05055803       5.64169338       3.04246042       0.00261614       0.00026559      -0.00054377
C        3.65829837       7.88374064       3.35835447       0.00028262       0.00872980      -0.00387234
C        2.46300289       9.95197074       3.85500701       0.00572455       0.00144623       0.00643567
C        9.88082015       1.41328389       3.77494532      -0.00134811       0.00587841       0.00529926
C        8.65425144       3.54419192       3.75877069       0.00899443      -0.00329709       0.00235626
C        7.42566946       5.67295965       3.53680893      -0.00024337       0.00742251      -0.00391934
C        6.16030137       7.80935831       3.42402769      -0.00791779      -0.00513334      -0.00147435
C        4.92495673       9.94457916       3.67424967      -0.00390850       0.00191004      -0.00137251
Zn       2.50602855       5.46425797       5.25055531      -0.00480745      -0.01090463      -0.00448968
