49
Lattice="12.336457 0.0 0.0 -6.168228499999997 10.683685154694365 0.0 0.0 0.0 15.0" Properties=species:S:1:pos:R:3:forces:R:3 energy=-423.15783997733934 free_energy=-423.15783997733934 stress="-0.007406176684290118 -0.0012404432900634229 9.542959904943197e-06 -0.0012404432900634229 -0.005454621415188792 6.365505367785384e-06 9.542959904943197e-06 6.365505367785384e-06 -1.4374421567408921e-06" pbc="T T T"
C       -0.00072043      -0.00729885       3.98617079      -0.00191293      -0.00271139      -0.00554569
C       -1.25803030       2.12014019       4.13157249       0.00383515      -0.00672820       0.00192967
C       -2.49823453       4.26596254       3.95888302       0.00417467      -0.00328837      -0.00352513
C       -3.69783549       6.41227717       3.82774234      -0.00158676      -0.00038906       0.00672769
C       -4.92202607       8.55246809       3.85622086      -0.00016973       0.00316760       0.00640794
C        2.47556822      -0.01719786       3.90127568      -0.00607158      -0.00041576      -0.00060535
C        1.24526779       2.07961090       4.25003599      -0.00913723      -0.00511469      -0.00717692
C       -0.08245489       4.30026924       4.16051631      -0.00965328       0.00506946      -0.00256570
C       -1.26977345       6.40794421       3.71426950       0.00065058       0.00219395       0.00947719
C       -2.46014811       8.53996258       3.76405216       0.00676235       0.00018949      -0.00155503
C        4.93841361      -0.01209894       3.71786173      -0.00256820       0.00023801       0.00622349
C        3.67772693       2.06340486       3.52624673       0.00313511      -0.00126923       0.00119708
P        1.12292141       6.28914340       2.51506726       0.00775077      -0.00191223       0.00077682
C       -0.00022193       8.54134126       3.54001405      -0.00000706       0.00405622       0.01081174
C        7.40222320      -0.00984615       3.70126885       0.00466832       0.00187216       0.00804739
C        6.16012137       2.13591623       3.60103602       0.00062735       0.00516970      -0.00230221
C        5.01481881       4.33111941       3.32032174       0.00079703       0.00185735       0.00582256
N        3.82282791       6.46196923       3.60357195      -0.00317397      -0.00353211      -0.00124890
C        2.48096167       8.53217035       3.53780318      -0.00148208      -0.00949597       0.00721994
C        9.86215174      -0.01200100       3.86066163       0.00662008       0.00196943       0.00239417
C        8.62197807       2.12738483       3.86434941       0.00056489       0.00643243       0.00532605
C        7.40267561       4.27563139       3.74272455      -0.00150354       0.00170794      -0.00172584
C        6.21212811       6.44211087       3.67945757      -0.00296399       0.00014743      -0.00720196
C        4.95541593       8.55403115       3.74318271       0.00075033      -0.00061786       0.00505673
C       -0.00821547       1.41181389       4.14445396      -0.00284854      -0.00951606       0.00125729
C       -1.28231964       3.54587917       4.12062043       0.00328068      -0.00640339      -0.00491374
C       -2.48734033       5.69061441       3.85750546       0.00090037      -0.00114857       0.00778813
C       -3.69310005       7.83477168       3.82354070       0.00319424       0.00303931       0.00142608
C       -4.93068624       9.96893330       3.93524503      -0.00622203       0.00267593      -0.01699840
C        2.46945940       1.40877960       3.92111553      -0.00534569      -0.00055459      -0.00415774
P        1.26534319       3.63447088       5.10799124      -0.00406571      -0.00441460       0.01311498
C       -0.07378856       5.65095947       3.66230007      -0.00564203       0.00464102       0.00493085
C       -1.23949317       7.82963288       3.63551715       0.00467226       0.00031052      -0.00679419
C       -2.46246371       9.96297492       3.79057291      -0.00298164      -0.00073147       0.00021393
C        4.93207359       1.41703897       3.62186795       0.00241902      -0.00062235      -0.00674261
S        3.63598072       3.52755506       2.57490706       0.00007471       0.00100654      -0.00373695
C        1.24031173       7.87283202       3.32024134      -0.00681928      -0.00196404       0.00896194
C        0.00401927       9.96358575       3.66210796       0.00005892       0.00549725      -0.00483170
C        7.38755102       1.42251528       3.73187697       0.00146472       0.00626445      -0.00579244
C        6.17234893       3.56692858       3.55534027      -0.00099707       0.00405618       0.00457039
C        4.99840681       5.75420555       3.51158002      -0.00235032      -0.00041408      -0.00221467
C        3.74345096       7.82223397       3.61216713       0.00134709      -0.00378234      -0.00581891
C        2.47154263       9.95716070       3.71166753       0.00710752      -0.00315056      -0.00387832
C        9.85503075       1.41153702       3.96800001       0.00279107       0.00290947      -0.00228882
C        8.61878241       3.55264141       3.87442896       0.00127622       0.00393098      -0.01160882
C        7.41568542       5.70026887       3.76359019      -0.00340139      -0.00043615      -0.00119848
C        6.18669481       7.85351352       3.77365292       0.00049460       0.00120359      -0.00521993
C        4.93638279       9.97033616       3.86851158       0.00346911      -0.00082936       0.00227639
Zn       2.51598090       5.07295096       3.90161066       0.00801688      -0.00016395      -0.00231000
