50
Lattice="12.336457 0.0 0.0 -6.168228499999997 10.683685154694365 0.0 0.0 0.0 15.0" Properties=species:S:1:pos:R:3:forces:R:3 energy=-443.9844612523343 free_energy=-443.9844612523343 stress="-0.0006594516025266771 -9.493512513530123e-05 1.179387866569156e-05 -9.493512513530123e-05 -0.0005465973704150312 5.451898884182123e-06 1.179387866569156e-05 5.451898884182123e-06 -3.992912711738887e-07" pbc="T T T"
C       -0.00467726       0.00037836       3.59678952       0.00468292      -0.00538938       0.00354544
C       -1.23061760       2.14086781       3.73070916      -0.01279079      -0.00127833      -0.00881411
C       -2.46065171       4.27157446       3.73098013      -0.01200159      -0.00843009      -0.00888383
C       -3.70160272       6.40353885       3.59668104      -0.00239857       0.00772317      -0.00404154
C       -4.94515084       8.53934416       3.53965503       0.00639917       0.00139061      -0.00327010
C        2.46345550      -0.00158820       3.55275779       0.00803130      -0.00026422      -0.00871360
C        1.23371686       2.12557604       3.72579546      -0.00192425       0.00220205      -0.00194744
C        0.02558633       4.28682803       3.96718266       0.00239118       0.00057191      -0.00458114
C       -1.24209198       6.41376803       3.72641692       0.00046138      -0.00785345      -0.00299902
C       -2.46920361       8.54224637       3.55130781       0.00273691       0.00071647      -0.00402436
C        4.93421332      -0.00240091       3.56304698      -0.00407692       0.00200202       0.00166560
C        3.69614491       2.12735525       3.67004524       0.00046888       0.00814863       0.00479683
N        2.47519961       4.08005509       4.24699219      -0.00019784      -0.00448792       0.00445522
N        1.07063631       6.51145602       4.25051774       0.00709996      -0.00165064       0.00328065
C       -0.00873685       8.54440260       3.67134134       0.00290222       0.00262384      -0.00466538
C        7.40520755      -0.00944107       3.65353672       0.00324864       0.01085853       0.00570732
C        6.16333775       2.14143989       3.65390223       0.00839296      -0.00170388       0.00771249
C        4.90107475       4.30022919       3.83462895       0.00229780      -0.00405717       0.00167337
O        3.84905174       6.49388363       4.07838692      -0.00644603      -0.00320744      -0.00496336
C        2.47526696       8.50192514       3.83480946      -0.00234896       0.00182180       0.00881270
C        9.86332632      -0.00822372       3.67195385      -0.00279703       0.00226876      -0.00406818
C        8.63461372       2.13470082       3.67919258       0.00052978      -0.00302701       0.01509127
C        7.39301610       4.26993906       3.67275948       0.00553314      -0.00121210      -0.00442970
C        6.16891190       6.40790517       3.63413317      -0.00449331      -0.00228907       0.00520851
C        4.93430817       8.54625597       3.63547029      -0.00080283      -0.00196180       0.00291299
C       -0.00352724       1.42544268       3.67550744      -0.00741601      -0.00161905      -0.00661883
C       -1.21127110       3.57241490       3.81018964      -0.00754419      -0.00000915      -0.01781752
C       -2.46677656       5.69202616       3.67466313      -0.00830765      -0.00569230       0.00123475
C       -3.70379961       7.82771596       3.54894271       0.00516960       0.00657407      -0.00061733
C       -4.94073587       9.97016996       3.55043505       0.01041359      -0.00214897      -0.00688091
C        2.46291015       1.42073780       3.63382482       0.00288622       0.00133638       0.00600888
C        1.25382113       3.52512077       3.98231322       0.00279864       0.00215483       0.00269644
C       -0.02043364       5.73138562       3.98462903       0.00696854      -0.00130377      -0.00317919
C       -1.23767491       7.83050928       3.63376570       0.00124632      -0.00117307       0.00842249
C       -2.46803069       9.96947915       3.54032294       0.00113367      -0.00278996      -0.01607005
C        4.93459217       1.42270166       3.60850337       0.00098440       0.00332166       0.00276779
C        3.67442154       3.52345072       3.90706221      -0.00240712       0.00750947      -0.00393944
C        1.18938759       7.82766241       3.90868831       0.00055043      -0.00205185      -0.00280945
C        0.00042474       9.96894831       3.60772599       0.00045426       0.00977064       0.01023312
C        7.40047538       1.42191333       3.64973191       0.00896179       0.00338673       0.00584322
C        6.14627705       3.57189048       3.71028305       0.00889459      -0.00403614       0.00246964
C        4.98574392       5.70883259       3.82664038      -0.00227102      -0.00688116       0.00820225
C        3.73739903       7.87107879       3.82828426      -0.00333792       0.00138666       0.00358537
C        2.46730157       9.94455933       3.70986133      -0.00147511       0.00635573       0.00224515
C        9.86952526       1.42512517       3.68734340      -0.00808703      -0.00189901       0.00185919
C        8.63758409       3.55892885       3.68886756      -0.00499700      -0.00892834      -0.00568313
C        7.40545190       5.68766392       3.62135302       0.00020864       0.00401882       0.00610290
C        6.16778593       7.83287846       3.58438453       0.00322613       0.00132566      -0.00230922
C        4.92903428       9.97722678       3.62162748      -0.00029786      -0.00000483       0.00537092
Zn       2.48405784       5.70482688       5.24671610      -0.01265405      -0.00211835      -0.00057762
