50
Lattice="12.336457 0.0 0.0 -6.168228499999997 10.683685154694365 0.0 0.0 0.0 15.0" Properties=species:S:1:pos:R:3:forces:R:3 energy=-436.83663679017025 free_energy=-436.83663679017025 stress="-0.000977930079701826 -0.00037959464539843497 3.7759103907679594e-06 -0.00037959464539843497 -0.005466700851242149 -7.3033229910005625e-06 3.7759103907679594e-06 -7.3033229910005625e-06 3.4949356715416493e-06" pbc="T T T"
C        0.00813614      -0.01738042       3.85753573      -0.00097316       0.01024022       0.00066928
C       -1.22040722       2.12629371       3.93606037      -0.00273234       0.00438909       0.00983211
C       -2.45444585       4.26348267       3.93910337       0.00347774      -0.00440057      -0.01020110
C       -3.69083216       6.39513934       3.88588139       0.00910664      -0.00022282       0.00805012
C       -4.93814540       8.52170943       3.79753823      -0.00735796       0.00829910       0.00293383
C        2.47358503      -0.03045795       3.95485205       0.00862065       0.00511737       0.00517126
C        1.24690700       2.09328590       3.97494459       0.00132731      -0.00832560       0.00143421
C        0.02552864       4.24045280       3.78166364      -0.00229781       0.00028238      -0.00404822
C       -1.22336852       6.39668293       3.71211614       0.00031910       0.00199489       0.00713433
C       -2.45700162       8.52783610       3.85014776       0.00054845      -0.00063426      -0.00016404
C        4.94422860      -0.01575539       3.93588072      -0.00934114       0.00210248      -0.00988608
C        3.69916282       2.10617527       4.02907842       0.00634060      -0.00049299       0.00641093
N        2.46458308       4.14753624       4.07595026      -0.00505195       0.01308265       0.01043388
P        0.94442186       6.46506151       2.16782062      -0.00008047      -0.00740121      -0.00406553
C        0.00015465       8.55740570       3.59308034      -0.00354312       0.00450725      -0.00135003
C        7.40635629       0.01596037       3.79770829      -0.00780832      -0.00216046      -0.00797034
C        6.17032246       2.12974063       4.02060504      -0.00171419      -0.00306324      -0.00726657
C        4.91687642       4.25931342       3.87433431      -0.00082848      -0.00436031       0.00608381
S        3.80238071       6.34921806       2.39709488       0.00462595      -0.00376098       0.01147069
C        2.48259982       8.63866448       3.24823531       0.00205333      -0.00293909       0.01076395
C        9.88141491       0.01655623       3.75018090       0.00451560      -0.00418387      -0.00754863
C        8.64360600       2.13634544       3.96438586       0.00002742       0.00261236       0.00398969
C        7.40370589       4.26548397       3.97625646       0.00007733       0.00260516      -0.00022478
C        6.17435561       6.39429256       3.69155959      -0.00360215      -0.01267199       0.00079445
C        4.95528904       8.56234797       3.49502968       0.00837323      -0.00421666      -0.00472965
C        0.00748538       1.40234383       3.93281503      -0.00473060       0.00609932      -0.00148701
C       -1.21520499       3.54757454       3.91259357       0.00221705       0.00124997      -0.00670541
C       -2.45348723       5.68485472       3.88307906       0.00610718      -0.00668656      -0.00126897
C       -3.69436212       7.81563160       3.85100211      -0.00305973       0.00476078       0.01246192
C       -4.93122095       9.94720459       3.87021701       0.00160426       0.01568979       0.00512306
C        2.47357864       1.39102495       4.00726357       0.00886093       0.00113416       0.00155404
C        1.26253022       3.50565118       3.93938860      -0.00797079      -0.01032573       0.00277190
C        0.00211666       5.65949904       3.50164335       0.00090466       0.01112832      -0.00542514
C       -1.22048245       7.82382845       3.71582873       0.00110062       0.00098393       0.00349200
C       -2.45688132       9.94911632       3.92274029       0.00050636      -0.00181092      -0.00165709
C        4.94108450       1.40779477       4.01224025      -0.00102425      -0.00191185      -0.00843964
C        3.67492123       3.52407979       3.99475564       0.00750190      -0.00505205       0.00075151
C        1.23261404       7.89359200       3.23681384      -0.00096880      -0.00013071       0.00528739
C        0.00874086       9.97412487       3.79517049      -0.01183941       0.00394814      -0.00331287
C        7.40701034       1.42644204       3.95296143      -0.00147566      -0.00147555      -0.00369966
C        6.16465310       3.55335101       3.99861656      -0.00099303      -0.00138979      -0.00399924
C        4.98466696       5.63514856       3.53010557      -0.01633420       0.00100822      -0.00798842
C        3.72903179       7.95235749       3.15532213       0.00811459       0.00992782      -0.00582583
C        2.47571201      10.01890537       3.60358896      -0.00179678      -0.00157098      -0.01306775
C        9.87991487       1.42751340       3.90533994       0.00082108      -0.00082670       0.00635989
C        8.64517959       3.55673686       3.99141081      -0.00025499       0.00330743      -0.01041135
C        7.40831107       5.68482631       3.88564300       0.00593354      -0.00030553       0.00427269
C        6.16935124       7.81974773       3.63230497      -0.00100350      -0.01355810      -0.00192498
C        4.94474372       9.97942132       3.71047233       0.00658580      -0.00416387       0.00628779
Zn       2.21885785       6.04854423       4.06229811      -0.00288849      -0.00642844      -0.00086643
