49
Lattice="12.336457 0.0 0.0 -6.168228499999997 10.683685154694365 0.0 0.0 0.0 15.0" Properties=species:S:1:pos:R:3:forces:R:3 energy=-434.43385320719335 free_energy=-434.43385320719335 stress="-0.0065430985171510995 0.000500168090357709 -3.064429678404933e-07 0.000500168090357709 0.004199046747016263 2.3884730784146622e-08 -3.064429678404933e-07 2.3884730784146622e-08 1.3727305144758946e-06" pbc="T T T"
C        0.00201509       0.01295616       3.74568234      -0.00221877       0.01358444       0.00668044
C       -1.24791384       2.12280625       3.73712378      -0.00898295      -0.00139552      -0.00386175
C       -2.48285882       4.26939542       3.72349938       0.00378853      -0.00330845       0.00178707
C       -3.70354725       6.42080711       3.73126920       0.00023154      -0.00578724      -0.00691411
C       -4.92899622       8.57110186       3.74572835      -0.00331578       0.00322660      -0.00179798
C        2.46895613       0.06191398       3.75332031       0.00263434       0.00793182      -0.01078961
C        1.20658099       2.20823564       3.76986296       0.00819564       0.00527288      -0.00734589
C       -0.04330655       4.25516888       3.75694160       0.00553408       0.00317396      -0.00227872
C       -1.26982660       6.42229566       3.72529517      -0.00028624       0.00341202       0.00988047
C       -2.47746000       8.57010856       3.73244302      -0.00531874      -0.00161166       0.00800634
C        4.93171986       0.00372387       3.74315252       0.00172354       0.00163606       0.01149045
C        3.73653114       2.13761921       3.76470243       0.00134539       0.00620118       0.00139682
N        1.11787220       6.40924570       3.78922330      -0.00507924       0.00474888      -0.00604659
C       -0.01268990       8.52954624       3.74382856       0.00151159      -0.01657079       0.01014022
C        7.40741717      -0.03898554       3.74901784      -0.00090553       0.00374168       0.00465292
C        6.18541929       2.11961693       3.75001455       0.00755635      -0.00504208      -0.00081707
C        5.01054950       4.26800067       3.76992081      -0.00392788      -0.00377409      -0.00121608
N        3.79961608       6.40039948       3.80400910       0.00522793       0.00463781      -0.00937271
C        2.46552592       8.46848965       3.77252451      -0.00217838       0.00149970       0.00132017
C        9.86330768      -0.03801080       3.74686887       0.00759654      -0.00290027       0.00465854
C        8.63503413       2.11464177       3.73942333       0.00614651       0.00344091      -0.00771612
C        7.41568213       4.27197122       3.74143449      -0.00492247       0.00208793      -0.00140888
C        6.19804820       6.41784645       3.75571962      -0.01048801      -0.00064022      -0.00119668
C        4.94347281       8.52924791       3.76024624      -0.00127227      -0.01060670       0.00483614
C       -0.00316323       1.44310345       3.74721051      -0.00103916       0.01337304       0.01280862
C       -1.26386125       3.54525550       3.73168790       0.00462223      -0.00113076       0.00683746
C       -2.48678800       5.69697361       3.72085305       0.00503913      -0.00538536       0.00703464
C       -3.70356470       7.85185345       3.73666949      -0.00281999      -0.00495155      -0.01065203
C       -4.92669334      10.00600270       3.74800866       0.00082435       0.00814962       0.00600009
C        2.48019625       1.50960283       3.76583291       0.00500100       0.00447778      -0.00364184
N        1.13839229       3.57410629       3.79122586       0.00453117      -0.00094045      -0.00195333
C       -0.05294878       5.71518362       3.75427497      -0.00018411       0.00670806      -0.00050017
C       -1.25254869       7.84631533       3.72947486      -0.00425032       0.00037123       0.00486181
C       -2.47668250      10.00632662       3.74325407      -0.00004875       0.00041172      -0.00450786
C        4.94018376       1.43392800       3.75160278       0.00103048       0.00278896       0.00371674
O        3.81429897       3.54233930       3.77391920      -0.00946627       0.00034557       0.00700088
C        1.20458585       7.77311216       3.77045155       0.00302090      -0.00232552      -0.00698655
C       -0.00081639       9.95499475       3.74408821       0.00058049      -0.01656341       0.00104062
C        7.40179968       1.39800720       3.74707045       0.01119054       0.00186992      -0.01171140
C        6.19153412       3.54707998       3.75335188      -0.00112658      -0.00334865      -0.00233459
C        4.97870631       5.69644993       3.77586420      -0.00452720      -0.00082145       0.00259783
C        3.72506059       7.76372181       3.78157091      -0.00536269      -0.00139500      -0.00782343
C        2.46721769       9.90492603       3.75605078       0.00197738       0.00260147      -0.00369481
C        9.86201590       1.39489569       3.73794422      -0.00419211      -0.00038566       0.00462080
C        8.63276293       3.54673433       3.73202189       0.00021557       0.00264806       0.00129834
C        7.41203986       5.69565460       3.74209792      -0.01212346       0.00130371      -0.00738564
C        6.18175537       7.84185771       3.75427320      -0.00303324      -0.00434282      -0.00365803
C        4.93467318       9.95623296       3.74807411       0.00225220      -0.00882846       0.01021805
Zn       2.45808832       5.02574902       3.86659371       0.00529273      -0.00758888      -0.00727357
