49
Lattice="12.336457 0.0 0.0 -6.168228499999997 10.683685154694365 0.0 0.0 0.0 15.0" Properties=species:S:1:pos:R:3:forces:R:3 energy=-434.8802974437377 free_energy=-434.8802974437377 stress="-0.0030580054354292503 3.5641415328548826e-06 -4.363213115073782e-06 3.5641415328548826e-06 -0.01057847823746914 -9.799379055667246e-06 -4.363213115073782e-06 -9.799379055667246e-06 -1.4183394054095928e-07" pbc="T T T"
C       -0.02153903      -0.01095764       3.60913951      -0.00074944      -0.00011348       0.00128171
C       -1.26164879       2.12888293       3.79849842      -0.00061760      -0.00342758      -0.00490715
C       -2.50545112       4.27522877       3.74664687       0.00316073      -0.00474398       0.00351488
C       -3.72970946       6.40434186       3.66257482       0.00205653      -0.00191069       0.00777952
C       -4.95959352       8.52683816       3.57462263      -0.00162561       0.00194860      -0.00225786
C        2.44898739      -0.04358010       3.65543049       0.00014665      -0.00692924       0.00326353
C        1.21653751       1.99239414       4.14860300      -0.00270006      -0.00062317       0.00594438
C       -0.12063717       4.28048763       4.21831591      -0.00069155       0.00344811       0.00047990
C       -1.25078446       6.41239203       3.80091852       0.00684154       0.00534834       0.00001898
C       -2.47893471       8.52864893       3.60708852       0.00210718       0.00024792      -0.00196663
C        4.91410533      -0.00631986       3.54945948      -0.00483886       0.00489420      -0.00602974
C        3.68068131       2.09332652       3.84870041      -0.00291973       0.00151544      -0.00135300
P        1.58551365       6.32593572       4.32120656      -0.00194370       0.00016901      -0.01121300
C       -0.01262833       8.56444551       3.64043034       0.00132573       0.00055617       0.00003397
C        7.37259108       0.03691377       3.41492275      -0.00511258      -0.00032806      -0.00349852
C        6.13626212       2.14251619       3.55584505      -0.00007436      -0.00952277       0.00139390
C        4.91680011       4.23746779       3.85612904       0.00240933      -0.00010730      -0.00270653
B        3.54411340       6.47034624       3.81605579       0.00461246       0.00050788      -0.00033841
C        2.45239698       8.63838125       3.45334476       0.00580045       0.00248407       0.00939223
C        9.85970546       0.04065008       3.41385104       0.00426773       0.00177351       0.00020511
C        8.61248655       2.15533664       3.52610409      -0.00179428       0.00597994       0.00859170
C        7.36910229       4.27744763       3.64079358      -0.01108577      -0.00201451      -0.00402384
C        6.12632987       6.41202419       3.72104011      -0.00976939      -0.00036584      -0.00646858
C        4.91655184       8.56723297       3.45817126       0.00696136      -0.00289677      -0.00791205
C       -0.03092010       1.39245800       3.85270842      -0.00295195      -0.00232798       0.00231184
C       -1.29301892       3.54308964       3.92666363       0.00512466      -0.00517416      -0.00515493
C       -2.49306480       5.69911406       3.73065569       0.00784594      -0.00182845       0.00756796
C       -3.72123323       7.82168084       3.61237134      -0.00051749       0.00119458       0.00749609
C       -4.95844085       9.94551192       3.59652064      -0.00239813      -0.00004563       0.00334696
C        2.44962716       1.35404711       3.87981708      -0.00333206      -0.00629753       0.00489337
P        1.32731104       3.55303168       4.88790186       0.01363750       0.00912985       0.01013664
C       -0.05159131       5.66676575       4.03124500      -0.00056080       0.00388754       0.00142935
C       -1.24402555       7.83047556       3.68692781       0.00397695       0.00169030      -0.00944751
C       -2.48173180       9.94649690       3.58452559       0.00170194      -0.00108942      -0.00312250
C        4.90984926       1.41424860       3.61447986      -0.00333771       0.00192985      -0.00083900
C        3.73667842       3.47803859       4.04006843       0.00587533       0.00196293      -0.00596907
C        1.25234195       7.94573789       3.73527862       0.00139512      -0.00197043      -0.00615847
C       -0.02100527       9.98662903       3.50139018      -0.00645487       0.00237670       0.00195624
C        7.37624241       1.44936917       3.46420119       0.00102377      -0.00155402       0.00397011
C        6.15112818       3.55278584       3.64220547      -0.00397679      -0.01192514       0.00958071
C        4.87860665       5.68286555       3.88927905      -0.00773403       0.00049223       0.00146043
C        3.66707531       7.91962751       3.46367110       0.00590293       0.00172579       0.00462570
C        2.44790535      10.04259204       3.35588081       0.00092937       0.00350621       0.00326960
C        9.85499889       1.44872854       3.55217525      -0.00079304       0.00363521      -0.00093258
C        8.60592615       3.57143606       3.62047616      -0.00466824       0.00479579       0.00365135
C        7.36110551       5.70193944       3.68453112      -0.00957476       0.00049204      -0.00969797
C        6.13688107       7.82572988       3.58485047       0.00160248      -0.00232118      -0.00870706
C        4.92008829       9.99320794       3.45335102       0.00407592      -0.00311350      -0.00346676
Zr       3.28542121       4.96256025       5.52565084      -0.00255878       0.00493862      -0.00142499
