49
Lattice="12.336457 0.0 0.0 -6.168228499999997 10.683685154694365 0.0 0.0 0.0 15.0" Properties=species:S:1:pos:R:3:forces:R:3 energy=-435.22297160542644 free_energy=-435.22297160542644 stress="-0.0036215666837532117 -0.0018980688352756298 -1.4052410252311567e-05 -0.0018980688352756298 -0.0039408130817352284 8.789427087778742e-07 -1.4052410252311567e-05 8.789427087778742e-07 -5.303795342093693e-07" pbc="T T T"
C        0.00395207      -0.01155197       3.68417953       0.00428353      -0.00096440      -0.00561936
C       -1.24084437       2.11158085       3.61218474      -0.00028745       0.00169079      -0.00432896
C       -2.46236894       4.26251716       3.50887023      -0.00137020       0.00703684      -0.00140527
C       -3.68913245       6.40423551       3.53915369      -0.00273987      -0.01087368       0.00893462
C       -4.92237580       8.54231250       3.61191338       0.00181562       0.00431308       0.00739000
C        2.46092701      -0.00278916       3.70373253       0.00503485       0.00240719      -0.00899864
C        1.19104662       2.10860843       3.93121511       0.00544382      -0.00669614      -0.00423747
C       -0.05021042       4.21148356       3.66464677      -0.00586821      -0.00010329       0.00233398
C       -1.21872391       6.38669035       3.46973503      -0.00543842       0.00178466      -0.00181608
C       -2.45509455       8.53919983       3.51884882      -0.00916903       0.00071902      -0.00826575
C        4.94137719      -0.01046367       3.65110731      -0.00669575       0.01006756      -0.00787710
C        3.70808005       2.02554635       4.16439973       0.00165266       0.00268560      -0.00719236
B        1.26212176       6.42983517       3.61143783      -0.00280938      -0.00280701       0.00227606
C        0.00405532       8.55537411       3.46183871      -0.00152743      -0.00380499       0.00040796
C        7.40919917       0.00251080       3.57680335      -0.00350536      -0.00113874      -0.00323041
C        6.18181712       2.13064320       3.82884648      -0.00396450       0.00150495       0.00608583
C        5.07524979       4.32763294       4.22756771      -0.01182929      -0.01270521      -0.00569749
C        3.69895307       6.40401902       4.13483496       0.00441362       0.00940661      -0.00711481
C        2.49064397       8.55697178       3.62801339       0.00215436       0.00082147       0.00563728
C        9.87693134      -0.00846528       3.62000442       0.00461123      -0.00459870       0.00448839
C        8.63928100       2.13170614       3.59238912      -0.00018269       0.00422275       0.00495885
C        7.42684113       4.27525739       3.68850135       0.00533705      -0.00497725       0.00491173
C        6.19469530       6.42448637       3.77613682       0.00528870       0.00358496      -0.00186976
C        4.94291920       8.53069161       3.73481350       0.00055302      -0.00304729      -0.01264937
C       -0.00295984       1.42106533       3.72942030       0.00394624       0.00076670      -0.00776168
C       -1.24389200       3.51929832       3.53667611      -0.01090065       0.00227123      -0.00232450
C       -2.45349670       5.68452282       3.48958434      -0.00129489       0.00040521      -0.00231849
C       -3.68961913       7.83022904       3.54327283      -0.00602037      -0.00802079       0.00257600
C       -4.93025627       9.96648288       3.65402287       0.00562663       0.00563775       0.00203979
C        2.43675065       1.41789961       3.92784332       0.00710451      -0.01020552      -0.00171550
O        1.09655297       3.51708127       4.09764308       0.01237469       0.00190395       0.00131242
C        0.01228428       5.62207280       3.57492157      -0.00455473       0.00031554      -0.00329761
C       -1.21382030       7.81506746       3.47018143      -0.00679442       0.00208614       0.00297270
C       -2.46614310       9.96569823       3.61388216      -0.00094042       0.00321968       0.00157714
C        4.94946046       1.39898205       3.87921243      -0.00667864       0.00562489      -0.00297076
P        3.71986504       3.54680357       4.96700445       0.01389570      -0.00075597       0.01095882
C        1.25714098       7.88510081       3.51251292       0.00283195      -0.00058134       0.00231655
C        0.00338284       9.97635927       3.53806593      -0.00687661      -0.00130096       0.00364855
C        7.40435285       1.42410398       3.65002220      -0.00447932       0.00375046       0.00017977
C        6.22165168       3.55602386       3.90260917       0.00097056      -0.00144809      -0.00137608
C        4.96789662       5.73703219       4.06706383       0.00083417       0.00186627      -0.00445160
C        3.69609900       7.80798995       3.83341717      -0.00019574       0.00802449       0.00385112
C        2.48019975       9.98164219       3.58537885       0.00154697      -0.00395433       0.00065427
C        9.87425874       1.41413888       3.58694364       0.00033089      -0.00085042       0.01223278
C        8.64465647       3.55707629       3.57526224       0.00502294       0.00398974       0.00416200
C        7.41613314       5.70108809       3.65805128       0.00164139      -0.00821597       0.01024118
C        6.18124261       7.83399134       3.70086154       0.00374970       0.00371996       0.00096046
C        4.94000893       9.95272810       3.66878538       0.00527449      -0.00695605      -0.00266887
Zr       2.10630299       5.31803780       5.25090599      -0.00161593       0.00017869       0.00207968
