50
Lattice="12.336457 0.0 0.0 -6.168228499999997 10.683685154694365 0.0 0.0 0.0 15.0" Properties=species:S:1:pos:R:3:forces:R:3 energy=-446.3344483308276 free_energy=-446.3344483308276 stress="-0.006022933727916198 0.004330961280359947 -6.230934316187037e-06 0.004330961280359947 -0.006052872002131316 9.416013630155962e-07 -6.230934316187037e-06 9.416013630155962e-07 3.172290667967636e-06" pbc="T T T"
C        0.01251411       0.01500804       3.61251315      -0.00157322      -0.00047808      -0.00466270
C       -1.19854159       2.16743827       3.57243650       0.00410383       0.01157410      -0.00231404
C       -2.43549521       4.30354091       3.74415253       0.00170642       0.00595395       0.00941277
C       -3.68884764       6.43137389       3.85265631      -0.00224226      -0.00318486       0.00129445
C       -4.94004296       8.55847004       3.77376453       0.00227921      -0.00300671      -0.00051052
C        2.47602586       0.00974485       3.58968713       0.00339887       0.00599808       0.00486806
C        1.26672628       2.15846703       3.44492392      -0.00367298       0.00168768      -0.00077957
C        0.00395203       4.31368962       3.65931988       0.00655219      -0.01057252       0.00129140
C       -1.23199170       6.44638212       3.98552001      -0.00934338      -0.00764991       0.00001850
C       -2.46816016       8.57256225       3.82138102       0.00253735       0.00018609      -0.00050017
C        4.94757750       0.02303691       3.63554071      -0.00093026       0.00641378      -0.00509516
C        3.73669991       2.12965270       3.47965905       0.00354205      -0.01239839      -0.00046976
B        2.61638427       4.42547165       3.27565771      -0.01121403      -0.00039451      -0.00301797
B        1.28664043       6.53580138       4.35187113       0.01378364       0.00359470       0.00759485
C       -0.01332843       8.61398776       3.90464332       0.00206052       0.00466758      -0.01205009
C        7.41915545       0.04081591       3.66104126      -0.00819717       0.00331245      -0.00426439
C        6.21378478       2.13843906       3.56857224      -0.00138460       0.00026068       0.01189329
C        5.02784712       4.24274544       3.67197454      -0.00658061       0.00003548      -0.00112640
P        3.26997774       6.12454262       4.13659373      -0.01178855       0.01103589      -0.00386955
C        2.46467766       8.63672084       3.84822218       0.00485707      -0.01188285      -0.01089814
C        9.89890813       0.03775439       3.64265517      -0.00179306      -0.00181809      -0.01204705
C        8.67628185       2.16377250       3.61721776       0.00485681       0.00395346       0.00074858
C        7.45419931       4.28857224       3.72346213       0.00169568       0.00185045      -0.00382871
C        6.17474447       6.41086885       3.87589183       0.00628282      -0.00036949       0.00823176
C        4.92043996       8.54612111       3.78830562      -0.00293324      -0.00452054      -0.01014860
C        0.02743836       1.44861222       3.52653394      -0.00366936       0.00394294      -0.00700250
C       -1.22003944       3.58345285       3.63687173       0.00164285       0.00605343       0.00466190
C       -2.44591463       5.72699276       3.86898739      -0.01041929      -0.00003148       0.00402368
C       -3.70151110       7.85555054       3.82801334       0.00092951      -0.00465669       0.01245212
C       -4.92793403       9.98252537       3.65654147       0.00317994       0.00285784       0.00240485
C        2.49108571       1.43816319       3.47197973      -0.00304596       0.00119165       0.00577190
C        1.26442505       3.62463931       3.37749565       0.00582702       0.00402231      -0.00185278
C        0.00737398       5.70488658       4.04907171      -0.00960013      -0.00934840       0.00011679
C       -1.23816524       7.87025871       3.93986550       0.00130229      -0.00081482      -0.00521444
C       -2.46187968       9.99068136       3.68166254       0.00218524       0.00593274      -0.00090632
C        4.97462976       1.42864722       3.53547194       0.00395476      -0.00226122       0.00567592
C        3.80223035       3.53468688       3.55051283       0.00041470      -0.01387196       0.00928115
C        1.22873938       7.98197353       4.01552380       0.00588397      -0.00183598       0.00158642
C        0.00667638      10.01926066       3.72635632      -0.00443868       0.00893920      -0.00760212
C        7.44118481       1.44821430       3.59975247      -0.00252129       0.00341375      -0.00696135
C        6.24932482       3.55064060       3.63236816      -0.00224908       0.00205506       0.00684918
C        4.98601627       5.62666237       3.90162210       0.00580321      -0.00296125       0.00337598
C        3.65756168       7.88072442       3.86402496      -0.00440302      -0.00115813      -0.00549393
C        2.48819868      10.03930941       3.69985626      -0.00505747      -0.00686297      -0.00975300
C        9.90442925       1.45608653       3.60088275       0.00710082       0.00457254       0.00149086
C        8.67989773       3.58467212       3.68608660       0.00605204       0.00365331       0.01658812
C        7.42445317       5.71167720       3.82153436       0.00257817      -0.00144189       0.00788809
C        6.16402557       7.84034206       3.82893901       0.00067588      -0.00146217      -0.00226667
C        4.94784335       9.98485139       3.67806772      -0.00347025      -0.00521420      -0.00037634
Zr       1.67805981       4.52621396       5.29497359       0.00534104       0.00103799      -0.00450834
