49
Lattice="12.336457 0.0 0.0 -6.168228499999997 10.683685154694365 0.0 0.0 0.0 15.0" Properties=species:S:1:pos:R:3:forces:R:3 energy=-438.28706190318667 free_energy=-438.28706190318667 stress="0.0011809866261260227 0.000500717488887408 8.20525858840589e-06 0.000500717488887408 -0.008093362189844303 -1.1658228308717024e-05 8.20525858840589e-06 -1.1658228308717024e-05 6.003365121665939e-07" pbc="T T T"
C       -0.00816390      -0.01600336       3.61358603       0.00085321       0.00602783       0.00742457
C       -1.22697503       2.14920341       3.67524769      -0.00251433      -0.00251050       0.00621762
C       -2.46610209       4.28481730       3.72698431       0.00501806      -0.01077266      -0.00433530
C       -3.70799079       6.40196302       3.73222364       0.00455769      -0.00286173       0.01108580
C       -4.94777004       8.52319502       3.66887093      -0.01287678      -0.00156647      -0.00246357
C        2.46847891      -0.04437426       3.66815525      -0.00073432      -0.01204806      -0.00569485
C        1.24018670       2.06050693       3.80685690      -0.00487951      -0.00206250       0.00281093
C       -0.00913272       4.29155012       3.92394624       0.00266313       0.00580813      -0.00356186
C       -1.20175706       6.41266735       3.81112343       0.00476684      -0.00102160      -0.00550287
C       -2.46324744       8.52802537       3.69271337      -0.00318191      -0.00264659      -0.00548829
C        4.93382834      -0.00301857       3.63753669       0.00190135       0.00531826       0.00536927
C        3.69189119       2.11494511       3.79845094      -0.00333704       0.00137594       0.00466082
B        1.46699146       6.41533522       4.02175763      -0.00002005       0.00154877      -0.00103307
C        0.00679209       8.55750339       3.69057546       0.00297286      -0.00188732      -0.00150024
C        7.39243503       0.03531910       3.55682353      -0.00308475      -0.00002075       0.00995322
C        6.15821628       2.14670809       3.64564302       0.00474701      -0.00184812      -0.00229093
C        4.91405915       4.25438199       3.84371309      -0.00034712       0.00851521       0.00359803
B        3.47037442       6.42131080       3.93588664      -0.00450848       0.00051399       0.00007394
C        2.46072210       8.62146744       3.62734970       0.00836844       0.00915818      -0.00541072
C        9.87140423       0.03492208       3.54670162       0.01006208      -0.00467935      -0.01174269
C        8.63365013       2.16067605       3.59952917       0.00333615      -0.00303517       0.00127210
C        7.38945253       4.28017224       3.69994338      -0.00993868       0.00107663       0.00353136
C        6.12121388       6.40019430       3.76922209      -0.00192097       0.00322903       0.00469911
C        4.91846618       8.55187294       3.63192839       0.00209710      -0.00324780      -0.00137479
C       -0.00711747       1.40676756       3.68094943      -0.00630871       0.00441766       0.00516763
C       -1.22805871       3.57109719       3.75982729       0.00686653      -0.00476539       0.00565962
C       -2.45636802       5.70439777       3.76188403       0.00795528      -0.01052638       0.00500071
C       -3.70493902       7.81995883       3.70268227      -0.00873964       0.00060745      -0.00313240
C       -4.94293666       9.94244472       3.64197002      -0.00623420      -0.00247484      -0.00857728
C        2.47121692       1.36914269       3.75401424      -0.00535814      -0.00833598      -0.00355887
B        1.27074568       3.50194712       4.07407373      -0.00923324      -0.00060682       0.00795372
C        0.04741947       5.70070440       3.93633345       0.00651661       0.00610380      -0.00674682
C       -1.22389753       7.83088993       3.73940113      -0.00024707      -0.00116410       0.00070157
C       -2.46287493       9.94613290       3.66142509       0.00483059      -0.00349052      -0.00771603
C        4.93317029       1.41979063       3.67362423       0.00280065       0.00425130      -0.00303312
C        3.70754031       3.51413104       3.95602984       0.00217717       0.00686604      -0.01499575
C        1.25543324       7.89283709       3.74623345       0.01011860       0.00705776       0.00405565
C       -0.00150090       9.98538146       3.60947523      -0.00266463      -0.00155904       0.00713864
C        7.39691363       1.45080452       3.58106761       0.00449125      -0.00197259      -0.00578810
C        6.16025932       3.56155969       3.70085800      -0.00617843      -0.00120599       0.00297078
C        4.87176100       5.68527595       3.88171796      -0.00250759       0.00935473       0.00244274
C        3.66856361       7.89493106       3.68470361       0.00178237       0.00017102      -0.00971768
C        2.46312127      10.03147975       3.53645328       0.00262112       0.00819912       0.00654197
C        9.87267092       1.45291211       3.58831005       0.00298233      -0.00624039      -0.01191578
C        8.63303422       3.57901580       3.66643969      -0.00566242      -0.00162693      -0.00289410
C        7.37829483       5.69928510       3.73918724      -0.00164971       0.00189590       0.01053477
C        6.14642461       7.82252617       3.69352741      -0.00594069      -0.00240913       0.00904034
C        4.92691884       9.98033282       3.57596611       0.01029370      -0.00487007       0.00150939
Zr       2.59457488       4.83146173       5.28379601      -0.00671173       0.00996004      -0.00093920
