50
Lattice="12.336457 0.0 0.0 -6.168228499999997 10.683685154694365 0.0 0.0 0.0 15.0" Properties=species:S:1:pos:R:3:forces:R:3 energy=-443.8197171292127 free_energy=-443.8197171292127 stress="-0.002376512034067232 -0.0035655337799058236 -1.6922181418162694e-05 -0.0035655337799058236 -0.0016569980642552704 7.977046178357352e-06 -1.6922181418162694e-05 7.977046178357352e-06 2.2056733846618202e-06" pbc="T T T"
C        0.00914131       0.04302393       3.82963165       0.00216523      -0.00493152      -0.00752622
C       -1.25646122       2.14798169       3.61324950      -0.00287118      -0.00654269      -0.00290878
C       -2.50427936       4.30553231       3.60661167       0.00502577       0.00360365       0.00407399
C       -3.69352594       6.45164616       3.79355478      -0.00792477      -0.00093582      -0.01062093
C       -4.91392342       8.59221980       3.94658775       0.00724136       0.00089854      -0.00696077
C        2.48022530       0.02875686       3.63792006      -0.01194267      -0.00219548       0.00074603
C        1.22251560       2.14950310       3.41492974       0.00465283      -0.00375800      -0.00013278
C       -0.09852099       4.24115080       3.27851889       0.00435806       0.00587366      -0.01281466
C       -1.23832250       6.43291669       3.55289795      -0.00511467       0.00187914       0.00228632
C       -2.43946280       8.57823571       3.69285370       0.00054341       0.00278593      -0.00738718
C        4.94559199       0.04253576       3.59398918      -0.00341330       0.00724519      -0.00281328
C        3.68678005       2.20384805       3.46449327      -0.00180675      -0.00508507       0.00874818
B        2.39053919       4.48457722       2.83940311      -0.01383452       0.00454489       0.00642121
P        1.62630146       6.13052152       3.58641634      -0.00341799      -0.00060572       0.00619377
C        0.04820978       8.56538459       3.60772320       0.00176637      -0.00540872       0.00366362
C        7.40352135       0.04800562       3.71422620       0.00511095      -0.00181747       0.01224293
C        6.15777542       2.18542906       3.62868338       0.00145911       0.00941968      -0.00949401
C        4.94959151       4.34427386       3.78033755      -0.00528484       0.00078170      -0.00745750
P        3.58858443       6.31328296       5.12275617       0.00891298      -0.00531152       0.00103314
C        2.50189117       8.63122626       4.00402608      -0.00564479       0.00073271       0.01465347
C        9.87580815       0.05498535       3.90303403       0.00739195       0.00351131      -0.00963494
C        8.61902115       2.17580730       3.71604259      -0.01139286       0.00341055      -0.01089594
C        7.39207843       4.32306004       3.77031226       0.00671713      -0.00779386      -0.00292245
C        6.19542863       6.45923233       4.10955396       0.00986519      -0.00161198      -0.00239846
C        4.95650985       8.61801485       4.23746090      -0.00077620      -0.00066027       0.00303429
C       -0.02081617       1.44553175       3.61871956       0.00214055      -0.00663158      -0.00304015
C       -1.30679514       3.55241372       3.46372602       0.00650019      -0.00011121       0.00911522
C       -2.47720295       5.73105812       3.63932328      -0.00614142       0.00459139       0.00688975
C       -3.67976200       7.87751008       3.81765573       0.00372348      -0.00091048       0.00253560
C       -4.91466390      10.01535225       3.81729300      -0.00406474      -0.00125836       0.00835056
C        2.47702871       1.46395186       3.48078271      -0.00068028      -0.00658322       0.00178393
C        1.16366370       3.55179786       3.08296652      -0.00291676       0.00015439      -0.00095827
C       -0.05986803       5.64011509       3.41803228      -0.00125660       0.00185969      -0.00377280
C       -1.20242899       7.86007785       3.61128483       0.00121869      -0.00199520      -0.00583903
C       -2.45136726      10.00654876       3.64162414      -0.00824692       0.00537846      -0.00151847
C        4.93255468       1.47518463       3.55410127       0.00222280       0.00836987       0.00030471
C        3.68288095       3.68428696       3.41183353      -0.00237471      -0.00494859       0.00107261
C        1.32930403       7.89787390       3.65753917       0.00373791       0.00484267       0.00771737
C        0.01486203      10.00357828       3.63145945       0.00132804      -0.00138722       0.01931864
C        7.38995287       1.46945726       3.68851903      -0.00693662       0.00005278      -0.00120717
C        6.16452245       3.60977827       3.69948171       0.00239511       0.00452864       0.00050563
C        4.99404670       5.68542533       4.21783234       0.00634039      -0.00243689      -0.00745871
C        3.70581082       7.98266032       4.43285982      -0.01212648       0.01325805      -0.00211764
C        2.47438637      10.04334417       3.88000865       0.00989606       0.00035813       0.00958037
C        9.85240105       1.45896248       3.75440057      -0.00956069       0.00308400      -0.00632305
C        8.61085524       3.60118983       3.69960082       0.00708368       0.00130633      -0.00613329
C        7.41046886       5.74594256       3.88717622       0.00319350      -0.01151408       0.00376022
C        6.19715202       7.88938514       4.15298956       0.00581618       0.00065703      -0.01020069
C        4.94986770      10.03241783       4.00396243       0.00421637      -0.00143171       0.00378213
Zr       2.17640693       3.89970984       5.00227271       0.00270648      -0.00726172       0.00472347
