49
Lattice="12.336457 0.0 0.0 -6.168228499999997 10.683685154694365 0.0 0.0 0.0 15.0" Properties=species:S:1:pos:R:3:forces:R:3 energy=-436.88028752298277 free_energy=-436.88028752298277 stress="-0.004606564375403905 0.00022126770117093995 6.82315757764968e-06 0.00022126770117093995 4.6188129630412984e-05 1.6463707726947206e-06 6.82315757764968e-06 1.6463707726947206e-06 3.9392328194847375e-06" pbc="T T T"
C        0.00594018       0.00256662       3.64954128      -0.00345167      -0.00228115      -0.00381111
C       -1.23734472       2.13420440       3.64752138      -0.00692327       0.00022520       0.00278744
C       -2.45794991       4.27654765       3.69273761      -0.00832533      -0.00537073      -0.00211851
C       -3.68930611       6.41185700       3.68911816       0.00420637       0.00491954      -0.00255994
C       -4.92781275       8.55335564       3.70062410      -0.00025008       0.00415328      -0.00115778
C        2.46576997       0.02065354       3.64621307       0.00378768      -0.00541115      -0.00327067
C        1.22247857       2.11889300       3.60494537      -0.00167978       0.00370811       0.00417810
C       -0.03142946       4.27877962       3.81460568       0.00375619       0.00640473      -0.01247265
C       -1.24014852       6.41793961       3.63075853       0.00339513      -0.00179935       0.00542023
C       -2.46224053       8.55570016       3.62324504      -0.00107422      -0.00173778       0.00458703
C        4.93542557       0.01408524       3.65952820       0.00835361       0.00275331       0.00044564
C        3.70442355       2.17849570       3.82192279      -0.00193914       0.00240934       0.00199092
O        1.20090700       6.44623724       3.72386316      -0.00502339      -0.00467651      -0.00484881
C       -0.00412922       8.53986546       3.63150873       0.00112140      -0.00842172      -0.00114253
C        7.40504990      -0.01252263       3.65869475      -0.00148966       0.00843275       0.00115120
C        6.18283285       2.12977186       3.74191065       0.00310863      -0.00176063      -0.00287976
C        4.97683776       4.25263266       4.00629663       0.00453635      -0.00065765       0.00438117
B        3.73564906       6.40964108       4.20984811       0.00343395      -0.00703630      -0.00723059
C        2.45295663       8.52049337       3.76859636      -0.00061539       0.00417275      -0.00210523
C        9.86766464      -0.01270379       3.66875797       0.00229232      -0.00205713       0.00777313
C        8.64112963       2.12927798       3.67021571      -0.00261872      -0.00401023       0.00037679
C        7.42420359       4.26750826       3.75867706      -0.00883780       0.00127311       0.00018301
C        6.20588350       6.41405662       3.86730536       0.00328436       0.00641909       0.00119504
C        4.94174236       8.54276668       3.80803360       0.00136164      -0.00849472      -0.00248016
C       -0.00243568       1.42931594       3.60677618      -0.00392658       0.00118837       0.00369867
C       -1.24394897       3.55261705       3.71774937      -0.00042786       0.00324425       0.00077833
C       -2.45775650       5.69547593       3.66526247       0.00321683      -0.00194192      -0.00418677
C       -3.69690827       7.84073637       3.66519273      -0.00160675       0.00360633       0.00103148
C       -4.92760961       9.98478876       3.65707921       0.00032843      -0.00195073      -0.00312528
C        2.45984128       1.46279976       3.67536843      -0.00286113      -0.00182328       0.00017416
O        1.17916566       3.51952900       3.48681541       0.00916829       0.00975404       0.00752202
C       -0.04034662       5.69440678       3.72747690       0.00490710       0.00505313       0.00077024
C       -1.23999389       7.84030886       3.61017042      -0.00238947      -0.00410518       0.00449130
C       -2.47021077       9.98857813       3.64029284       0.00765538      -0.00192328      -0.00386274
C        4.93794676       1.43718340       3.73379803       0.00231782       0.00607438      -0.00242879
C        3.73389387       3.56609521       4.06256677       0.00582684       0.00291575      -0.00063680
C        1.22078152       7.84825927       3.71900550       0.00017084      -0.00391248      -0.00601734
C        0.00130761       9.96973093       3.64485763       0.00415996      -0.00460195       0.00005402
C        7.41197723       1.41451488       3.67822412       0.00135814       0.00227951       0.00268038
C        6.20847052       3.54217135       3.82055016      -0.00192766      -0.00406692      -0.00227141
C        5.00897172       5.67458858       4.04629370       0.00769467      -0.00068218       0.01057381
C        3.69998468       7.84093548       3.91191570      -0.00288035      -0.00432093       0.00408736
C        2.46128764       9.95776113       3.68276737      -0.00100684       0.00934814       0.00137092
C        9.87650255       1.41755170       3.64730965      -0.00352985      -0.00172636       0.00939906
C        8.64883242       3.55618492       3.69500424      -0.01172969      -0.00517780      -0.00364553
C        7.42855666       5.69681410       3.76868982      -0.00155951       0.00690306      -0.00011044
C        6.17955010       7.83610169       3.80208092       0.00300824       0.00388538      -0.00348322
C        4.94152811       9.96846154       3.69896416      -0.00007716      -0.00870711      -0.00210009
Zr       2.23947172       4.85353539       4.89603855      -0.01629887      -0.00046837      -0.00315527
