49
Lattice="12.336457 0.0 0.0 -6.168228499999997 10.683685154694365 0.0 0.0 0.0 15.0" Properties=species:S:1:pos:R:3:forces:R:3 energy=-431.3707488211747 free_energy=-431.3707488211747 stress="-0.003173975799141939 0.0010902396439817056 5.875701078406101e-06 0.0010902396439817056 -0.011505188777612821 -1.868186339407355e-06 5.875701078406101e-06 -1.868186339407355e-06 6.89499367253267e-07" pbc="T T T"
C        0.01611592       0.00578175       3.75506835      -0.00014589       0.00252874       0.00040715
C       -1.19583812       2.15480835       3.48382878      -0.00786610      -0.00721329       0.00176698
C       -2.44402064       4.29056548       3.57184019       0.00156050       0.00533265      -0.00303577
C       -3.68383613       6.41305997       3.76627724       0.00012865       0.00720016      -0.00174891
C       -4.93076472       8.53581536       3.86352485       0.00036121       0.00273854       0.00004135
C        2.48083659      -0.04639148       3.83213708      -0.00803367      -0.00120565      -0.00926828
C        1.28229248       2.09163014       3.61013185       0.00130289       0.00532189      -0.00709971
C       -0.01728029       4.31291223       3.23919569      -0.00542284       0.01679278       0.00707753
C       -1.20893909       6.42200672       3.70038100      -0.00811709      -0.00445665      -0.00071418
C       -2.44909538       8.53621017       3.78710888       0.00986131      -0.00144142      -0.00115457
C        4.95208922       0.00000802       3.76110325      -0.00188819      -0.00241886       0.00454908
C        3.70869284       2.08068708       3.92498447       0.00036490       0.00610283      -0.00687021
B        1.38347348       6.45613905       3.82737967      -0.00456940       0.00259865      -0.00129004
C        0.01068118       8.58309637       3.68531672       0.00008078      -0.01335706       0.01225572
C        7.41295224       0.04716542       3.65256169       0.00819180      -0.00479005      -0.00507679
C        6.18842431       2.14552268       3.74424200      -0.00124820       0.00448054      -0.00706729
C        4.97576248       4.26113237       3.91166779      -0.00506752       0.00166299       0.00371840
P        3.33274591       6.23496219       4.29711359       0.00764816      -0.00517709       0.00354098
C        2.47587624       8.65265644       3.79348146       0.00364288       0.00022691      -0.00094082
C        9.89844976       0.04787436       3.68402203       0.00840096      -0.00079548       0.00714300
C        8.65892466       2.16596431       3.59435509      -0.00099037       0.00114133       0.00067506
C        7.42480969       4.28679458       3.71828551       0.00551367      -0.00577029       0.00339077
C        6.17678018       6.42065333       3.89571840      -0.00149606      -0.00208845       0.00783989
C        4.93691306       8.57034359       3.94163788      -0.00784648       0.00732706      -0.00395757
C        0.01992802       1.42963406       3.59814011      -0.00312174      -0.00195428      -0.00313400
C       -1.21949502       3.56804016       3.40799484       0.00013442       0.00116908       0.01497407
C       -2.43710564       5.71040646       3.67923990      -0.00645166       0.00260829      -0.00592276
C       -3.68991449       7.82974676       3.81700082       0.00724029       0.00953614      -0.00161689
C       -4.92722559       9.95515749       3.82792024      -0.00805659       0.00174590      -0.00534552
C        2.49842467       1.37105459       3.83284928       0.00102237      -0.00092717      -0.00446439
S        1.45469590       3.54075421       2.53928523       0.01071926      -0.01268130      -0.00455395
C        0.05077231       5.69195548       3.63152783      -0.00313317       0.01372409       0.00467801
C       -1.21259506       7.83991118       3.73362987       0.00167366      -0.01329664       0.00845786
C       -2.44518491       9.95204157       3.80547947      -0.00514514      -0.00218525      -0.00069414
C        4.96110498       1.41934786       3.81478005      -0.00037318       0.00231249      -0.00502737
B        3.65990977       3.55247810       4.10956028       0.00163616       0.00549998      -0.01344993
C        1.26238586       7.94044873       3.70761467       0.00229023      -0.00234429       0.00181350
C        0.01337886      10.00292293       3.68535192       0.00165006      -0.00920582      -0.00467941
C        7.42102054       1.45725298       3.65026674       0.00007087       0.00082982      -0.00486920
C        6.19910737       3.55888837       3.77390800      -0.00356788       0.00459670       0.00345797
C        4.96878760       5.66273082       3.96744103      -0.00332972       0.00133183      -0.00079291
C        3.67423527       7.93856477       4.02941409      -0.00509752       0.00006469       0.00801779
C        2.48683684      10.05292507       3.68771271       0.01249443      -0.00165331       0.00465175
C        9.89882153       1.46009923       3.57268790      -0.00708919      -0.00631741       0.00166099
C        8.65626877       3.58320336       3.61962198       0.00661923       0.00020171      -0.00476267
C        7.41628578       5.70857683       3.78726144       0.00600826      -0.00639633       0.00682409
C        6.16967897       7.83880832       3.91989428      -0.00320355       0.00257000       0.00103734
C        4.94894059       9.99633668       3.79427771       0.00418025       0.00333383      -0.00353283
Zr       1.66228454       4.44786466       4.92049570      -0.00153607      -0.00730353       0.00309086
