49
Lattice="12.336457 0.0 0.0 -6.168228499999997 10.683685154694365 0.0 0.0 0.0 15.0" Properties=species:S:1:pos:R:3:forces:R:3 energy=-442.95775397692 free_energy=-442.95775397692 stress="-0.004313328124799868 -0.0005934077590419637 -5.711617750497731e-06 -0.0005934077590419637 0.0008802865473331752 -8.735497131496506e-06 -5.711617750497731e-06 -8.735497131496506e-06 -2.2700543918120534e-06" pbc="T T T"
C        0.00034138       0.00448959       3.70018697      -0.00136374       0.00472363       0.00505748
C       -1.24480309       2.12147064       3.63239567       0.00439327       0.00763302       0.00711066
C       -2.48153013       4.26741510       3.57166358       0.00596090       0.00285370       0.00015966
C       -3.70317415       6.41664116       3.59302879       0.00057488      -0.00932054       0.00372338
C       -4.93028652       8.56091085       3.66882195      -0.00520616       0.00313304      -0.00354579
C        2.46687879       0.04063872       3.74808100       0.00128638      -0.00769965      -0.00506962
C        1.20654180       2.16927363       3.85589942       0.00099215      -0.00445626       0.00651621
C       -0.05914069       4.22370071       3.84070901      -0.00363317       0.00117276      -0.00394143
C       -1.25190042       6.40532742       3.74392960       0.01405842      -0.00280456       0.00350650
C       -2.46968892       8.56019953       3.69810370       0.00046249      -0.00352274       0.00355222
C        4.92907799       0.01438780       3.70080737       0.00143088       0.00483819       0.00286156
C        3.72165365       2.17133082       3.81177673       0.00467395      -0.00412102      -0.00333133
B        1.18211635       6.42739607       4.17321409      -0.00808278       0.00860701       0.01209396
C       -0.01012834       8.55408344       3.79756628       0.00121930      -0.00088549       0.00090321
C        7.40614730      -0.01198236       3.67166757      -0.00654508      -0.00633807      -0.00009968
C        6.17036867       2.13374526       3.60580957      -0.00236993       0.00688651       0.00606523
C        4.97529350       4.26323801       3.75859859      -0.00593683      -0.00019968      -0.00641006
N        3.76959337       6.40241023       3.98559842      -0.00585751      -0.00168059       0.00112560
C        2.48653530       8.52291492       3.84372408       0.00354522       0.00633609      -0.00326025
C        9.86953897      -0.01748062       3.66791475       0.00866890       0.00018618      -0.00599658
C        8.63375631       2.12555982       3.55782864      -0.00532474      -0.00307534       0.00047179
C        7.40537607       4.27599248       3.53800527      -0.00424509      -0.00238431       0.00514070
C        6.17450930       6.42015976       3.64129115      -0.00668083       0.00108055       0.00159771
C        4.93963549       8.52595780       3.73665283      -0.00195786      -0.00089098       0.00077132
C       -0.00631008       1.43261166       3.71122481      -0.00038735       0.00471937       0.01006821
C       -1.26331280       3.53172863       3.63163514       0.00183652       0.00518576       0.00017905
C       -2.48040442       5.69660802       3.61637531       0.01243772      -0.00089702       0.00042620
C       -3.69992520       7.84545208       3.64872772      -0.00467945      -0.00341098      -0.00315120
C       -4.92884513       9.99189326       3.71249829      -0.00625981       0.00416632      -0.00417765
C        2.46629886       1.48312175       3.82549138       0.00627609      -0.01095010      -0.00811171
N        1.12227067       3.53729267       4.03613782      -0.01191776      -0.00393548       0.00147174
C       -0.05170945       5.64959906       3.90258257       0.00725869      -0.00191296       0.00000979
C       -1.23954533       7.83623482       3.75402012       0.00436112      -0.00410210      -0.00039420
C       -2.47350581       9.99340703       3.71989032       0.00470754      -0.00107077      -0.00390320
C        4.93542840       1.44222869       3.68601800       0.00481088       0.00283196       0.00097772
N        3.79853546       3.54849121       3.91330794      -0.00501336      -0.00209366      -0.01236636
C        1.23309097       7.86448565       3.91659363       0.00299409       0.00373115       0.00101357
C       -0.00591839       9.97753596       3.71396713      -0.00505615      -0.00258706      -0.00223266
C        7.40177835       1.41317215       3.59316996      -0.01009269      -0.00402999       0.00237125
C        6.17972249       3.55480685       3.58694573      -0.00656050       0.00435762       0.00144780
C        4.95977438       5.70912714       3.78567892      -0.00296720      -0.00234650      -0.00791197
C        3.72246029       7.78887851       3.86224668      -0.00062903       0.00091801      -0.00005054
C        2.47704783       9.95173676       3.71617915       0.00306619       0.00281502      -0.00522245
C        9.86341224       1.40753343       3.60048995       0.00467583       0.00066173      -0.00100462
C        8.63026474       3.55387619       3.52856345       0.00024720       0.00013438      -0.00116244
C        7.40266543       5.70160806       3.56923485      -0.00495023      -0.00409299       0.00105864
C        6.17429137       7.83902448       3.67739105      -0.00291183       0.00148874       0.00076432
C        4.93415657       9.95599771       3.69853641       0.00642130      -0.00249993      -0.00315100
Zr       2.53895989       4.89431657       5.00453819       0.01226915       0.01284806       0.00404924
