49
Lattice="12.336457 0.0 0.0 -6.168228499999997 10.683685154694365 0.0 0.0 0.0 15.0" Properties=species:S:1:pos:R:3:forces:R:3 energy=-434.4514747405965 free_energy=-434.4514747405965 stress="-0.0024859356310132858 -0.0021401142292699015 -1.1165414066002002e-06 -0.0021401142292699015 -0.007763100097419849 -9.974830183497954e-07 -1.1165414066002002e-06 -9.974830183497954e-07 5.171777823833532e-06" pbc="T T T"
C        0.01395742      -0.02018957       3.83078509      -0.00428664       0.00156952       0.00339672
C       -1.22332395       2.12084624       3.78165000       0.00183786       0.00200672       0.00961054
C       -2.45298321       4.25835893       3.59993853      -0.00428590       0.01005572       0.00004362
C       -3.68253545       6.39337693       3.52984511       0.00353078      -0.00651340       0.00523174
C       -4.91706363       8.52482504       3.66173247       0.00496623      -0.00143932      -0.00344684
C        2.48181925      -0.05238531       3.87070503      -0.00164895      -0.00452820      -0.00244454
C        1.24096475       2.09219642       3.96572066       0.00330056      -0.00303079       0.00122955
C        0.00576800       4.20834985       3.65040318      -0.00017627       0.00565248       0.00556826
C       -1.19996577       6.39313182       3.45859337       0.00271266       0.00814631       0.00434042
C       -2.43970022       8.51929245       3.61536608      -0.00288804      -0.00033971       0.00455155
C        4.95198367      -0.02853523       3.85777994       0.01292261      -0.00286751       0.00179085
C        3.69615761       2.03504301       4.20961576       0.00304665      -0.00301278      -0.00541072
P        1.65700954       6.33004569       2.62430123      -0.00443651      -0.00180892       0.00083930
C        0.03034070       8.53993510       3.57123320      -0.00599604      -0.00697511      -0.00085169
C        7.40545469       0.01433163       3.83501286       0.00129157      -0.00031951      -0.00542077
C        6.16967389       2.13535075       3.91267194      -0.00275065       0.00874622      -0.00593673
C        4.99176693       4.31750372       3.81333682      -0.00519283      -0.01207707       0.00002707
B        3.52012064       6.38279438       3.66616798      -0.00073089      -0.00605994      -0.00203838
C        2.50112884       8.61233157       3.74131280      -0.00251304      -0.00479293      -0.00491904
C        9.88686912       0.01589734       3.85697060      -0.00547205      -0.00133634      -0.01775996
C        8.63984052       2.13936385       3.78441366      -0.00245159       0.00303277       0.00689342
C        7.41485218       4.26741178       3.64413015      -0.00263283       0.00135297      -0.00151184
C        6.16809047       6.40935105       3.53084472       0.00406413      -0.00432337      -0.00420121
C        4.95692943       8.55001313       3.75897528       0.00805490       0.00929026      -0.00209615
C        0.00777449       1.39944027       3.86060273       0.00302053      -0.00141210      -0.00001589
C       -1.24118687       3.52639097       3.65882999      -0.00545177       0.00615284       0.00850687
C       -2.43940649       5.68366670       3.51985031       0.00576515       0.00797099       0.01045637
C       -3.67860430       7.81517925       3.58390317       0.00207932      -0.00836171       0.00291166
C       -4.92076576       9.93798657       3.78498547      -0.00587665      -0.00139450       0.00512926
C        2.46934847       1.35511913       4.04516821       0.00455455      -0.00374167      -0.00692414
C        1.19411575       3.49799661       3.93251208      -0.00089108      -0.00227135      -0.00357733
C        0.04248361       5.63523057       3.42397144      -0.00325101       0.00534714      -0.00292267
C       -1.19791484       7.81257994       3.51344128      -0.00497439       0.00275345       0.00186867
C       -2.44582010       9.93211605       3.78471235       0.00453903       0.00006196       0.00415985
C        4.94670167       1.39524005       4.01653518       0.00507952       0.00132611      -0.00490381
P        3.52209771       3.72812289       4.52546888      -0.00214985       0.00779644       0.01283314
C        1.29653343       7.88157874       3.53049150      -0.00803023      -0.00020833       0.00682857
C        0.01651949       9.96100973       3.75873476       0.00770393      -0.00832751      -0.00413799
C        7.40162786       1.43390824       3.85395487      -0.00530182       0.00394563       0.00265843
C        6.18680287       3.55345017       3.79025281       0.00013479       0.00313378       0.00308909
C        4.92139182       5.69896837       3.56347736       0.00267144      -0.01193695       0.00655855
C        3.70436835       7.88908583       3.76059101       0.00604758       0.00426015      -0.01018976
C        2.47832261      10.01854635       3.83965124      -0.00274532      -0.00423982      -0.00995761
C        9.87579279       1.42709692       3.81503166       0.00044267      -0.00024709       0.00800390
C        8.64372846       3.55707782       3.67316708      -0.00473289       0.00516989      -0.00332773
C        7.41087623       5.69072681       3.54456601       0.00210363      -0.00315244       0.00192825
C        6.18564244       7.82722343       3.63846452       0.00752887       0.00181103      -0.00685043
C        4.95181223       9.97155761       3.82607742      -0.00366201       0.00684162      -0.00713126
Zr       1.72799599       5.39060953       4.93877175      -0.00486973      -0.00170560      -0.00247918
