49
Lattice="12.336457 0.0 0.0 -6.168228499999997 10.683685154694365 0.0 0.0 0.0 15.0" Properties=species:S:1:pos:R:3:forces:R:3 energy=-431.27017785055097 free_energy=-431.27017785055097 stress="0.00034967169194914243 -0.0010566893481754672 -5.436685009555718e-06 -0.0010566893481754672 -0.010079912499731022 -1.6387232197874979e-06 -5.436685009555718e-06 -1.6387232197874979e-06 5.8314793923777595e-06" pbc="T T T"
C        0.00926869      -0.04251608       3.62342912       0.00255903       0.00588600       0.00211431
C       -1.19729039       2.15203853       3.49350372       0.00021298      -0.00579011      -0.00105827
C       -2.41044964       4.28299958       3.69336315      -0.00337331      -0.00046611      -0.00629455
C       -3.65250903       6.40001852       3.90394074      -0.01182193       0.00458005       0.00131051
C       -4.91722564       8.51662279       3.88162200      -0.00231648       0.00087276       0.00857811
C        2.48296927      -0.10648422       3.47422086      -0.00790835      -0.01199290      -0.00294023
C        1.25987204       2.00239937       3.25963052      -0.00313943       0.00208419      -0.01854981
C        0.09876818       4.28098493       3.59204128       0.01621228      -0.00196864      -0.00038060
C       -1.17624417       6.41218253       3.93507343       0.00416944       0.00130252      -0.00860087
C       -2.42998634       8.52091211       3.78558351      -0.00613796      -0.01133573      -0.00504578
C        4.94681452       0.00102297       3.52320433      -0.00039250      -0.00705741       0.01089212
C        3.66266134       2.02661913       3.25453188      -0.00316526       0.00293359      -0.00543829
B        1.36951206       6.51491255       4.23441578       0.00229750       0.01057238       0.00124889
C        0.01810722       8.59900832       3.84098793       0.00274327       0.00089616       0.00823068
C        7.40703663       0.06325915       3.64172565       0.00061665      -0.00305927      -0.00718639
C        6.15989163       2.17425481       3.46320133       0.01480074       0.00885562       0.00086986
C        4.98258968       4.35688009       3.65039198       0.00067519       0.00178575      -0.00148132
P        3.37975448       6.26211525       4.57782977       0.00220083      -0.01183106      -0.00513923
C        2.48276842       8.68208156       4.03410501      -0.00410621       0.00997191       0.00880359
C        9.89647294       0.05214740       3.72026975      -0.00219286      -0.00247023       0.01232097
C        8.65545953       2.17340097       3.56662132       0.00439143      -0.00520923      -0.00160469
C        7.43000139       4.28926434       3.71386869      -0.00403956       0.00912718      -0.01278097
C        6.21012851       6.41543840       4.08054197       0.00400290      -0.00101342      -0.00348694
C        4.94818005       8.57374488       4.07848294      -0.00072452       0.00412323      -0.00613994
C        0.01078695       1.37849101       3.43047220       0.00191993       0.00238262       0.00303672
C       -1.18251054       3.56490683       3.55103583       0.00777504      -0.00414919       0.00080827
C       -2.40347874       5.69779045       3.85140838      -0.00803561       0.00517600      -0.00421924
C       -3.66688535       7.81547793       3.87664234      -0.00830503      -0.00033309       0.00303321
C       -4.92687120       9.91319434       3.65979119      -0.00646242      -0.00298402       0.00565199
C        2.47110818       1.29710566       3.25920157      -0.00422499      -0.00545409      -0.00227734
B        1.34945916       3.47242037       3.12528084      -0.00507250       0.00131446       0.00967786
C        0.08489653       5.68128175       3.99121642       0.01699363       0.00183072      -0.00352023
C       -1.19040478       7.83193290       3.87289577       0.00113476       0.00043829       0.00447037
C       -2.43635157       9.92768336       3.59015233      -0.00602458      -0.01279986       0.00564306
C        4.93201393       1.43448673       3.38787986       0.00722321       0.00286973       0.00672853
S        3.33706756       3.73916184       3.26457124      -0.01266504       0.00328540       0.00682483
C        1.26440030       7.97676858       4.01645307      -0.00082538       0.00854799       0.00183337
C        0.01140297      10.01368543       3.66083155       0.00425849      -0.00442515       0.01225305
C        7.39984911       1.47722169       3.53629699       0.00907930      -0.00168922      -0.00195329
C        6.17550094       3.58903749       3.56377997       0.00254670       0.01089776      -0.00308359
C        4.99018000       5.65750320       4.11545218       0.01034431      -0.00923344       0.00181061
C        3.68660599       7.97314605       4.27127683      -0.00452879       0.00012186       0.00572954
C        2.48356776      10.07108448       3.79363028      -0.00572110       0.00240320       0.00102297
C        9.89390841       1.46164947       3.57626319       0.00062278      -0.00872941       0.00890621
C        8.67309541       3.58720611       3.64245163      -0.00686689      -0.00147030      -0.01088406
C        7.43999968       5.69984211       3.91198486      -0.00614659       0.00475880      -0.01286495
C        6.18693300       7.83300710       4.06097696       0.00221481       0.00100374      -0.00918629
C        4.94939423       9.98403060       3.81669252       0.00349367       0.00699137       0.00580149
Zr       1.72717400       4.49712578       5.10549496       0.00170846      -0.00155138      -0.00348426
