49
Lattice="12.336457 0.0 0.0 -6.168228499999997 10.683685154694365 0.0 0.0 0.0 15.0" Properties=species:S:1:pos:R:3:forces:R:3 energy=-430.75637119196426 free_energy=-430.75637119196426 stress="0.002695379231263669 -0.0007701645753340422 -7.331917598131228e-06 -0.0007701645753340422 -0.008048215762552668 5.009750604267303e-06 -7.331917598131228e-06 5.009750604267303e-06 6.593262866977558e-06" pbc="T T T"
C       -0.02215039      -0.02739617       3.64060530       0.00811997      -0.00414691       0.00847469
C       -1.24838889       2.12538405       3.70883233      -0.00330535       0.00113158       0.00005775
C       -2.47965115       4.24932217       3.75664509      -0.00713468       0.00068581      -0.01008474
C       -3.72704728       6.37681776       3.68695308      -0.00852606       0.00540264       0.00153767
C       -4.95666429       8.50614619       3.57885025       0.00058115      -0.00113260       0.00403152
C        2.44052444      -0.07921173       3.71724515      -0.00463358       0.00206191      -0.00847611
C        1.23174316       2.06692776       3.73300145      -0.00196045       0.00534650      -0.00214879
C        0.04272434       4.23341996       3.85007916       0.01260179       0.00186717       0.00089086
C       -1.26575304       6.38142428       3.95546084       0.00941176       0.00203424       0.00794665
C       -2.48668060       8.50206633       3.81131626       0.00052725      -0.00302659       0.00049473
C        4.89588731      -0.01782594       3.84602898      -0.00237911       0.00240107       0.00044117
C        3.62933766       2.07865220       3.79275275       0.00501275       0.00249285       0.00671541
P        1.46519807       6.25387585       4.53632744      -0.01270395      -0.00241012      -0.00201750
C       -0.03844684       8.55463619       4.01502305      -0.00081260       0.00268477       0.00428290
C        7.36010329       0.02374609       3.86162512       0.00119702       0.00149068      -0.00654508
C        6.11205317       2.14024875       3.79914359       0.00360399       0.00239702      -0.00460458
C        4.80827814       4.26590710       3.53344372       0.00619387      -0.00880659      -0.00314227
S        3.49239992       6.48700316       2.43510759       0.00004666      -0.00380467       0.00548715
C        2.43304445       8.60600625       3.88580956      -0.00025976      -0.00093454       0.00769649
C        9.84869810       0.01525565       3.72022651       0.00988574      -0.00312391      -0.00293294
C        8.60406625       2.13833247       3.75978006      -0.01126657      -0.01020167      -0.00659892
C        7.34444023       4.25426724       3.67372318      -0.00500965       0.00362162      -0.00784789
C        6.14262920       6.38862783       3.37816268      -0.00427736       0.01069103      -0.00213855
C        4.92346225       8.53735954       3.56757149       0.00529240      -0.00215241       0.00683114
C       -0.01500121       1.40242007       3.69000570      -0.00023567      -0.00176772      -0.00685479
C       -1.22215285       3.53864990       3.75521724       0.00378966       0.00480097       0.00204596
C       -2.49446428       5.66970446       3.79954875      -0.00193586       0.00474208       0.00014216
C       -3.72266870       7.79559240       3.68242750      -0.00310566       0.00270819       0.00349242
C       -4.96571827       9.92056929       3.63888368       0.00246225      -0.00528956       0.00042627
C        2.43558044       1.33218614       3.74417259      -0.00012868       0.00491038      -0.00032873
B        1.47441580       3.57193793       3.81179185      -0.00627958       0.00330062       0.00326193
C       -0.07126379       5.61880065       4.07175811       0.01547283       0.00790548       0.00133676
C       -1.25614258       7.80738117       3.95492993       0.00552952      -0.00077247       0.00496265
C       -2.48950557       9.92145896       3.79231519      -0.00629780      -0.00221517      -0.00079734
C        4.88118755       1.41403130       3.81564623       0.00590475       0.00476007       0.01017446
B        3.37866565       3.58646533       3.84877020      -0.00075449      -0.01041187      -0.00325059
C        1.23042226       7.92572836       4.11348864      -0.00678256      -0.00594232      -0.00390731
C       -0.03858337       9.97854494       3.91173570       0.00002050       0.00389904      -0.00065464
C        7.35700116       1.43924911       3.81081833      -0.00612566      -0.00238536      -0.00086966
C        6.09615878       3.55354409       3.69787273       0.00714333      -0.00370824      -0.01258369
C        4.96267010       5.64016536       3.04408474      -0.01114672       0.00854974       0.00359402
C        3.66307270       7.85651271       3.64588338       0.00200730      -0.00676213       0.00709410
C        2.43943778      10.01643038       3.81822309       0.00453886       0.00114088      -0.00600540
C        9.84771011       1.43143167       3.72622752      -0.00468215      -0.00359564      -0.00304406
C        8.60645255       3.55254289       3.73258861      -0.01175589      -0.00823698      -0.00661759
C        7.37009000       5.66847355       3.57998154      -0.01182175       0.00837172      -0.00367353
C        6.13464000       7.81525802       3.45702519       0.00189073       0.00257014       0.00413776
C        4.91079525       9.96825543       3.64076194       0.01242945      -0.00504341       0.01188179
Zr       3.81478630       5.69222204       4.92684652       0.00965809      -0.00609730      -0.00231369
