49
Lattice="12.336457 0.0 0.0 -6.168228499999997 10.683685154694365 0.0 0.0 0.0 15.0" Properties=species:S:1:pos:R:3:forces:R:3 energy=-441.00675938961734 free_energy=-441.00675938961734 stress="0.0019708335360699818 -8.971765166503205e-06 -1.0755877557468545e-08 -8.971765166503205e-06 -0.0029865071346693263 -6.537783612294508e-06 -1.0755877557468545e-08 -6.537783612294508e-06 2.7451298138233573e-06" pbc="T T T"
C        0.00017216      -0.01591128       3.61478286       0.00274256      -0.00264844       0.00010641
C       -1.21967576       2.13846419       3.75513949      -0.00998801       0.00151029      -0.00815766
C       -2.44900022       4.26169872       3.72883931      -0.00263586      -0.00236902       0.01183491
C       -3.70151221       6.38821823       3.59300226       0.00271196       0.00842363      -0.00711258
C       -4.93844166       8.52117677       3.53542779      -0.00015122      -0.00125746      -0.00175774
C        2.46700007      -0.05294545       3.54105262      -0.00058577      -0.00911498      -0.00334974
C        1.25774073       2.08216643       3.74004604       0.00011556      -0.00275016      -0.00851967
C        0.06693824       4.29964264       3.89700672       0.00339059       0.00727500      -0.00449617
C       -1.24152752       6.40816438       3.65135587       0.00171032       0.00209324      -0.00493559
C       -2.46421363       8.52126157       3.53480323       0.00068199      -0.00466362      -0.00372255
C        4.93398039      -0.01584445       3.61338567      -0.00737775      -0.00479540      -0.00274265
C        3.67589125       2.08231825       3.73841416       0.00444541      -0.00183840      -0.00544950
N        1.12244356       6.47016426       4.03226492       0.00885124      -0.00469060       0.00655747
C       -0.00468552       8.53696328       3.66787762       0.00384878       0.00316773       0.00862856
C        7.40094292      -0.00535966       3.72282014       0.00383656       0.00451003      -0.00334659
C        6.15346207       2.13856877       3.75443566       0.00787961       0.00057108      -0.00955678
C        4.86665907       4.29980265       3.89815607      -0.00147289       0.00786612      -0.00389909
N        3.81167169       6.47064115       4.03412855      -0.01432689      -0.00613678       0.00958103
C        2.46687297       8.51981870       3.84093169       0.00031701      -0.00875692      -0.00905664
C        9.86925085      -0.00546275       3.72321264      -0.00161552       0.00631892      -0.00045643
C        8.63523194       2.13444930       3.74600924      -0.00320663       0.00136346       0.00800182
C        7.38236590       4.26163137       3.72968875       0.00691394       0.00007605       0.00918853
C        6.17530522       6.40846322       3.65351153      -0.00152501      -0.00047294      -0.00552494
C        4.93861187       8.53738151       3.66971400      -0.00322745      -0.00140922       0.00587214
C        0.00954236       1.41371951       3.69599385      -0.00618284      -0.00362432       0.00435559
C       -1.18793211       3.56796146       3.79737381      -0.00072960       0.00168069       0.00246068
C       -2.46611654       5.68057897       3.64733176      -0.00059011       0.00161545       0.00330640
C       -3.70137358       7.80895295       3.53627688       0.00085207       0.00409904      -0.01766501
C       -4.94144257       9.94075232       3.54306502       0.00317421      -0.00688151       0.00514063
C        2.46678418       1.35690029       3.64800954       0.00299262      -0.00733140       0.00683624
B        1.47054837       3.56426189       3.98930943      -0.00265710       0.00490887      -0.00550381
C       -0.02254996       5.72673308       3.83889323       0.00524341       0.00511926       0.00347467
C       -1.23140967       7.82005954       3.60064709       0.00442796       0.00229070      -0.00387015
C       -2.46089376       9.94089567       3.54153825      -0.00648870      -0.01005156       0.01075075
C        4.92427085       1.41383513       3.69424949       0.00599506      -0.00354264       0.00649189
B        3.46329037       3.56439113       3.98870509      -0.00291208       0.00484579      -0.00207157
C        1.20868965       7.82874568       3.84664374       0.00398615      -0.00564676       0.00265690
C        0.00032545       9.96352884       3.65739318      -0.00173656       0.00579094       0.00107377
C        7.39387372       1.42548562       3.73727917       0.00531660       0.00177686       0.00352169
C        6.12135350       3.56798066       3.79785106       0.00488027       0.00216371       0.00281352
C        4.95662757       5.72700037       3.84194687      -0.00942122       0.00541190      -0.00280321
C        3.72527008       7.82915255       3.84815840      -0.00543092      -0.00869213       0.00192111
C        2.46679552       9.95660900       3.75962498       0.00277548      -0.00233025      -0.01324154
C        9.87653179       1.42525268       3.73805375      -0.00982103       0.00709850       0.00015516
C        8.63496421       3.55747753       3.73314563       0.00110701      -0.00415322       0.01299834
C        7.39960221       5.68056036       3.64830559       0.00397837       0.00338831       0.00421486
C        6.16511478       7.82029469       3.60183444      -0.00163360       0.00020602      -0.00019854
C        4.93368402       9.96376239       3.65857608      -0.00080922       0.00375635       0.00133544
Zr       2.46635849       5.24818500       5.14850643       0.00235120       0.00582975      -0.00584035
