49
Lattice="12.336457 0.0 0.0 -6.168228499999997 10.683685154694365 0.0 0.0 0.0 15.0" Properties=species:S:1:pos:R:3:forces:R:3 energy=-432.0736032531144 free_energy=-432.0736032531144 stress="-0.00524160707523405 -0.004203615468395185 9.264100755279925e-07 -0.004203615468395185 -0.004660933287145177 1.082169269478396e-05 9.264100755279925e-07 1.082169269478396e-05 -3.552426375742905e-06" pbc="T T T"
C       -0.00872606       0.01005837       3.89658966       0.00100195       0.00234112       0.00400742
C       -1.28269822       2.11967240       4.01175589       0.00142742      -0.00255901       0.00802520
C       -2.50503274       4.27109096       3.99259547       0.00096744      -0.00218528       0.00350706
C       -3.69490748       6.41993528       3.86749187      -0.01030954       0.00823410      -0.00025921
C       -4.91899234       8.56761298       3.84837427       0.00496708      -0.00013483      -0.00387644
C        2.45764494       0.01045766       3.82515993       0.01042343      -0.00659567       0.00079303
C        1.17846090       2.10775649       3.92068066      -0.00357869       0.01087826      -0.00659321
C       -0.09397229       4.22332529       4.11924294       0.00823684      -0.00608681       0.00946154
C       -1.23909956       6.39589736       3.87394369       0.00157246       0.00415353      -0.00112471
C       -2.44918239       8.54496261       3.80392090      -0.00285266      -0.00424250      -0.00033206
C        4.91823236       0.01379151       3.68538185       0.01249194      -0.00929858       0.01071037
C        3.65329864       2.14218002       3.50542596      -0.00798563       0.00616242       0.01063043
S        1.37313067       6.16598317       3.14552532      -0.00074037       0.01777234      -0.00001436
C        0.00665958       8.53436076       3.64409652      -0.00373426       0.00104940      -0.00499316
C        7.37854991       0.01543549       3.70268927       0.00130887       0.00373224       0.00068992
C        6.13654062       2.15906354       3.56473567       0.00704446      -0.00449484       0.00762165
C        4.97236363       4.33140664       3.29995274       0.00560752       0.01107671      -0.00800143
C        3.76921852       6.49317368       3.70094207      -0.00679541      -0.00616957      -0.00020004
C        2.46686280       8.57642718       3.64681919      -0.00934560      -0.00073012      -0.01098985
C        9.84986871       0.00993134       3.83907451      -0.01121737       0.00942930      -0.00845714
C        8.59727559       2.14374861       3.83490957       0.00343621       0.00218266       0.00382580
C        7.38547095       4.28667690       3.74017346      -0.00807933       0.00087781       0.00693986
C        6.21586863       6.45435257       3.70161656      -0.00049381      -0.00702136      -0.00851946
C        4.94558353       8.57560239       3.77603902       0.00855009      -0.00510929       0.00173159
C       -0.03803820       1.42916121       3.95740738      -0.00086101       0.00397274      -0.00990214
C       -1.29818891       3.52659220       4.10020163       0.00716496      -0.00685619       0.00902668
C       -2.47553913       5.69246833       3.93735073      -0.00544792       0.00822213       0.00230214
C       -3.68820063       7.84485174       3.84964022      -0.00431799       0.00248647      -0.00344503
C       -4.93556346       9.99133958       3.87220039       0.00698044      -0.00081199      -0.00598980
C        2.42298869       1.45417421       3.77681319      -0.01017515       0.00014896       0.00070806
O        1.12017266       3.50630618       4.05423086       0.00977330       0.00535628       0.00240702
C       -0.05770690       5.59622312       3.89315972      -0.00221907      -0.01141694       0.00728764
C       -1.21803773       7.81647928       3.75328886      -0.00208307       0.00482164      -0.00370132
C       -2.47362176       9.98067105       3.76858076       0.01185116      -0.01098808       0.00056738
C        4.90466903       1.44906159       3.57566904       0.00384307      -0.00329136       0.00704634
S        3.61792835       3.56656948       2.36014231       0.00134859       0.00293833      -0.00055581
C        1.25750460       7.87624136       3.51435512      -0.00814067      -0.01087705      -0.00290970
C       -0.01228093       9.97763083       3.67348038       0.00878824      -0.00257927      -0.00268503
C        7.36756054       1.44211438       3.70392393       0.01084043      -0.00157145      -0.00003136
C        6.16748742       3.57246348       3.53366038      -0.00463291      -0.00090088       0.00448727
C        4.96515044       5.75756367       3.55694819      -0.00065289       0.00188473       0.00135089
C        3.71108090       7.87922253       3.68733319      -0.00201640      -0.00345230       0.00202649
C        2.44935308       9.99748158       3.74129100      -0.00881648       0.00578336      -0.01202885
C        9.83476842       1.42637237       3.90979341      -0.00096062       0.00711899      -0.00186677
C        8.60139111       3.56491561       3.87144002      -0.00223169       0.00040158      -0.00710973
C        7.41087697       5.71467746       3.77708536      -0.00497784       0.00006970      -0.01033454
C        6.18568919       7.86443677       3.78923238       0.01076890      -0.00893144       0.00841317
C        4.92654125       9.98986907       3.84827798      -0.00607211       0.00440675      -0.00080322
Zr       3.01898945       4.68875883       4.50207616      -0.00965631      -0.00919672       0.00115738
