49
Lattice="12.336457 0.0 0.0 -6.168228499999997 10.683685154694365 0.0 0.0 0.0 15.0" Properties=species:S:1:pos:R:3:forces:R:3 energy=-431.8452549642506 free_energy=-431.8452549642506 stress="-0.004512192736662919 -0.0010192316124277238 6.763770579698817e-06 -0.0010192316124277238 -0.0005780036226241803 8.30408237199502e-06 6.763770579698817e-06 8.30408237199502e-06 2.145360815125101e-06" pbc="T T T"
C        0.01487244       0.00569214       3.81140910       0.00382398       0.00631857       0.00050423
C       -1.23257222       2.13130411       3.67450064      -0.01332631      -0.00200983      -0.00021780
C       -2.47160658       4.27281900       3.84038357       0.00477264       0.00169769      -0.00069123
C       -3.68359369       6.42090656       3.98374196       0.00613601       0.00460643      -0.00101782
C       -4.91175872       8.56140504       3.97445393       0.00394257      -0.00635997      -0.00127461
C        2.48715667      -0.01326896       3.68912108       0.00313620      -0.00543942       0.00383794
C        1.24125742       2.11250265       3.39892950       0.01157025      -0.00939120       0.00527707
C       -0.09625096       4.29020213       3.29650879       0.00493046       0.00713392      -0.00908914
C       -1.26508185       6.43073969       3.70630367      -0.00477164       0.00376901      -0.00888404
C       -2.44877038       8.55558737       3.82244566      -0.00161945      -0.00033605       0.00357845
C        4.95969925      -0.00117931       3.67305139      -0.00253497       0.00420376       0.00685080
C        3.71748159       2.08661074       3.34623225       0.00113314       0.00959576       0.00053206
C        1.21374053       6.41217177       3.60681728      -0.00043385       0.00028894       0.00248471
C        0.03032359       8.53722742       3.72206152      -0.00448210      -0.00707947       0.00646549
C        7.42456219      -0.01166230       3.77458358       0.00436483      -0.00149748       0.01023397
C        6.17659062       2.15524257       3.72860253      -0.00168776      -0.00183347       0.00847068
C        4.99688277       4.37069610       3.87309081      -0.01682291       0.00672725       0.00171591
O        3.80584084       6.45430430       4.12301049      -0.00284804      -0.00242744      -0.01605903
C        2.51159404       8.50748285       3.84782516       0.00069442       0.00413823      -0.00270610
C        9.88093934      -0.01589490       3.85089435       0.00730237       0.00095513      -0.00224135
C        8.64197632       2.13344242       3.84804238      -0.00033959      -0.00781126       0.00744886
C        7.41539856       4.28206391       4.00046863      -0.00563527      -0.00346675      -0.00584273
C        6.21709087       6.44650339       4.16225093      -0.00100758       0.00569009      -0.01198371
C        4.96100976       8.54344944       4.00503522      -0.00684345       0.00190472      -0.00500930
C        0.00162733       1.42933477       3.64271069      -0.00779506       0.00457123      -0.00182216
C       -1.26906951       3.54168645       3.64020722       0.00326382      -0.00208856      -0.00088374
C       -2.46391803       5.70351121       3.85225536       0.00155892       0.00586669      -0.00524545
C       -3.67714296       7.84658925       3.94167894       0.00591320      -0.00218853      -0.00103688
C       -4.91394186       9.98157133       3.83137805       0.00432192      -0.00702927       0.01544386
C        2.49379262       1.40608014       3.44947373       0.00700358       0.00353418      -0.00549093
S        1.07391259       3.46813198       2.18686827      -0.00076819       0.00128784      -0.00198435
C       -0.02181433       5.72614263       3.51016037      -0.00389657       0.00476237      -0.00505668
C       -1.21865013       7.84212549       3.75507399      -0.00838625      -0.00165872      -0.00335287
C       -2.44446569       9.97369543       3.73192714      -0.00004120      -0.00290432      -0.00895678
C        4.96111283       1.43188282       3.57651047      -0.00025525       0.00944589       0.00095224
S        3.69289392       3.78086034       2.87901302       0.00851967       0.00319454       0.00426842
C        1.26446005       7.80842655       3.71582178       0.00590241      -0.00493521      -0.00801744
C        0.02569777       9.96358979       3.72957535      -0.00133872      -0.00274922       0.00257222
C        7.40569532       1.42426306       3.79645229       0.00304268      -0.00602698       0.00265836
C        6.18617607       3.57650376       3.88523852      -0.01117856      -0.00745266      -0.00176345
C        5.01011241       5.75578225       4.12060894      -0.00199701      -0.00138951      -0.00127012
C        3.75106353       7.83269514       3.98457058      -0.00633236      -0.00730540       0.00583603
C        2.49192732       9.94226517       3.83419365       0.00952211       0.00817841       0.00573690
C        9.87364208       1.41565370       3.80454119      -0.00709759      -0.00713556       0.00391139
C        8.64176090       3.55794618       3.91756474       0.00457346      -0.00487327       0.00225071
C        7.42996331       5.70550927       4.07709089       0.00221074       0.00536139       0.00642836
C        6.20479730       7.85952685       4.07993250      -0.00567994       0.00711002       0.00154623
C        4.94744931       9.96856659       3.89702841       0.00399797       0.00565918       0.00049900
Zr       1.84352876       4.56786082       4.35507905       0.00548229      -0.01061166       0.00039383
