49
Lattice="12.336457 0.0 0.0 -6.168228499999997 10.683685154694365 0.0 0.0 0.0 15.0" Properties=species:S:1:pos:R:3:forces:R:3 energy=-440.1405092296359 free_energy=-440.1405092296359 stress="-0.006114788350356143 0.0007390961535689984 4.565386410843646e-06 0.0007390961535689984 -0.002568261512856731 -3.7587240243823198e-06 4.565386410843646e-06 -3.7587240243823198e-06 -2.437361257762957e-06" pbc="T T T"
C        0.00269386      -0.00770193       3.68446283       0.00633037      -0.00626062       0.00688714
C       -1.22965995       2.12876190       3.50849355      -0.00130138      -0.00087449       0.00174488
C       -2.48995297       4.26987849       3.63571676      -0.00582630      -0.00050644      -0.00250180
C       -3.71388556       6.41069069       3.79382759       0.00488888       0.00010756      -0.00372156
C       -4.93357827       8.54685197       3.82870998      -0.00630849      -0.00052004      -0.00343463
C        2.47153150      -0.00859836       3.77913477       0.00296355       0.00328987      -0.00053515
C        1.26234169       2.06852713       3.40735442      -0.00429363      -0.00217515      -0.00074016
C       -0.09376535       4.31835259       3.29698599      -0.00660991       0.00970768      -0.01469261
C       -1.29150915       6.43792987       3.60897547      -0.00263257      -0.00544324       0.00329157
C       -2.47522885       8.55484732       3.79985303       0.00584809       0.00137963       0.00234432
C        4.94306305      -0.00152602       3.83630529      -0.00793201       0.00346423      -0.00450149
C        3.71151990       2.15309300       3.82733922       0.00235731      -0.00396339       0.00911310
C        1.18257253       6.41123961       3.54998756       0.00982192      -0.00347231       0.00588248
C       -0.00486914       8.54409550       3.75241674       0.00105179      -0.00243679       0.00094941
C        7.41569429      -0.01722323       3.81128354      -0.00066924       0.00477206      -0.00077366
C        6.18356315       2.12849531       3.88196753      -0.00410763       0.00582705       0.00394849
C        4.93633064       4.27597085       4.00518016      -0.00446378      -0.00240262      -0.00086003
N        3.78828638       6.43124434       4.07439738      -0.00215864      -0.00049126       0.00620977
C        2.48689257       8.51070903       3.81929954       0.00014553      -0.00325955      -0.00094681
C        9.87593176      -0.01684710       3.74003656       0.00448595      -0.00387158      -0.00060561
C        8.64330733       2.12477207       3.74974406       0.00609768       0.00391266      -0.00847242
C        7.40212404       4.26691367       3.85629648      -0.00092768      -0.00418444       0.00161514
C        6.18254939       6.42006377       3.91098555       0.00094608      -0.00437949      -0.00640770
C        4.94647418       8.53036598       3.84504832      -0.00560776       0.00964950       0.00070537
C        0.00323331       1.41559927       3.51116528      -0.00235494      -0.00801885       0.00643691
C       -1.26500608       3.54979832       3.45811258      -0.00586707       0.00593239      -0.00452176
C       -2.49432017       5.69907530       3.67704831      -0.00229652      -0.00777414       0.00047617
C       -3.70496624       7.83651391       3.81477661       0.00211200       0.00591396       0.00171370
C       -4.93228598       9.97046410       3.76624862       0.00502039       0.00052150       0.00125225
C        2.48214896       1.41673033       3.68735764       0.00271959      -0.00071948       0.00568008
S        1.36139103       3.64537339       2.62769339       0.01031501      -0.00508671       0.00457841
C       -0.05454251       5.73799030       3.45515368      -0.00039408       0.00815705      -0.00461005
C       -1.24736395       7.84753600       3.72872872       0.00268107      -0.00633179       0.00345444
C       -2.46325708       9.97193392       3.82561957      -0.00191873       0.00154736      -0.00472227
C        4.95009683       1.42090007       3.86339243      -0.00217092       0.00006944       0.00109081
C        3.72250393       3.55712014       3.97810938       0.00363250      -0.00206297       0.00448024
C        1.23732478       7.80329920       3.72742071       0.00184828      -0.00287263       0.00181053
C        0.00765447       9.96176159       3.81258940      -0.00580398       0.00241095       0.00307375
C        7.41677165       1.40748386       3.82417372       0.00227104       0.01134010      -0.00193562
C        6.18475945       3.55180107       3.92324437      -0.00569950       0.00325741      -0.00214403
C        4.96346072       5.72213876       4.00564197      -0.00242915      -0.00226897      -0.00130905
C        3.72658954       7.80231329       3.90645564      -0.00155889       0.00893852       0.00561246
C        2.48118790       9.94502869       3.79573443       0.00094747      -0.00527026      -0.00399330
C        9.88089178       1.41414665       3.66520381       0.00365813      -0.00428460      -0.00473664
C        8.63098575       3.55196545       3.75268484      -0.00208487      -0.00036294      -0.00059971
C        7.40156168       5.69428306       3.86082792       0.00670079      -0.00547553      -0.00869158
C        6.17369425       7.83309383       3.86887844      -0.01003125      -0.00177663      -0.00483463
C        4.93753172       9.95503655       3.75327261       0.00612641       0.00313801       0.00421087
Zr       2.27492054       4.98625565       4.66138321       0.00247911       0.00321000       0.00372998
