49
Lattice="12.336457 0.0 0.0 -6.168228499999997 10.683685154694365 0.0 0.0 0.0 15.0" Properties=species:S:1:pos:R:3:forces:R:3 energy=-445.5237752445146 free_energy=-445.5237752445146 stress="-0.004752310449909849 -0.0005765693033389965 2.095724807901943e-06 -0.0005765693033389965 0.0036445944592811306 -8.175684942974013e-06 2.095724807901943e-06 -8.175684942974013e-06 2.982250219265399e-06" pbc="T T T"
C        0.00230916       0.01015977       3.71142688      -0.00845686       0.00926355       0.00532520
C       -1.24561245       2.12395635       3.65699674      -0.00374578       0.00126080      -0.00760674
C       -2.48338886       4.26643946       3.58636859      -0.00335645       0.00269339      -0.00506527
C       -3.70356531       6.41801537       3.60130851       0.00115395      -0.00852434       0.00750827
C       -4.92991598       8.56574240       3.67618027       0.00627421       0.00749927      -0.00420745
C        2.46762939       0.04835401       3.74716095      -0.00329479       0.00380360       0.01083505
C        1.20853818       2.17865714       3.83481559       0.01066667      -0.00527631       0.00532617
C       -0.05192258       4.24097998       3.75827946      -0.01303314      -0.00518712      -0.00360069
C       -1.26230761       6.41399894       3.65160447      -0.00382184       0.00607045      -0.00254951
C       -2.47401768       8.56605964       3.67186340      -0.00169533       0.00183440      -0.00361930
C        4.93268913       0.00999782       3.72447138      -0.00056803       0.00010122       0.00505236
C        3.72186786       2.18154387       3.86036969      -0.00087695       0.00013896       0.00276911
C        1.18855568       6.37226904       3.90690547       0.00138482      -0.00128139      -0.00236559
C       -0.00536421       8.53312413       3.72868095       0.00394842      -0.00622230       0.00329400
C        7.40629321      -0.02655518       3.70401553       0.00442858      -0.00903934      -0.00021614
C        6.17272108       2.12907911       3.69478617       0.00126157       0.00311301      -0.00623576
C        4.97555039       4.26452774       3.83418816       0.00292817      -0.00493294      -0.00919980
N        3.79307168       6.41017009       3.99051636      -0.00337634      -0.00213148       0.00182718
C        2.48171419       8.49405959       3.80436116      -0.00300701       0.00118097       0.01689951
C        9.86549832      -0.02709485       3.69613286       0.00546339      -0.00202071       0.00273396
C        8.63215433       2.11931687       3.62429458      -0.00400561      -0.00408473       0.00681794
C        7.40569547       4.27120308       3.61254408       0.01802477       0.00289650      -0.00453624
C        6.18416639       6.42053605       3.68287565       0.00456111       0.00324749      -0.00632204
C        4.94473509       8.52999800       3.74022464      -0.00489728      -0.00839548       0.00439890
C       -0.00480494       1.43997166       3.72101058       0.00248613       0.00782401      -0.00023667
C       -1.26003849       3.53923553       3.62411278      -0.01714537      -0.00183982      -0.00311884
C       -2.47949480       5.69732467       3.59720562       0.00028753      -0.00071639      -0.00105014
C       -3.70099923       7.84887941       3.64315333       0.00368524      -0.00672281      -0.00101864
C       -4.92758315       9.99821073       3.71371612      -0.00555811       0.01164690       0.00180685
C        2.46600847       1.49236163       3.82824812       0.00899246      -0.00302151       0.01295605
N        1.13238845       3.56153225       3.94909376      -0.00914509      -0.00569825      -0.01007619
C       -0.02613936       5.68638030       3.76778806      -0.00221340       0.00107413      -0.00331016
C       -1.24474413       7.83865230       3.67957151      -0.00032726       0.00528568      -0.00395568
C       -2.47324862       9.99717900       3.71686779      -0.00472697       0.00344318       0.00227594
C        4.93636424       1.44098437       3.75099814      -0.00155662       0.00357658      -0.00035170
N        3.79367113       3.56189731       3.99238739      -0.01189652       0.00240599      -0.00304351
C        1.23103388       7.77931033       3.81192754       0.00288059       0.00210348       0.00898268
C       -0.00091394       9.95751342       3.71617593       0.00299883      -0.00897377       0.00551961
C        7.40211997       1.40327945       3.66606207      -0.00416629      -0.00711768      -0.00839201
C        6.18146205       3.55045569       3.68074579       0.01702103       0.00521570      -0.00805254
C        4.97656547       5.70963921       3.83306956       0.00269182       0.00001309      -0.00687723
C        3.73012800       7.79006059       3.84313215      -0.01045688      -0.00071293       0.00472874
C        2.47150970       9.92774629       3.72716542       0.00758078      -0.00185430       0.01084585
C        9.86268794       1.40241759       3.64802428      -0.00177747       0.00006081      -0.00418040
C        8.63009042       3.54964944       3.58870700       0.00800284      -0.00236395       0.00534985
C        7.40801864       5.69868148       3.61654132       0.00222218      -0.00145670      -0.00534922
C        6.17795965       7.84174688       3.69639433       0.00425009       0.00431806      -0.00817010
C        4.93573452       9.95868260       3.71095780      -0.00234228      -0.00752819       0.00491484
Zr       2.43252261       4.99221859       4.93129165       0.00225247       0.01503122      -0.00746053
