49
Lattice="12.336457 0.0 0.0 -6.168228499999997 10.683685154694365 0.0 0.0 0.0 15.0" Properties=species:S:1:pos:R:3:forces:R:3 energy=-432.1143255495298 free_energy=-432.1143255495298 stress="-0.00046554684530058523 0.0009790314378831618 -1.6930729175040421e-07 0.0009790314378831618 -0.0028814206715138337 7.567501009480647e-06 -1.6930729175040421e-07 7.567501009480647e-06 5.2458769608890495e-06" pbc="T T T"
C        0.01120874      -0.00940421       3.77915564      -0.00255231       0.00945105       0.01212871
C       -1.21815866       2.13103286       3.60600974      -0.00501867      -0.00886046       0.01567977
C       -2.46504753       4.27301206       3.75571741       0.00085588      -0.00301858      -0.00716929
C       -3.70695644       6.40634009       3.90086847      -0.00676326       0.00029768      -0.01432235
C       -4.93264075       8.53663397       3.92071782       0.01157606       0.00957643      -0.00486795
C        2.47896520      -0.00598526       3.87719496      -0.00731959       0.00070528      -0.00361482
C        1.26839203       2.09244205       3.48298265       0.00802328      -0.01679898      -0.00122892
C       -0.06293701       4.28335498       3.27925920      -0.00129547       0.00041218      -0.00771145
C       -1.26142793       6.43631928       3.63704970      -0.00382190       0.00618437      -0.00160396
C       -2.46206792       8.54449225       3.82856951       0.00844575      -0.00445032       0.00184733
C        4.93997885       0.00211455       3.86422637       0.00574403      -0.00959803       0.00058315
C        3.73199077       2.10675994       3.92473262       0.00195492       0.00993128       0.00607936
S        1.27841430       6.45096992       2.43471280      -0.00625548      -0.00228340      -0.00177011
C       -0.00183083       8.56060610       3.61662355       0.00762104      -0.00691307      -0.00904319
C        7.41293133       0.00550159       3.80294745       0.00891758       0.00272319       0.00710570
C        6.18644527       2.13377113       3.93286512       0.00231549      -0.00102664       0.00195265
C        4.97063174       4.25894428       4.03617672      -0.00227224      -0.01263104      -0.00994948
C        3.65307177       6.39223040       3.92992260       0.00899903       0.00013184      -0.00363113
C        2.48301052       8.55846844       3.67987928      -0.01083054       0.00497639       0.00191136
C        9.88350709       0.00261536       3.78354965       0.00356705       0.00304251       0.00620163
C        8.65078865       2.14023953       3.82545903      -0.00657403       0.00218984       0.00025394
C        7.40532695       4.27138227       3.94537770      -0.00131358       0.00346282       0.00102329
C        6.16062438       6.39680184       3.98880369      -0.00687450      -0.00046834      -0.00462718
C        4.93852470       8.53516912       3.87352537       0.00163340       0.00333389       0.00254984
C        0.01838332       1.41698709       3.60707764       0.00373027      -0.00261512       0.00304162
C       -1.25435027       3.54166824       3.56335640       0.00110225      -0.01057364       0.00439491
C       -2.47149706       5.70064266       3.78758332      -0.00455903       0.00352267      -0.00160693
C       -3.69989280       7.82875141       3.89801613       0.00870835      -0.00025917      -0.00237367
C       -4.92484328       9.96373346       3.86485561      -0.00568955       0.00908121      -0.00252490
C        2.49642051       1.44064075       3.80168237       0.00753417      -0.00016443       0.00551998
S        1.34420800       3.54785020       2.45486491       0.00269877       0.01634853      -0.00106676
C       -0.05438527       5.70007809       3.36257309      -0.00874850       0.00422911      -0.00283880
C       -1.23161943       7.84295363       3.67083379       0.00978905       0.00213322       0.00103952
C       -2.45981401       9.97378707       3.87361706      -0.00569847      -0.00440215       0.00238934
C        4.95081227       1.43000222       3.92486718      -0.00118735       0.00132508       0.00335023
O        3.77155595       3.50276685       4.07042961      -0.01433560       0.00775669       0.01042346
C        1.25235812       7.90933384       3.42539873      -0.00124833      -0.00579258       0.01045852
C        0.00787392       9.97846228       3.77858161       0.01427326      -0.01058687       0.00452930
C        7.41129492       1.43145488       3.86655804       0.00009346       0.00108665       0.00175393
C        6.18005134       3.54678338       3.98054382       0.00215585      -0.00239255      -0.00449969
C        4.89323966       5.67045576       4.02258096      -0.00101162      -0.01532942      -0.00363463
C        3.69307947       7.80806752       3.81634027      -0.00951591       0.00142825      -0.00303982
C        2.47851971       9.98801621       3.77386071       0.00459676       0.00561552      -0.00149033
C        9.88779929       1.42652943       3.74471634      -0.00767312       0.00046363       0.01379274
C        8.64073567       3.56213515       3.85678770      -0.00168129       0.00214906      -0.00307675
C        7.38857855       5.69178500       3.96181086      -0.01111592       0.00291546      -0.01062071
C        6.16519011       7.81832107       3.94086239       0.00874222       0.00614290      -0.01156910
C        4.94203640       9.95979348       3.81015041       0.00391405       0.00629015       0.00920069
Zr       2.10891302       4.99373690       4.39044356      -0.00363567      -0.00874209      -0.00932902
