49
Lattice="12.336457 0.0 0.0 -6.168228499999997 10.683685154694365 0.0 0.0 0.0 15.0" Properties=species:S:1:pos:R:3:forces:R:3 energy=-440.9897870437946 free_energy=-440.9897870437946 stress="-0.005905969921619253 -0.0006110318702952154 -3.7558582302089196e-06 -0.0006110318702952154 -0.004250790503203683 7.434743353050414e-06 -3.7558582302089196e-06 7.434743353050414e-06 5.63365983083313e-07" pbc="T T T"
C        0.00431652      -0.00446762       3.68336847      -0.00024174       0.00750102      -0.00420135
C       -1.23165341       2.12305402       3.66845441      -0.00031777       0.00184970      -0.00519179
C       -2.45914797       4.25872340       3.53649225       0.00492679       0.00514859      -0.01059302
C       -3.69371820       6.40322213       3.48691641      -0.00220357      -0.00412054       0.00895973
C       -4.92400203       8.54705372       3.56613142       0.00634669      -0.00163723      -0.00128462
C        2.46815239      -0.01983905       3.69882499      -0.00321205      -0.00503671       0.00279380
C        1.22646480       2.14392155       3.94869324       0.01200334       0.00388165       0.00669397
C       -0.00908696       4.25334244       3.78217576      -0.00498732      -0.00689832      -0.00284918
C       -1.24320618       6.40589685       3.48087184       0.00394900       0.00571064      -0.00513002
C       -2.46301985       8.54057932       3.49925649      -0.00573776       0.00921185      -0.00523107
C        4.94763538      -0.02687374       3.66646574       0.00102442       0.00526978       0.00109304
C        3.71021762       2.00985958       4.09936306       0.00128534      -0.00763596      -0.00274425
C        1.19802932       6.41062919       3.67507335      -0.00221225      -0.00159627      -0.00540419
C        0.00594970       8.53113457       3.52657064      -0.01314964       0.00578045      -0.00031191
C        7.41177763      -0.01900623       3.62735773       0.00454767       0.00834537      -0.00359619
C        6.18479025       2.11826836       3.78763788      -0.00763753       0.00428109       0.00649580
C        5.06432803       4.32299560       4.08063242      -0.00473222      -0.00643497       0.00080731
C        3.75387021       6.42460281       4.18536031       0.00305298      -0.00581602       0.00318489
C        2.48148478       8.53228074       3.72722887      -0.00517362      -0.00245036       0.01004939
C        9.87442622      -0.01464685       3.65951481       0.00877544      -0.00105494      -0.00757514
C        8.64264853       2.12164405       3.60647313       0.00415027      -0.00812478       0.00147515
C        7.42781595       4.26793090       3.62733354       0.00885877      -0.01045928       0.00273281
C        6.20277375       6.42764873       3.70534465      -0.00697237       0.00247691       0.00153904
C        4.94938145       8.53805404       3.73467376       0.00014015      -0.00048176      -0.00189012
C        0.00197509       1.42015523       3.75548030       0.00392875       0.00876304       0.01670861
C       -1.23818570       3.54004251       3.62898672      -0.00398172      -0.00038373      -0.00985046
C       -2.46559885       5.68683008       3.48271010       0.00502596       0.00671518      -0.01411667
C       -3.69509376       7.83083253       3.49475387       0.00361059      -0.00409095       0.00998701
C       -4.93128889       9.96292665       3.63393730      -0.00415274      -0.00292987       0.00341619
C        2.45677381       1.38018236       3.92911344       0.00635370      -0.00434295      -0.01071422
C        1.16763236       3.55680180       4.11553264      -0.00027663       0.00045145      -0.00057534
C       -0.01332789       5.69875688       3.63723521      -0.00103858      -0.00589977       0.00179002
C       -1.22735013       7.82547688       3.47673627      -0.01162282       0.00745630      -0.00296529
C       -2.46157853       9.95702842       3.61035763      -0.00109731       0.00681362       0.00214332
C        4.95948470       1.38378379       3.85484645      -0.00235015       0.00380402      -0.00394529
P        3.61219386       3.61490660       4.66502396      -0.01470088      -0.00219450       0.00175896
C        1.24469538       7.81438711       3.62269036      -0.01373730      -0.00235189       0.01136676
C        0.01071888       9.94911653       3.59297253       0.00094820       0.00783810      -0.01522643
C        7.40840160       1.40737735       3.65745003      -0.00567373       0.00633337       0.00518747
C        6.21332835       3.54971978       3.81537979       0.00210188      -0.00279646       0.01142164
C        4.98515336       5.74556149       3.99413237      -0.00392198      -0.00734415      -0.00478555
C        3.71345471       7.80785786       3.89309352      -0.00066835      -0.00903783      -0.00442707
C        2.47644235       9.95325349       3.65307405       0.00723388       0.00337773      -0.00152488
C        9.87156188       1.40718362       3.62692297       0.00510978      -0.00379733      -0.00347582
C        8.64682240       3.54975963       3.56540232       0.01357787      -0.00865626       0.00069284
C        7.41714727       5.69576806       3.58560521      -0.00602224      -0.00492810       0.01129156
C        6.18364875       7.83968535       3.65407512       0.00243025       0.00591096       0.00242529
C        4.94177958       9.95707813       3.67882720       0.00421496       0.00110849       0.00760288
Zr       2.06837481       5.34806848       5.27016504       0.01222558       0.00247158      -0.00400760
