49
Lattice="12.336457 0.0 0.0 -6.168228499999997 10.683685154694365 0.0 0.0 0.0 15.0" Properties=species:S:1:pos:R:3:forces:R:3 energy=-442.59072204215306 free_energy=-442.59072204215306 stress="-0.003809988541235194 0.00141925684493237 -8.244037422251873e-06 0.00141925684493237 0.0030072463308387833 -1.1582949292364977e-06 -8.244037422251873e-06 -1.1582949292364977e-06 2.305842378047398e-06" pbc="T T T"
C        0.00060287       0.01080447       3.70920844       0.00189996       0.00586399      -0.00490898
C       -1.23417442       2.13540123       3.70352962      -0.00593263       0.00264964      -0.00512493
C       -2.46591878       4.27329285       3.65258024      -0.01804056       0.00111448       0.00049494
C       -3.70307153       6.41550119       3.63070549      -0.00169927      -0.00482824       0.00112327
C       -4.93446522       8.56140005       3.66518133       0.00649583      -0.00308172       0.00239097
C        2.46642411       0.04245101       3.72184169      -0.00565953       0.00271725       0.01053005
C        1.21342560       2.18567138       3.82545748       0.00639225      -0.00711630       0.00898454
C       -0.02800401       4.27107191       3.85286973       0.00064001      -0.00508363       0.00119888
C       -1.25230011       6.42263643       3.70476021      -0.00983626       0.00235724      -0.00606349
C       -2.47677965       8.56084309       3.67748969       0.00012217       0.01424892      -0.00086491
C        4.93084470       0.00272264       3.70599742       0.00152752       0.00640037      -0.00116236
C        3.73111927       2.12241551       3.80542947      -0.00453896       0.00075934      -0.00242859
N        1.12410254       6.43621683       4.05068074       0.00762118      -0.00252695      -0.00150470
C       -0.01598530       8.53357352       3.73860184       0.00176254      -0.00810444       0.01203130
C        7.40560124      -0.02493770       3.70296115      -0.00311910       0.00296336       0.00276024
C        6.18440726       2.12023140       3.67339171       0.00313876      -0.00010523      -0.00602547
C        5.01163899       4.25441434       3.75155581       0.00969950      -0.00481941      -0.01226750
C        3.71272608       6.36622728       3.83025062       0.00508164      -0.00107067      -0.01156923
C        2.45163697       8.49986908       3.78907781      -0.00244600       0.00020933       0.00958270
C        9.86498635      -0.02084787       3.70002905       0.00151315      -0.01359064       0.00774690
C        8.64063660       2.12359049       3.65435859       0.00820131      -0.00216916       0.00222346
C        7.41882389       4.26908763       3.62715294      -0.00016032       0.00353250      -0.00747986
C        6.18765962       6.40742602       3.65022087       0.00111113       0.00614895      -0.00363469
C        4.93398980       8.53360973       3.70672017      -0.00230628      -0.00158682       0.00245192
C        0.00236189       1.44463588       3.73656675      -0.00026947       0.00674763       0.00033587
C       -1.24053158       3.55458729       3.70505539      -0.01621488       0.00469447      -0.00403745
C       -2.47485322       5.69980256       3.65121978      -0.00857669      -0.00332687      -0.00316679
C       -3.70717262       7.84521000       3.65156354       0.00819565      -0.00272251       0.00126766
C       -4.93041504       9.99439943       3.69880787      -0.00044912      -0.00097923       0.00340821
C        2.47698666       1.49649620       3.78737722      -0.00125755      -0.00537502       0.01371357
N        1.15962878       3.56530632       3.96848677       0.01310344      -0.00374271      -0.00889423
C       -0.04163049       5.71615681       3.86468166      -0.00257490       0.00354429       0.00086702
C       -1.24652322       7.84170609       3.70469798      -0.00492664       0.00442315      -0.00352704
C       -2.47756091       9.99650170       3.70200000      -0.00231124       0.01529179       0.00059975
C        4.94059878       1.43347283       3.71664327      -0.00214306       0.00565157      -0.00406865
O        3.80427692       3.53627996       3.91169121      -0.00676987      -0.00609535      -0.00130764
C        1.20119571       7.80314676       3.84754272       0.00449655       0.00078161       0.01359453
C       -0.00241012       9.95889544       3.71069059      -0.00037082      -0.00676616       0.00166120
C        7.40458636       1.40690358       3.66867296       0.00545227       0.00473414      -0.00053389
C        6.19444202       3.53810808       3.64856714       0.01141824      -0.00288197      -0.01246154
C        4.94267301       5.67059659       3.74035616       0.00697558      -0.00262149      -0.00384708
C        3.69545277       7.78021830       3.77549108      -0.00535686       0.00033854      -0.00372244
C        2.46337470       9.93562556       3.72325812      -0.00530652      -0.00207895       0.01113397
C        9.87096101       1.40927665       3.67809104       0.00365973      -0.01189781       0.00039596
C        8.64246833       3.55339549       3.63230389      -0.00780581      -0.00123367       0.00353669
C        7.40454219       5.69379064       3.62737950      -0.00412626       0.00232975      -0.00597331
C        6.17106711       7.83249694       3.66945511       0.00055423       0.00459994       0.00145593
C        4.93347963       9.95947095       3.70274917       0.00454321      -0.00429436       0.00639278
Zr       2.52246779       5.00939658       4.90131855       0.00859277       0.00599704      -0.00530754
