49
Lattice="12.336457 0.0 0.0 -6.168228499999997 10.683685154694365 0.0 0.0 0.0 15.0" Properties=species:S:1:pos:R:3:forces:R:3 energy=-442.46733322937644 free_energy=-442.46733322937644 stress="-0.004092046067814434 0.0003654040963487296 2.4611428663191526e-06 0.0003654040963487296 0.003176771216875474 -8.175192310988924e-08 2.4611428663191526e-06 -8.175192310988924e-08 -8.093222548175154e-07" pbc="T T T"
C        0.00219678       0.00565292       3.71490158       0.00335473      -0.00688078       0.00679052
C       -1.24111890       2.12852466       3.70856934      -0.00076310       0.00069450       0.00171201
C       -2.47253592       4.27572743       3.67096171       0.00139918       0.00280482      -0.00512538
C       -3.69925932       6.41741570       3.65325603       0.00162155      -0.00567425      -0.01046568
C       -4.92802287       8.56248052       3.68599117      -0.00038836       0.00039086       0.00598230
C        2.46575524       0.04371541       3.71334122       0.01155057      -0.00697471       0.00429382
C        1.21169007       2.12973197       3.80669887       0.00413364      -0.00172775       0.00442410
C       -0.07185350       4.28171218       3.85334151      -0.00210821       0.00268795       0.00200598
C       -1.25063826       6.41870843       3.66961757       0.00089939       0.00533253       0.00168648
C       -2.47062270       8.56410293       3.65721311      -0.00770297      -0.00783760       0.00295951
C        4.93351844       0.01081486       3.67647559      -0.00347445       0.00596569       0.00806158
C        3.72847590       2.17957045       3.79236892      -0.00920801      -0.00189434      -0.00985321
N        1.15373347       6.41157697       3.93071985       0.00241341      -0.00408969       0.00936743
C       -0.00922615       8.53035196       3.69271133       0.00283522      -0.00341183       0.00696073
C        7.40558537      -0.02463278       3.68400929      -0.00565019       0.00357211      -0.00029892
C        6.17961773       2.12798558       3.66725983       0.00233298      -0.00059614       0.00746291
C        4.98010215       4.24377502       3.78931009      -0.00413924      -0.00457694      -0.01414828
C        3.73539687       6.38002785       3.90612936      -0.00382981       0.00212575       0.00358128
C        2.45482074       8.49874828       3.77755910       0.00627571       0.00062622      -0.00162093
C        9.86524466      -0.02542873       3.70582367      -0.00696248       0.01302864       0.00568369
C        8.63888642       2.12197148       3.66368912      -0.00077778       0.00587732       0.00126977
C        7.41482204       4.26795802       3.65922630       0.00822961      -0.00439535      -0.01698602
C        6.19597332       6.41346172       3.71285784       0.00002415       0.00183784      -0.00086629
C        4.94125874       8.53420499       3.74376521      -0.00404268      -0.00006807      -0.00941498
C       -0.00059368       1.44026682       3.73302470       0.00270980      -0.00414400       0.00631764
C       -1.24520369       3.55314767       3.72007081      -0.00376976       0.00051796      -0.00236651
C       -2.46934284       5.69806148       3.65507854       0.00574016       0.00210427      -0.00642824
C       -3.70021678       7.84769975       3.66059421      -0.00686868      -0.00909341      -0.00210374
C       -4.92786469       9.99765868       3.70399702       0.01171178      -0.00391233       0.00803904
C        2.46083512       1.49862131       3.77483395      -0.00118147      -0.00734685      -0.00956508
O        1.14868965       3.54925178       3.91625260       0.01397600       0.00268378      -0.01177181
C       -0.03671890       5.69907645       3.80948930       0.00003744       0.00198480      -0.00553493
C       -1.24095303       7.83808504       3.66297730      -0.00191759       0.00293678       0.00675083
C       -2.47477271       9.99790879       3.68073211       0.00469212      -0.00769650       0.00074908
C        4.93809883       1.44206922       3.69608201      -0.00486748       0.00744703       0.00201350
N        3.78831045       3.55980662       3.92299699      -0.00702586      -0.00472752       0.01049774
C        1.21024318       7.78934324       3.79023721       0.00943623      -0.00299023       0.00452751
C       -0.00023269       9.95837748       3.67692472      -0.00686961      -0.00044709       0.00845363
C        7.40847382       1.40544350       3.66301192       0.00160186       0.00174195      -0.00576596
C        6.19346722       3.54108867       3.66559064       0.00727320      -0.00259623       0.00395144
C        4.95671561       5.68634725       3.81870247      -0.00609727      -0.00008628      -0.00069532
C        3.70287526       7.78966962       3.81051942       0.00093558       0.00093706      -0.00441221
C        2.46310187       9.93343337       3.71566513      -0.00286304       0.00707236       0.00469232
C        9.87494856       1.40777843       3.68381052      -0.00416876       0.01401902       0.01027265
C        8.64086015       3.55257538       3.65625660       0.00675541       0.00005900      -0.01535039
C        7.41297411       5.69740181       3.67154525      -0.00031772      -0.00354605      -0.01394800
C        6.17904149       7.83746673       3.71435414      -0.00187040       0.00429433       0.00382185
C        4.93619480       9.95755390       3.71922570      -0.00888093       0.00261410       0.00414393
Zr       2.49466186       5.00225833       4.89694870      -0.00419386       0.00135725       0.00024856
