49
Lattice="12.336457 0.0 0.0 -6.168228499999997 10.683685154694365 0.0 0.0 0.0 15.0" Properties=species:S:1:pos:R:3:forces:R:3 energy=-440.1660663747661 free_energy=-440.1660663747661 stress="-0.007441962199737578 -0.0027646102655396847 -1.116462426896779e-05 -0.0027646102655396847 -0.0036651520037184297 3.5653079032580308e-06 -1.116462426896779e-05 3.5653079032580308e-06 1.2652826741734285e-06" pbc="T T T"
C       -0.00443058      -0.00090888       3.74937000      -0.00582187      -0.00166833       0.00100126
C       -1.25691061       2.11968013       3.78021387      -0.00325350       0.00453659       0.00303216
C       -2.48181616       4.26159760       3.79541297      -0.00733568      -0.00060577      -0.00074035
C       -3.68891085       6.41068777       3.77976595       0.01712081       0.00874406       0.00193650
C       -4.92006438       8.55893739       3.76847268       0.00297784      -0.00396497       0.00130066
C        2.46705603      -0.01052852       3.64963468       0.01023096      -0.00112144       0.00329986
C        1.21921050       2.14164416       3.69027153       0.00861300       0.00129181       0.00643635
C       -0.03006480       4.24693506       3.87951779       0.00117813       0.00116047       0.00449771
C       -1.25418881       6.40915010       3.80122757      -0.00384253       0.00104218       0.00937660
C       -2.46268874       8.54403125       3.72507283      -0.00387043      -0.00550660       0.00380095
C        4.93569230      -0.01081688       3.61459945      -0.00442270      -0.00245663       0.00202098
C        3.67733999       2.07768647       3.34310480       0.00064388       0.00656161       0.00282950
C        1.19660202       6.38755560       3.99381584      -0.01037868       0.00359447      -0.00511652
C        0.00264214       8.52779776       3.78487590      -0.00680246      -0.00319137      -0.00312577
C        7.39658374      -0.01817831       3.72608753       0.00831307       0.00783451      -0.00584093
C        6.15221509       2.14085771       3.58557336      -0.00904476      -0.00016715       0.00977897
C        4.98000441       4.34550942       3.66356032      -0.01261984       0.00126474      -0.01179994
N        3.80981972       6.44827844       3.89318915      -0.00626495       0.00192325      -0.01025455
C        2.47636676       8.51311205       3.86813606       0.00585264       0.00077787      -0.01497477
C        9.85696505      -0.01856031       3.78546570      -0.00075098       0.00595275       0.00483911
C        8.61836891       2.12384450       3.74563346       0.00941517      -0.00865811       0.00181658
C        7.40419497       4.27278916       3.76066520      -0.00009582      -0.00113868       0.00540355
C        6.21980205       6.44917093       3.79957237      -0.00384984      -0.00636820      -0.01265910
C        4.95276495       8.54774580       3.81913189       0.00042617       0.00433868      -0.00575280
C       -0.01803958       1.41793458       3.74046229      -0.00232946      -0.00091803       0.00412016
C       -1.26807737       3.53680775       3.81023162      -0.00532571       0.00502325      -0.00353861
C       -2.47061653       5.69042221       3.78796443       0.00626765       0.00157687       0.01143670
C       -3.69015254       7.83676396       3.75857667       0.00420144      -0.00055495      -0.00003919
C       -4.93306397       9.97534032       3.73110366       0.00388852      -0.00338540      -0.00421846
C        2.45412472       1.41399622       3.55296135       0.00775540       0.00528734       0.00158243
C        1.18839331       3.53348433       3.85803960       0.01076974      -0.00028595       0.00059135
C       -0.02210290       5.69193329       3.89866447      -0.00969808       0.00048833       0.00782448
C       -1.23274731       7.82689284       3.76686000      -0.00995328      -0.00319300       0.00882243
C       -2.46525562       9.96593915       3.65568936       0.00211475      -0.00914532       0.00343662
C        4.92840146       1.42032865       3.49424108      -0.00899102       0.00419895       0.00229301
S        3.61162523       3.74301168       2.77041454      -0.00682471      -0.00626488      -0.00205562
C        1.23878153       7.79181693       3.88883718       0.00287768      -0.00435671      -0.00275264
C        0.00101965       9.95092589       3.70702404       0.00247489       0.00310771       0.00262798
C        7.38209882       1.41455132       3.68459925       0.00499608       0.00376506       0.00081235
C        6.17245498       3.56030140       3.67151541      -0.01091795      -0.00340347       0.00971183
C        5.00120276       5.76614367       3.78817197      -0.01134875      -0.00475591      -0.00628190
C        3.73145642       7.82057539       3.87918323       0.00492880      -0.00027653      -0.00933599
C        2.46224741       9.94372945       3.79518240       0.00738775       0.00681889       0.00086146
C        9.84719091       1.40474204       3.77124793       0.00714485      -0.00055375       0.00081191
C        8.62624017       3.55075695       3.76859231      -0.00138925      -0.01026645      -0.00575785
C        7.42302590       5.70045153       3.78709288       0.01345473       0.00957313      -0.00606468
C        6.18892795       7.85814657       3.80547696      -0.00281558      -0.00141516      -0.00244638
C        4.93147683       9.96556061       3.79097694      -0.01028026       0.00578341      -0.00881958
Zr       2.52222741       4.92997400       4.78923913       0.01519415      -0.01102319       0.00527218
