49
Lattice="12.336457 0.0 0.0 -6.168228499999997 10.683685154694365 0.0 0.0 0.0 15.0" Properties=species:S:1:pos:R:3:forces:R:3 energy=-445.5331363451925 free_energy=-445.5331363451925 stress="-0.005935155951109012 0.0008268982173038136 -3.2876086795325706e-06 0.0008268982173038136 0.00045168915388064934 -2.400748983030322e-06 -3.2876086795325706e-06 -2.400748983030322e-06 -6.739698656652185e-08" pbc="T T T"
C        0.00127976       0.01077490       3.70917023       0.00692587      -0.00165080       0.00716666
C       -1.24316047       2.12740856       3.66252913      -0.00386182      -0.00677437       0.00729746
C       -2.48297671       4.27082858       3.60646512      -0.00623216      -0.00692352      -0.01205309
C       -3.70875295       6.41684667       3.61771870       0.00352037       0.00283115      -0.01278244
C       -4.93239102       8.56469052       3.66897908       0.00721029       0.00076903       0.01413203
C        2.47226592       0.03512199       3.74126520      -0.00194103      -0.00809863       0.01225619
C        1.23300334       2.18039616       3.83923857       0.01383160       0.00103199       0.00170914
C       -0.03894423       4.26262599       3.77065212       0.00386656      -0.00051014       0.00233266
C       -1.26414828       6.42486279       3.65529978       0.00022986       0.00689987      -0.00223086
C       -2.47724710       8.56555033       3.65924973      -0.00987779      -0.00167591       0.00427805
C        4.93682154       0.00621230       3.70530359      -0.01024305      -0.00264965       0.00524505
C        3.73697994       2.16464066       3.87834591      -0.00952140      -0.00173351      -0.00546402
C        1.18862729       6.39366742       3.91176262       0.00099200       0.00439001       0.01307103
C       -0.00991402       8.53800376       3.71651103       0.00484531      -0.00092635      -0.00598030
C        7.40591562      -0.02076610       3.67981064       0.00796144       0.00972726       0.00279218
C        6.18016560       2.12346712       3.67496999       0.00186719      -0.00233340       0.00670933
C        4.97595105       4.23321946       3.83760568      -0.00479082       0.00615091      -0.01228131
C        3.73333982       6.38499612       3.95391571      -0.01540182      -0.00329579       0.00156242
C        2.46740698       8.52343361       3.79732251       0.00014407      -0.00591407      -0.00855440
C        9.86804230      -0.01869612       3.68512104      -0.00525288       0.01393484      -0.00047061
C        8.63664482       2.12179640       3.61593936       0.00040939       0.00603343       0.00403155
C        7.40753401       4.26846523       3.62229834       0.00686689      -0.00729083      -0.01198183
C        6.17943054       6.41150177       3.69930589       0.00474161      -0.00139042       0.00236319
C        4.94182626       8.53802030       3.73870537      -0.00396170      -0.00369980      -0.00239663
C       -0.00307400       1.43421542       3.72921731       0.00964994      -0.00504266      -0.00667976
C       -1.26639060       3.54777152       3.64491430      -0.00647576      -0.00737655       0.00000624
C       -2.48419637       5.70249545       3.61528914       0.00100605       0.00238290      -0.01515934
C       -3.70569711       7.84822565       3.64141775      -0.00021411      -0.00402919       0.00167405
C       -4.92960895       9.99204702       3.70524446       0.01000935      -0.00882623       0.00880751
C        2.48295396       1.46493225       3.83867926      -0.00159965      -0.00639581      -0.00747974
C        1.17306414       3.57830125       3.93429610       0.00150079      -0.00271744       0.00200265
C       -0.03423595       5.71323344       3.77129047       0.00745404       0.00436009      -0.00012006
C       -1.24817449       7.84426230       3.66962928      -0.00358667       0.00813497       0.01091131
C       -2.47065411       9.99132949       3.70293135      -0.01109466      -0.00648381      -0.00006785
C        4.94928171       1.43108607       3.73877994      -0.00754094       0.00273022      -0.00237041
N        3.81797269       3.53240930       4.05718580      -0.00242611      -0.00411740      -0.01031636
C        1.22578130       7.80250786       3.80848116       0.00689643      -0.00330965       0.00357424
C        0.00009858       9.95885093       3.69391691       0.00140512       0.00304496       0.00624142
C        7.40769535       1.40441623       3.64207216       0.00826843       0.00648472       0.00318299
C        6.18818055       3.53963932       3.67230752       0.00433592      -0.00225394       0.00230759
C        4.94372922       5.68592902       3.83655871      -0.01048332       0.00718457      -0.00437658
C        3.70615683       7.79703438       3.82988322      -0.00837503      -0.00932112       0.00137736
C        2.46857957       9.94509073       3.71156258       0.00445088       0.00467092       0.00532336
C        9.86464253       1.40491038       3.64143140      -0.00784316       0.01475066       0.00174736
C        8.63199377       3.55258896       3.59902839       0.00121215      -0.00625820      -0.01475119
C        7.40108749       5.69783604       3.63637592       0.00412943      -0.00341662      -0.01126630
C        6.17347116       7.83729069       3.69619176       0.00443060       0.00475219       0.01294938
C        4.93733852       9.96115711       3.70593158      -0.00732325       0.00758308       0.00194328
Zr       2.43969751       4.98391994       4.98461777       0.00988554       0.00656803      -0.00021256
