49
Lattice="12.336457 0.0 0.0 -6.168228499999997 10.683685154694365 0.0 0.0 0.0 15.0" Properties=species:S:1:pos:R:3:forces:R:3 energy=-432.7631275181973 free_energy=-432.7631275181973 stress="-0.002086969855896449 -0.0019490997248670229 6.257193918807713e-06 -0.0019490997248670229 -0.003964109291587902 2.605214517669719e-06 6.257193918807713e-06 2.605214517669719e-06 -4.753162612368645e-07" pbc="T T T"
C       -0.01818015      -0.02891153       3.75377548      -0.00966339      -0.00333715       0.01036082
C       -1.25366804       2.11965138       3.95001913      -0.00687830      -0.00107130       0.00160014
C       -2.49267701       4.25612419       3.90886015      -0.00031008       0.00093038      -0.01117840
C       -3.70265163       6.39013100       3.78359050      -0.00637115       0.00608082      -0.00277327
C       -4.93959134       8.52510305       3.69134349       0.00822243      -0.00318873      -0.00012827
C        2.45948271      -0.06238888       3.59446846      -0.00665157      -0.00203560       0.00612612
C        1.24789388       2.01976422       3.98600120       0.00626080      -0.01049450      -0.00255724
C       -0.07414826       4.32481012       4.23813122      -0.00685924      -0.00042473       0.00596882
C       -1.24971529       6.40971222       3.86556246      -0.00173506      -0.00166537       0.00373486
C       -2.46944683       8.51249733       3.63802229      -0.00239589       0.00089580       0.00663564
C        4.92542668      -0.03187074       3.50429110      -0.00355121       0.00426473       0.00201043
C        3.64863834       2.05907063       3.33849173      -0.00274330       0.00160563      -0.00654210
N        1.17215472       6.43548519       4.17649474       0.01366102      -0.00522917       0.00273180
C       -0.00576552       8.50866615       3.69367455       0.00223175      -0.00260218      -0.00035036
C        7.38780101      -0.02521484       3.61990772       0.00477980       0.00792532      -0.01513797
C        6.13661913       2.13354188       3.51951765      -0.00170182       0.00746026      -0.00051793
C        4.92255079       4.33919361       3.56282481       0.00163593       0.00012221       0.00142059
O        3.80321345       6.45606147       3.17848481      -0.00046371      -0.00999737       0.00935319
C        2.45713297       8.48894741       3.69731844       0.00299078       0.00604890       0.00272556
C        9.84443812      -0.02118282       3.72620107      -0.00174612       0.00228089      -0.00169891
C        8.60961281       2.12112978       3.74797276      -0.00274969      -0.00381300       0.00469881
C        7.37036030       4.25770935       3.75593108       0.01000270       0.00386921      -0.01149548
C        6.19864904       6.43420033       3.79715619      -0.00522709      -0.00327655      -0.00530696
C        4.92763080       8.53784438       3.67486527       0.00581370      -0.00837593      -0.00202401
C       -0.01791733       1.39009015       3.91366184      -0.00203135      -0.00099943       0.00221461
C       -1.26170875       3.54970958       4.03636217      -0.00501998      -0.00225943       0.00192626
C       -2.47297176       5.68035667       3.85423405      -0.00686650       0.00434004      -0.01244753
C       -3.70259043       7.80842221       3.70206316       0.00356503      -0.00024780      -0.00429046
C       -4.94962046       9.93951513       3.67326619      -0.00637181      -0.00411638       0.00688003
C        2.45325650       1.35309371       3.62547049       0.00556063       0.00025733       0.01624214
P        1.43908340       3.58632943       4.70049169      -0.00170270       0.01039370       0.00278084
C       -0.02209189       5.73555243       4.10287719       0.00455829      -0.00295813      -0.00640497
C       -1.23749541       7.80839335       3.71683132      -0.00364025      -0.00081211       0.00647704
C       -2.46875307       9.92859728       3.54837225      -0.00648381      -0.00024842       0.00350337
C        4.90381175       1.41015861       3.41724715      -0.00285903       0.00950371      -0.00252453
S        3.44281143       3.74869746       2.83270835       0.01012869       0.00165006      -0.00366960
C        1.21200651       7.77508865       3.84504282       0.00738734      -0.00212596       0.00967464
C       -0.00707306       9.93601770       3.58620267       0.00315067       0.00381350      -0.00180683
C        7.37201975       1.41226464       3.62002262      -0.00247513       0.00377578       0.00147395
C        6.13826405       3.55300554       3.61309306       0.00859757       0.00435676      -0.00248692
C        4.98240182       5.74843246       3.66838416      -0.00171794      -0.00372343      -0.00652236
C        3.70940304       7.85221261       3.62841265       0.00214417      -0.00058001      -0.00210007
C        2.45056193       9.93906402       3.67225202       0.00299585       0.00812058      -0.00495148
C        9.84964053       1.41150782       3.80746788      -0.00608605      -0.00122660       0.00493729
C        8.61105970       3.54406578       3.80696792       0.00610554      -0.00351544      -0.00871625
C        7.40050045       5.68138963       3.79864551      -0.00324539       0.00475769      -0.00977246
C        6.17027836       7.83581102       3.72026015       0.00954241      -0.00413349       0.00421069
C        4.91274259       9.96043060       3.71900893      -0.00748948      -0.00633383       0.00821463
Zr       3.06401299       5.43026776       4.94246700      -0.00429808      -0.00366123      -0.00049792
