49
Lattice="12.336457 0.0 0.0 -6.168228499999997 10.683685154694365 0.0 0.0 0.0 15.0" Properties=species:S:1:pos:R:3:forces:R:3 energy=-434.7333733654507 free_energy=-434.7333733654507 stress="-6.863624628019571e-05 -1.583532799120276e-06 8.103752016652011e-06 -1.583532799120276e-06 -0.00017146913585267229 -4.095129104569216e-06 8.103752016652011e-06 -4.095129104569216e-06 -4.092919071270395e-06" pbc="T T T"
C       -0.01370924       0.00524745       3.88434726      -0.00086894      -0.00069003      -0.00205590
C       -1.24167925       2.14162900       3.95075463      -0.00044649      -0.00663834       0.00145001
C       -2.46040482       4.27050802       3.92768662      -0.00010014       0.00259459       0.00207812
C       -3.69849306       6.40795808       3.85005867      -0.00354302       0.00023713      -0.00182637
C       -4.95138739       8.54476700       3.81263429       0.00486690       0.00073660      -0.01687586
C        2.44928699      -0.00147265       3.88209482      -0.00318370      -0.00038574       0.00225378
C        1.20843854       2.16145199       3.90534941      -0.00178477      -0.00672691      -0.00336480
C        0.01561864       4.26051875       4.02307788      -0.00191549      -0.00150912      -0.00587354
C       -1.23177435       6.41056081       3.97391243       0.00150865       0.00776828      -0.00111639
C       -2.47897870       8.54091971       3.91895726       0.00104120       0.00136470       0.00253947
C        4.91783242      -0.00339828       3.82903975       0.00132199       0.00277686       0.00511026
C        3.66286309       2.09548194       3.50736037       0.00169219       0.01339885      -0.00177687
N        1.18909002       6.43339964       4.00980003       0.00118823       0.01100462       0.00223326
C       -0.01738153       8.53143035       3.92877005      -0.00128438       0.00190239       0.01325334
C        7.38574518      -0.00505416       3.87527515      -0.00417353      -0.00136932       0.00027385
C        6.15644529       2.12726086       3.63988056       0.00346036       0.00644870       0.00517516
C        5.02256696       4.26947707       3.14871723       0.00241093       0.00418766      -0.00557998
S        3.60813277       6.49270547       2.34302491      -0.00108969      -0.00530394      -0.00179694
C        2.43977537       8.52813427       3.79715345      -0.00109309      -0.00262471       0.00082678
C        9.85270138      -0.00326916       3.88262602      -0.00381065      -0.00076488       0.00584412
C        8.62463071       2.13573972       3.86918801       0.00224903      -0.00225073      -0.00989886
C        7.40986168       4.26908492       3.71017706      -0.00887990      -0.00319922       0.00854912
C        6.19688132       6.43007039       3.52671227       0.00435485      -0.00565870      -0.00000407
C        4.91879844       8.54697661       3.65378562       0.00403053       0.00094833      -0.00303945
C       -0.01740896       1.43505741       3.92995515      -0.00233798      -0.00571227       0.00806463
C       -1.23161780       3.55585509       3.97408139      -0.00109266      -0.00554790       0.00012952
C       -2.46041353       5.69564898       3.92685013      -0.00000928       0.00710824       0.00742928
C       -3.71182692       7.83096216       3.86920652       0.00219589      -0.00051518      -0.00753589
C       -4.95088332       9.97157839       3.87826699      -0.00325873      -0.00085726      -0.00471577
C        2.43954980       1.43819109       3.79570386       0.00146916       0.00339779       0.00624240
N        1.18896035       3.53302286       4.00705254       0.00093067      -0.01192825       0.00694729
C        0.01567147       5.70608012       4.02328329      -0.00132476       0.00129331      -0.00386459
C       -1.24174506       7.82487642       3.95059376       0.00065160       0.00543909      -0.00308013
C       -2.48392959       9.96979253       3.88310284      -0.00103476       0.00104338       0.00250376
C        4.91877688       1.41930171       3.65397441       0.00633920       0.00677654      -0.00803700
S        3.60930489       3.47353576       2.34170748       0.00224070       0.00330738       0.00025151
C        1.20850099       7.80489188       3.90655496      -0.00113621       0.00492973      -0.00383854
C       -0.01359918       9.96122896       3.88228441      -0.00120980      -0.00183661      -0.00172979
C        7.38531785       1.42174834       3.81030951       0.00217135      -0.00046677      -0.00906563
C        6.19710798       3.53689062       3.52917597      -0.00443437       0.00338463      -0.00448480
C        5.02279724       5.69776989       3.14573048       0.01166695      -0.01144017       0.00217656
C        3.66284412       7.87079778       3.50812217       0.00086840      -0.00936223      -0.00173257
C        2.44945113       9.96796560       3.88097196      -0.00419308      -0.00048223       0.00337603
C        9.85749902       1.42570229       3.91941243       0.00104691      -0.00404774      -0.00246613
C        8.63785582       3.55875834       3.85105005      -0.00209974      -0.00158340      -0.00337233
C        7.40974191       5.69817756       3.70932152      -0.00431051      -0.00649254       0.00820498
C        6.15645162       7.83935865       3.63981914       0.00336012      -0.00080565       0.00500150
C        4.91790824       9.96962537       3.82983138      -0.00108492       0.00280693       0.00407355
Zr       2.94621790       4.98160352       4.25797349      -0.00136519       0.00534410       0.00314394
