49
Lattice="12.336457 0.0 0.0 -6.168228499999997 10.683685154694365 0.0 0.0 0.0 15.0" Properties=species:S:1:pos:R:3:forces:R:3 energy=-439.48382057232925 free_energy=-439.48382057232925 stress="0.00034051557976653085 0.0002726307722649703 -4.1465392984025355e-06 0.0002726307722649703 0.0026408636731862535 -1.7223059956141961e-06 -4.1465392984025355e-06 -1.7223059956141961e-06 1.628268907393046e-07" pbc="T T T"
C       -0.00401751       0.01534573       3.67608019      -0.00074826      -0.00223897      -0.00616728
C       -1.24077733       2.14007471       3.75053663      -0.00611340       0.00544202       0.01122802
C       -2.46890542       4.27005321       3.79375683      -0.00929520       0.00327542       0.01345075
C       -3.70956342       6.40755418       3.77408520      -0.00071170       0.00009771       0.00738066
C       -4.94978454       8.54715810       3.70020761       0.00402959      -0.00289447      -0.01288399
C        2.45748156       0.02029803       3.66327708       0.00049844       0.00247169       0.00246547
C        1.21138414       2.18378113       3.82256974      -0.00036795      -0.00531785       0.01117269
C        0.00288090       4.25473114       3.96352520       0.01228285       0.00548071      -0.00264560
C       -1.24184285       6.41180600       3.81572331      -0.00133192       0.00022990       0.00094416
C       -2.47793959       8.54601665       3.70385612      -0.00689701      -0.00404080       0.00933727
C        4.92679324      -0.00981264       3.63552006      -0.00169723       0.00323745       0.00364226
C        3.70462708       2.09721161       3.54844245       0.00524275       0.00493226       0.00131817
N        1.16069136       6.43619854       4.07868719       0.00923484       0.00109454      -0.00554808
C       -0.00744112       8.52263353       3.73452318      -0.00818268      -0.00539908       0.00028655
C        7.39677075      -0.01646956       3.67174947      -0.00018071      -0.00177323      -0.00081021
C        6.16399937       2.13360467       3.69602421       0.01157730       0.00526610      -0.01294477
C        4.93861906       4.26942548       3.89231939      -0.00865240      -0.00064905      -0.00247272
O        3.70976809       6.47508534       3.41592043      -0.00510094      -0.00087222       0.01081342
C        2.45838274       8.50120005       3.66424877      -0.00594041      -0.00778715      -0.00789519
C        9.85723435      -0.01244629       3.65807991      -0.00165704      -0.00091874      -0.01348084
C        8.62730286       2.13238489       3.72548225       0.00086181       0.00353428       0.00144473
C        7.38915694       4.27023359       3.81612367      -0.00234396       0.00301753      -0.00204379
C        6.16831735       6.41661786       3.83025958       0.00598247      -0.00651333      -0.00421990
C        4.92902895       8.54566577       3.60428208       0.00789430      -0.00918926       0.00037302
C       -0.00530510       1.44495414       3.73751764      -0.00489650       0.00070455      -0.00497574
C       -1.24011552       3.55465031       3.81607874      -0.00148258       0.00945553      -0.00076150
C       -2.47037513       5.69588006       3.79394391      -0.00413688       0.00213682       0.01061166
C       -3.71140748       7.83332268       3.72823851      -0.00184794      -0.00413087       0.00087914
C       -4.94036179       9.98263993       3.67676032       0.00334797      -0.00155643      -0.00641296
C        2.46073853       1.46821404       3.66682516      -0.00049567       0.00346661      -0.01468712
N        1.16444064       3.53458604       4.07487652       0.01258999      -0.00113893       0.00137302
C        0.00128543       5.71267423       3.96370683       0.00902042       0.00861467      -0.00055324
C       -1.24278918       7.82659973       3.75034493      -0.00807777      -0.00262209       0.00287583
C       -2.48050402       9.97898584       3.65754876      -0.00256200      -0.00293707      -0.00722795
C        4.93070625       1.41876450       3.60107804       0.00784735       0.00683632      -0.00430875
O        3.72600482       3.49885171       3.43180712      -0.00232005       0.00759671       0.01628730
C        1.20920535       7.78589671       3.82208853      -0.00619042      -0.00099065       0.00388133
C       -0.00424630       9.95133686       3.67172683      -0.00423032      -0.00392294      -0.00690435
C        7.38925194       1.41778566       3.69473833       0.00861137       0.00067433      -0.01625914
C        6.17161082       3.54588401       3.81482835      -0.00188413       0.00587574      -0.00291962
C        4.93523259       5.68249505       3.92076243      -0.00139918       0.00530351       0.01486333
C        3.70036289       7.86940662       3.54516694       0.00101579      -0.00272198      -0.00136545
C        2.45795419       9.94776478       3.66087510      -0.00221165      -0.00695307       0.00143191
C        9.86048477       1.42029749       3.70367372      -0.00380782       0.00383266       0.00659881
C        8.62903319       3.55794767       3.77270728      -0.00704233       0.00179196       0.00281597
C        7.38677774       5.69475384       3.81950328       0.00345938      -0.00337130       0.00425585
C        6.16066434       7.82882579       3.70541109       0.00921032      -0.00926167      -0.00745221
C        4.92711190       9.97508950       3.63816852      -0.00049268      -0.00610589       0.00533190
Zr       2.85946548       4.99259022       4.65106215      -0.00040819      -0.00106197      -0.00012281
