49
Lattice="12.336457 0.0 0.0 -6.168228499999997 10.683685154694365 0.0 0.0 0.0 15.0" Properties=species:S:1:pos:R:3:forces:R:3 energy=-434.6155018260023 free_energy=-434.6155018260023 stress="-0.006896095497307329 0.005737370361795989 -4.5475724036704894e-07 0.005737370361795989 -0.004925861941842703 -1.4653084500441699e-05 -4.5475724036704894e-07 -1.4653084500441699e-05 -1.334417296182731e-06" pbc="T T T"
C        0.01379023       0.01388433       3.68539647       0.00524298       0.00284281       0.00358895
C       -1.19438112       2.16374415       3.66088678      -0.00268456       0.00121767      -0.00313585
C       -2.43997421       4.28861753       3.81914150       0.00077752       0.00921706       0.00037485
C       -3.70615580       6.42140556       3.84426446       0.00060670      -0.00488887      -0.00183772
C       -4.95526066       8.54434431       3.75376085      -0.00154564       0.00650530       0.00198386
C        2.47333233       0.01038679       3.75407591      -0.00862435       0.00138105       0.01526754
C        1.28544267       2.14101233       3.48713666      -0.00308513      -0.01797894       0.00798822
C        0.00096354       4.35667997       3.51497132       0.01453325      -0.00247693      -0.00924517
C       -1.28043082       6.46916987       3.72851632       0.00175172       0.00010199      -0.00609990
C       -2.48697117       8.57232814       3.80922673      -0.00283126      -0.00216679      -0.00415248
C        4.94556894       0.01066119       3.83514907      -0.00756271       0.01002318       0.00248351
C        3.75797145       2.14240627       3.82964804      -0.00192283      -0.00056508       0.00881517
N        1.10967994       6.49821992       3.92394660       0.00905138      -0.00954444       0.00379713
C       -0.01991547       8.57020067       3.79536987       0.00083760      -0.00473330      -0.01430870
C        7.42322626       0.00164758       3.85837375       0.00342614      -0.00027795      -0.00286825
C        6.21596997       2.11571090       3.93225575       0.00141095       0.00769644      -0.00669691
C        5.00352177       4.20192049       3.94612157      -0.00315109      -0.00642672      -0.00119413
S        3.55351301       6.18416663       3.13129220       0.00123619      -0.01673134       0.00022122
C        2.45142029       8.54503871       3.73701801      -0.00599848       0.00218841      -0.00838621
C        9.88876977       0.00627519       3.75802513       0.01194362      -0.00136910      -0.00417403
C        8.67839981       2.13897078       3.86918007      -0.00211859       0.00351425      -0.00518047
C        7.44254448       4.26560686       3.93311032       0.00102927      -0.00647385       0.00629614
C        6.18043515       6.39489631       3.79523972       0.01002411      -0.00375366      -0.00125488
C        4.92119988       8.53069727       3.65008963      -0.00427694       0.00962760       0.00218510
C        0.03042462       1.44938551       3.60893236      -0.00084085      -0.00440724       0.00000607
C       -1.21261957       3.57933192       3.68659760       0.00124567       0.00598529      -0.00035881
C       -2.47518481       5.71679226       3.80526981       0.00148729       0.00362742       0.00775737
C       -3.71750857       7.84582950       3.80593982      -0.00374826      -0.00126023       0.00036730
C       -4.93203913       9.97938361       3.72300011      -0.00269933       0.00610247       0.00612591
C        2.50562753       1.44671457       3.70034876      -0.00094352      -0.00685077       0.00866239
S        1.26711647       3.61550784       2.39249598      -0.00667062      -0.00600119      -0.00433212
C       -0.05294947       5.80171057       3.64953910       0.00328624       0.00320817      -0.00843167
C       -1.25842026       7.87401872       3.78810332      -0.00004702      -0.00212293      -0.01092221
C       -2.46816841       9.99206246       3.80664350      -0.00966385       0.00127237       0.00712749
C        4.97996015       1.42382882       3.86422772      -0.00011352       0.00980105      -0.00062804
N        3.81378025       3.50443006       3.94822317      -0.00773792       0.00029480       0.00830794
C        1.19592630       7.85922096       3.79235646      -0.00223361      -0.00844046      -0.01068405
C        0.00993144       9.98717937       3.83549385      -0.00407871      -0.00016145       0.00392540
C        7.44565044       1.41768405       3.90218714      -0.00101841       0.00360387      -0.00503308
C        6.23721095       3.51970511       3.96986047      -0.00203007       0.00379489      -0.00311879
C        5.01337189       5.59488420       3.76103991       0.00139948       0.00195929       0.00181356
C        3.66752942       7.86783107       3.56053486      -0.00718105       0.00497449       0.00734125
C        2.48066607       9.97675029       3.80292679       0.00786879      -0.00050068       0.00090642
C        9.90843515       1.43750939       3.77107687      -0.00144847      -0.00231444       0.00319328
C        8.67676170       3.56160319       3.89212715       0.00100238       0.00398501      -0.00474803
C        7.41796973       5.69094463       3.88095637       0.00785757      -0.01261993       0.00594454
C        6.15041005       7.81705061       3.70989334       0.00150179       0.00543535      -0.00077236
C        4.94259030       9.97444363       3.69933983       0.01319109       0.00323494       0.00541010
Zr       1.98826082       4.65675503       4.54540854      -0.00645491       0.01047110      -0.00232687
