50
Lattice="12.336457 0.0 0.0 -6.168228499999997 10.683685154694365 0.0 0.0 0.0 15.0" Properties=species:S:1:pos:R:3:forces:R:3 energy=-450.72537754186584 free_energy=-450.72537754186584 stress="-0.001571884758858461 0.002180505847980167 -1.8427270660259021e-06 0.002180505847980167 -0.004084057363096724 4.082756696816243e-07 -1.8427270660259021e-06 4.082756696816243e-07 -4.864802089902761e-06" pbc="T T T"
C       -0.01624742      -0.00846164       3.76298144       0.00649138       0.00103490      -0.00363937
C       -1.23231199       2.14107215       3.85000717      -0.01013026       0.00794076       0.00025925
C       -2.46141970       4.26982760       3.85191760       0.00038613      -0.00373526      -0.00181117
C       -3.71433815       6.39816461       3.76174438      -0.00189035       0.00045653      -0.00073145
C       -4.94965313       8.53655934       3.69749736      -0.00177252      -0.00179743      -0.00210728
C        2.44727289      -0.01662919       3.77307315       0.00110131      -0.00404225       0.00167126
C        1.23288412       2.13009124       3.83967533      -0.00148665      -0.00592855       0.00056111
C        0.03567293       4.29313563       3.93967061       0.01476987       0.00050366      -0.00296087
C       -1.23821520       6.41106628       3.84519425      -0.00411631      -0.00058276       0.00108242
C       -2.49028467       8.53586387       3.77174641      -0.00100662       0.00149253       0.00573651
C        4.91558952      -0.01265118       3.77141990      -0.00355565      -0.00027095      -0.00320038
C        3.68398117       2.09246433       3.74569474       0.00065539       0.00465095       0.00143896
N        2.49881446       4.17421200       3.94426657       0.00127618       0.00948293       0.00767623
N        1.16472749       6.48616435       3.96983099      -0.00379051       0.00358324      -0.01115975
C       -0.04529012       8.55189354       3.74904498       0.00746491      -0.00296978       0.00815961
C        7.38559411      -0.00238052       3.77907181      -0.00545562       0.00282735       0.00264384
C        6.15900589       2.12170606       3.77917949       0.00655169      -0.00387990      -0.00038605
C        4.91169663       4.21631372       3.64802565      -0.00333737      -0.00789719      -0.00848860
P        3.64756392       6.38274681       2.32488418      -0.00255406      -0.00029655      -0.00514949
C        2.40777143       8.55302900       3.66085262      -0.00555054       0.00090705      -0.00701736
C        9.85536266      -0.00202052       3.75617490      -0.00217666      -0.00232833       0.00580172
C        8.63157551       2.13300878       3.81817087      -0.00295100      -0.00302224       0.00845888
C        7.39468174       4.26036276       3.75478111      -0.00317376      -0.00549749       0.00339726
C        6.16280749       6.40444000       3.57690369       0.00701010       0.00400775      -0.00193787
C        4.92874167       8.54213413       3.58244909      -0.00185549       0.00352471      -0.00347157
C       -0.00627140       1.42102448       3.82382204      -0.00914127       0.00168419       0.00775307
C       -1.21438805       3.57074073       3.89001598       0.00897786       0.00841636      -0.01121196
C       -2.47159180       5.69181847       3.82642493      -0.00491048      -0.00268144       0.00276434
C       -3.72248422       7.82280946       3.74520567      -0.00171429       0.00107409       0.00493271
C       -4.95462861       9.95615367       3.74727972       0.00501591      -0.00390745      -0.00093333
C        2.45148006       1.40380560       3.78909160       0.00247767      -0.00355242      -0.00130625
C        1.26037907       3.55024527       3.92360708       0.00674163      -0.00310361       0.00115808
C        0.00541141       5.72543289       3.93459652       0.00103181      -0.00084424      -0.00209845
C       -1.25807006       7.82929924       3.79098983       0.00303316       0.00274292       0.00197278
C       -2.48724142       9.95844215       3.77100837      -0.00305425      -0.00093464      -0.01697937
C        4.92430972       1.40394755       3.76340911       0.00194950       0.00071669       0.00722456
C        3.68553375       3.49820662       3.73791248      -0.00084183       0.00783313      -0.00180719
C        1.17309823       7.85014214       3.75297211       0.00736222      -0.00027105      -0.00489021
C       -0.02128214       9.97050437       3.76209967      -0.00399634      -0.00298526       0.01817196
C        7.39367654       1.41844376       3.80091514       0.00227408      -0.00118611      -0.00259764
C        6.16020180       3.53943091       3.73495122       0.00067015      -0.01022283      -0.00369115
C        4.90822530       5.65463995       3.41257426       0.01117118      -0.00728156       0.00839201
C        3.65149882       7.82946748       3.42639642      -0.00926727       0.01141626      -0.00440498
C        2.44559870       9.97300286       3.73871435      -0.00774155       0.00516323       0.00058182
C        9.86629051       1.42294593       3.81576409      -0.00697361      -0.00186955       0.00412975
C        8.63405643       3.55719008       3.81619328      -0.00315256      -0.00470609       0.00461712
C        7.38751505       5.68694672       3.70604260       0.00198672       0.00013562       0.00168580
C        6.14623871       7.82003783       3.59325935       0.00151150       0.00688016      -0.01343789
C        4.91884652       9.96170600       3.70885548       0.00611927      -0.00017702       0.00451293
Zr       3.12589302       6.06620865       4.74429969      -0.00043280      -0.00050309       0.00063567
