49
Lattice="12.336457 0.0 0.0 -6.168228499999997 10.683685154694365 0.0 0.0 0.0 15.0" Properties=species:S:1:pos:R:3:forces:R:3 energy=-434.4852972712596 free_energy=-434.4852972712596 stress="0.0011515998498842976 0.0025466599843032484 -7.22840126321906e-07 0.0025466599843032484 0.0025674772225487445 -1.1264976033684707e-05 -7.22840126321906e-07 -1.1264976033684707e-05 -5.1788126672937525e-06" pbc="T T T"
C        0.00474221      -0.00955739       3.62296347      -0.00129707       0.00540052       0.00153844
C       -1.20999096       2.15059406       3.56621572      -0.00706298      -0.00412564      -0.00353505
C       -2.44137365       4.27400688       3.83368101       0.01005726       0.00202497      -0.00716664
C       -3.70459088       6.40855200       3.90375692      -0.00015081       0.00062697       0.00153979
C       -4.93991022       8.53959946       3.80059775      -0.00042592       0.00137239       0.00168892
C        2.47330272       0.00326526       3.71001333      -0.00878437      -0.00762623       0.00091178
C        1.26398044       2.11016990       3.31845842       0.00028903      -0.00407668       0.00211279
C        0.02792170       4.35469598       3.59421364      -0.00046465       0.00653159       0.00411830
C       -1.25858970       6.44440601       3.95908204       0.00581504       0.00149075      -0.00287404
C       -2.47059978       8.55388807       3.83495195      -0.00112728      -0.00545203      -0.00243998
C        4.93802359       0.00637844       3.75009147      -0.00301591      -0.00292723       0.00685817
C        3.73244855       2.11279170       3.77437328       0.00387338       0.00056939       0.00632346
O        1.15071092       6.47274988       3.47699555      -0.01374968      -0.00596889      -0.00078038
C       -0.01035903       8.55308719       3.71290596      -0.00198636       0.00084300      -0.00025495
C        7.41879924      -0.01593861       3.71190889       0.00140255       0.00295400      -0.00073551
C        6.19228534       2.13096486       3.80745301       0.00181820       0.00227668       0.00101123
C        4.97838270       4.26617658       3.99340300      -0.00752902      -0.00029184       0.00555522
N        3.72848438       6.39719111       4.03332978       0.00645630       0.00231298      -0.00245983
C        2.46142410       8.48963934       3.69484637       0.00303250       0.00903182      -0.00243945
C        9.87598220      -0.01715932       3.66875200       0.00935127       0.00040271       0.00048200
C        8.65862278       2.13447707       3.74708040      -0.00208166      -0.00467848      -0.00259453
C        7.41307370       4.26994218       3.88204650      -0.00225321      -0.00294632      -0.00033898
C        6.16553617       6.40180000       3.89548179      -0.00606805       0.00548172       0.00283938
C        4.92522966       8.51153289       3.77284398       0.00252228       0.00337510       0.00166536
C        0.02106452       1.42512168       3.47795239      -0.00468694       0.00362904       0.00355330
C       -1.21742069       3.56455481       3.67064606       0.00498323      -0.00420655      -0.00359955
C       -2.46606030       5.70066457       3.92316468       0.00767349       0.00548656      -0.00659022
C       -3.70694877       7.83365688       3.86072811      -0.00109936      -0.00176072      -0.00204319
C       -4.93047950       9.96879035       3.70678347      -0.00838418      -0.00288780      -0.00215482
C        2.49472729       1.45071407       3.61387171       0.00310973      -0.00280218       0.00818246
S        1.31357789       3.68327438       2.43103660       0.00366942      -0.01374808      -0.00335127
C       -0.03158824       5.74629932       3.87391722      -0.00064191       0.00006376       0.00336250
C       -1.24639101       7.85093853       3.84638151       0.00099488      -0.00198834       0.00539699
C       -2.46710111       9.98420681       3.77133161      -0.00660091      -0.00546186      -0.00226861
C        4.95117823       1.43540666       3.77023878       0.00433256       0.00068086       0.00819960
O        3.77271295       3.49941874       4.03655323       0.00489014       0.00718608       0.00488884
C        1.20756613       7.87174188       3.61085346       0.00104705       0.00573963      -0.01315944
C        0.00687239       9.97712921       3.72587761      -0.00001641       0.00071643      -0.00124218
C        7.41711567       1.42073409       3.75581353      -0.00188245       0.00007625      -0.00291843
C        6.18087451       3.55088019       3.88735200      -0.00583466      -0.00130994      -0.00178089
C        4.91664673       5.68723305       3.98939987      -0.00327045      -0.00416011      -0.00496462
C        3.70368797       7.75862657       3.83297420       0.00353267      -0.00603113      -0.00059061
C        2.47665374       9.93958681       3.69155493       0.00764800       0.01103817      -0.00555149
C        9.89168605       1.42196456       3.65895312      -0.00357045      -0.00630082      -0.00018337
C        8.65296893       3.55882484       3.82425192       0.00571427      -0.00249985      -0.00274077
C        7.39299864       5.69099724       3.89965607      -0.00645501       0.00223388       0.00244556
C        6.16097437       7.81546578       3.82480181      -0.00053694       0.00702139       0.00076175
C        4.93360136       9.94551648       3.68087344       0.00689001       0.00227360      -0.00234908
Zr       2.07493939       4.85354806       4.52430602      -0.00012662       0.00041047       0.00767202
