49
Lattice="12.336457 0.0 0.0 -6.168228499999997 10.683685154694365 0.0 0.0 0.0 15.0" Properties=species:S:1:pos:R:3:forces:R:3 energy=-435.64176019276726 free_energy=-435.64176019276726 stress="0.0008390191355728473 -0.0027440991993479607 -4.045560231408371e-06 -0.0027440991993479607 0.0009169492327684485 5.229156900339554e-06 -4.045560231408371e-06 5.229156900339554e-06 1.2596013308124104e-06" pbc="T T T"
C        0.01195891      -0.02910875       3.96064588      -0.00061745       0.00890527       0.00190261
C       -1.25525366       2.08206709       4.06955039      -0.00206512       0.00467857      -0.00060967
C       -2.47418563       4.23669322       4.11726772       0.00592789       0.00148077       0.00191917
C       -3.66435575       6.38403924       4.02512852      -0.00261456      -0.00069081       0.00343990
C       -4.90223118       8.52813793       3.98489255       0.00433209      -0.00506770      -0.00245678
C        2.47699310      -0.01020828       3.83433418      -0.00374942      -0.00724143       0.00632976
C        1.19928972       2.09040405       3.83282731       0.00203178       0.00610885      -0.00367076
C       -0.06398606       4.18758341       4.17702282       0.00454952      -0.00585367      -0.00046726
C       -1.18114883       6.35735726       4.05973420       0.00156571       0.00711763       0.00543227
C       -2.42646690       8.51264046       3.89588107      -0.00071906       0.00211609       0.00378063
C        4.93866897      -0.02699606       3.68001432       0.00233886      -0.00208249      -0.00910655
C        3.68055158       2.06581446       3.32981211      -0.00472082      -0.01474544       0.00529587
O        1.27666502       7.04534075       2.09759147       0.00060599       0.00235952       0.00216812
C        0.01231425       8.51223456       3.59155697       0.00106855      -0.00231291       0.00696827
C        7.40489607      -0.03164081       3.68669527       0.00446367      -0.00019613       0.00447323
C        6.15996389       2.12739302       3.58673213       0.00371291      -0.00203954       0.00329368
C        5.02540861       4.33762969       3.37369198       0.00604064       0.00857596       0.00521288
N        3.78777087       6.41399797       3.69990687      -0.00562294       0.00453656       0.00284545
C        2.49152627       8.51050796       3.60832096      -0.00786217       0.00740461      -0.00563518
C        9.86708287      -0.04398298       3.88745392       0.00018515       0.00600054      -0.00559088
C        8.62262031       2.10540903       3.89793280      -0.00099390      -0.00179742       0.00211639
C        7.41174218       4.25598636       3.86858151       0.00067038      -0.00380135       0.00437802
C        6.20889533       6.41039882       3.89982434       0.00154626      -0.00174013       0.00097907
C        4.95926696       8.51493178       3.89879558      -0.00301729      -0.00483039      -0.00597508
C       -0.00163548       1.40007135       3.98057367      -0.00054393       0.01174300      -0.00269545
C       -1.27117041       3.48492708       4.19495306       0.00692055       0.00051934       0.00346004
C       -2.43483073       5.66132351       4.09148733       0.00208508       0.00399833      -0.00467469
C       -3.66354171       7.81076319       3.98833247       0.00308553      -0.00310919      -0.00337901
C       -4.91457856       9.95740025       3.94482863      -0.00436767      -0.00381049       0.00363640
C        2.44914499       1.42893807       3.67603005      -0.00506394      -0.00579545       0.00019477
O        1.15337635       3.48812795       3.91262755      -0.00623687      -0.00407193      -0.00152927
C        0.02498894       5.59152710       4.16816386       0.00035519      -0.00970754      -0.00136670
C       -1.18771937       7.78656739       3.84297312      -0.00473879       0.00389383      -0.00866035
C       -2.45304792       9.94656775       3.79868139       0.00017549      -0.00180012      -0.00109076
C        4.92228711       1.40915511       3.52978304       0.00020010       0.00060918      -0.01354783
S        3.70041764       3.61413185       2.49692895       0.00089059       0.01058236      -0.00311122
C        1.25995402       7.89675106       3.17892022      -0.00153709      -0.00343152       0.00264006
C        0.00967233       9.93566042       3.64905448       0.00602243      -0.00144227       0.00117041
C        7.38686201       1.40430094       3.73096886       0.00342884      -0.00378709      -0.00130624
C        6.18561833       3.55497252       3.61808027       0.00187144      -0.00291987       0.00219369
C        4.98541308       5.72283935       3.67008508       0.00000811       0.00346554       0.00425195
C        3.74057249       7.79726041       3.74634697      -0.00923798      -0.00483907      -0.00306767
C        2.47042696       9.93617554       3.74476379       0.00237277       0.00706033       0.00668716
C        9.85895775       1.38096772       3.96610841      -0.00211816       0.00370024       0.00820773
C        8.62888527       3.52983856       3.97751899       0.00414556      -0.00167557      -0.00587540
C        7.42990790       5.67981340       3.95075047      -0.00161741      -0.00262353      -0.00798986
C        6.19805370       7.82129268       3.95901165       0.00322387      -0.00205900       0.00103213
C        4.94190186       9.93686007       3.93001054      -0.00080788       0.00186174       0.00063633
Zr       1.88948989       5.46568567       3.14354184      -0.00557250      -0.00324621      -0.00283940
