49
Lattice="12.336457 0.0 0.0 -6.168228499999997 10.683685154694365 0.0 0.0 0.0 15.0" Properties=species:S:1:pos:R:3:forces:R:3 energy=-430.8963524713294 free_energy=-430.8963524713294 stress="-0.003839704967830324 -0.00022709455231213456 -1.0914771532752072e-05 -0.00022709455231213456 -0.0030386046531258137 -7.380130493363879e-06 -1.0914771532752072e-05 -7.380130493363879e-06 -2.6981615543723793e-06" pbc="T T T"
C        0.00321958       0.01866255       3.70730282      -0.00198628       0.00595373      -0.00434798
C       -1.24152662       2.13755214       3.42595627       0.00604774      -0.00084239       0.00341620
C       -2.47165309       4.29235045       3.28810880       0.00267691       0.00437046      -0.00394105
C       -3.70257118       6.43183168       3.46253585      -0.00555985      -0.00774734      -0.00407749
C       -4.93586773       8.56532097       3.69624923      -0.00410471      -0.00230393       0.00010539
C        2.46704004       0.03373980       3.74633884      -0.00143646       0.00433512      -0.00574411
C        1.18298742       2.12691001       3.87652553      -0.00732603      -0.00225101       0.00314519
C       -0.07049250       4.25752674       3.50526735      -0.01725301       0.00257728       0.00489446
C       -1.25328762       6.42676673       3.59816668       0.00032179      -0.00601409      -0.00188450
C       -2.46831212       8.56558944       3.65968255       0.00339512       0.00077514       0.00358515
C        4.93051747       0.01637351       3.66146255       0.00600317       0.01381537      -0.00520865
C        3.75416429       2.11973245       3.85892496       0.00301774      -0.00548580       0.00196595
P        1.21977367       6.28386632       4.72109222       0.00522954      -0.01567407      -0.00417628
C       -0.01281821       8.58282267       3.90984527      -0.00231915       0.00270918       0.00024167
C        7.40080610       0.02877555       3.65837709      -0.00525166      -0.01346819       0.00410755
C        6.17711358       2.13866794       3.42686138      -0.00243048      -0.00239726       0.00199255
C        5.01489375       4.25705140       3.62839255       0.01766855       0.00116826       0.00501497
P        3.71311375       6.29211663       4.85275049      -0.00368624      -0.01295714       0.00450411
C        2.46709844       8.64682321       4.17320395       0.00363920       0.00313250       0.00276450
C        9.87189807       0.03044717       3.68453705       0.00030374      -0.01018724      -0.00223883
C        8.63625213       2.15096084       3.36014132      -0.00316263      -0.00538783       0.00142344
C        7.40539439       4.29381210       3.32414592      -0.00246116      -0.00031712      -0.00220121
C        6.18934389       6.42411252       3.68874753       0.00157043      -0.00071034      -0.00006452
C        4.94642057       8.58416805       3.97922361       0.00575267       0.00357432      -0.00257836
C       -0.01028668       1.44214522       3.63819684       0.00187796       0.00427880      -0.00419109
C       -1.25109403       3.54816975       3.29243160       0.00057288       0.00394531       0.00377924
C       -2.46981720       5.71655008       3.40301533      -0.00032434      -0.00373901      -0.00109730
C       -3.70276739       7.85430107       3.59645089      -0.00149096      -0.00341000      -0.00378058
C       -4.92718204      10.00171795       3.72898957      -0.00701171       0.00356485       0.00374997
C        2.46902779       1.49054134       3.88185658      -0.00102553       0.00272508      -0.00751907
O        1.10372652       3.55508913       3.82351854      -0.00408494      -0.00566156      -0.00243334
C       -0.05611281       5.63348713       3.71580005       0.01314081       0.01396428      -0.00563801
C       -1.23734253       7.84871138       3.73489392      -0.00354212      -0.00496403       0.00413453
C       -2.47606083      10.00135093       3.69892345       0.00824217       0.00978301       0.00124148
C        4.94415754       1.43970133       3.60765887       0.00257727       0.00615508      -0.00673368
O        3.85592287       3.53663871       3.95312111      -0.00853827      -0.00173935      -0.00324166
C        1.21546209       7.96616396       4.25953145      -0.00372577       0.01157506       0.00754246
C       -0.00388167      10.00004732       3.72670067      -0.00462016       0.00008757       0.00079140
C        7.40006224       1.43878658       3.44495917      -0.00863162      -0.01175999       0.00812691
C        6.18612088       3.55213190       3.35036955      -0.00183961       0.00234375       0.00210383
C        5.00077300       5.62814288       3.85915839      -0.00620025       0.01685584      -0.00802219
C        3.71556860       7.96922607       4.32410602       0.00701923       0.00745205       0.00891381
C        2.46764576      10.02932292       3.82552377      -0.00193518      -0.00678703      -0.00594978
C        9.87217375       1.43848461       3.45640552       0.00561301      -0.00763268       0.00254957
C        8.63498315       3.57725417       3.28235758       0.00043828       0.00234687       0.00329688
C        7.40163746       5.71664636       3.44962347      -0.00507350      -0.00720220       0.00056654
C        6.17207112       7.84862083       3.80593371       0.00747395      -0.00233967       0.00311449
C        4.93862986      10.00135457       3.77719417       0.00426117      -0.00065601      -0.00334024
Zr       2.41046780       4.23798211       5.42415951       0.00817825       0.01414636       0.00133771
