50
Lattice="12.336457 0.0 0.0 -6.168228499999997 10.683685154694365 0.0 0.0 0.0 15.0" Properties=species:S:1:pos:R:3:forces:R:3 energy=-445.1635417337386 free_energy=-445.1635417337386 stress="-0.0008571722187993157 0.0013278882608423065 -1.5233388976322509e-05 0.0013278882608423065 -0.0022983373233034605 -1.939739818166188e-06 -1.5233388976322509e-05 -1.939739818166188e-06 -1.9452042436835965e-06" pbc="T T T"
C       -0.01763891      -0.00967211       3.75448360      -0.00340180       0.00222673       0.00775834
C       -1.23533109       2.14203937       3.85519695       0.00141821      -0.00079985      -0.00136021
C       -2.46242708       4.26680555       3.85444554       0.00024769      -0.00208975       0.00144018
C       -3.71751979       6.39681204       3.75413033       0.00394566      -0.00005731       0.00748456
C       -4.94420335       8.53954083       3.67727342      -0.00479614       0.00141296      -0.00538248
C        2.44841727      -0.01134482       3.80794681       0.00168879       0.00781444      -0.00587902
C        1.22847269       2.12957178       3.88545302      -0.00473468      -0.01083446       0.00457198
C        0.04362799       4.29765012       3.97656418       0.00741139      -0.00655312      -0.00847166
C       -1.24210057       6.40682593       3.87449959      -0.00835363       0.00301243       0.00155313
C       -2.48513265       8.53380124       3.80098592       0.00185426      -0.00218326      -0.00201351
C        4.91960747      -0.01021073       3.82977869       0.00419154      -0.00523266      -0.00433956
C        3.68305758       2.09736207       3.80562113      -0.00154981       0.00271531      -0.00601996
O        2.48173062       4.15720933       4.02925481      -0.00146800       0.01778283      -0.00574312
O        1.14098174       6.47772978       4.00850267       0.00734167      -0.00358799      -0.00642335
C       -0.04202353       8.54838820       3.78717291       0.00725220       0.00077867       0.00313119
C        7.38863880      -0.01042337       3.81178709      -0.00003487      -0.00310459      -0.00620607
C        6.15466761       2.12711177       3.81610125      -0.00340818      -0.00084473       0.00353930
C        4.89561510       4.23060715       3.64607571       0.00090794      -0.00830800      -0.00220879
P        3.66359571       6.38079609       2.14090104      -0.01716775      -0.00246325      -0.00590305
C        2.41271608       8.53119928       3.63300280      -0.00325689       0.00933197      -0.00837438
C        9.85220942      -0.00575960       3.74534014      -0.00056050      -0.01240172       0.00222998
C        8.62739508       2.13000999       3.83348854       0.00087326      -0.00078936      -0.00636929
C        7.38966948       4.25844134       3.75179350      -0.00853094       0.01289962      -0.00130273
C        6.16651681       6.40633535       3.51150358       0.00646395      -0.00222123      -0.00397087
C        4.93233013       8.54532143       3.50419031       0.00231927       0.00437233       0.00111057
C       -0.01312998       1.41705895       3.83755993      -0.00384176      -0.00373626       0.00591040
C       -1.22063333       3.56733440       3.89875384       0.00512969      -0.00126506       0.00911304
C       -2.47975280       5.68755715       3.83362308      -0.00260953      -0.00149048       0.00755990
C       -3.72267509       7.82347458       3.74621467      -0.00237085      -0.00156464      -0.00142105
C       -4.95344445       9.95550039       3.74865882      -0.00083772       0.00711881      -0.00226629
C        2.45187050       1.39958349       3.83867857      -0.00108572       0.00608814       0.00144985
C        1.22603894       3.51621630       3.98802080       0.00088886      -0.01227377      -0.00254995
C       -0.04237370       5.71198600       3.97729509      -0.01340834      -0.00347655      -0.00154157
C       -1.26189658       7.83101635       3.82409618       0.00574375       0.00330077       0.00536875
C       -2.48403296       9.96019697       3.81369763       0.00145585      -0.00034611      -0.00227151
C        4.92636753       1.40879836       3.82041505      -0.00311881      -0.00249154      -0.01326837
C        3.70375169       3.49190776       3.77408268       0.00414682       0.00045446       0.00939682
C        1.17588634       7.86896530       3.75382903       0.00558419       0.00644491       0.00991188
C       -0.01652270       9.96937405       3.81236895       0.00595344      -0.00426110      -0.01471187
C        7.39167202       1.41632454       3.83100927      -0.00195844      -0.00220504      -0.00044698
C        6.15848833       3.53982417       3.74755355      -0.00240753       0.00112149       0.00188155
C        4.92931436       5.65132913       3.26113597       0.00605927      -0.00103579       0.00284258
C        3.66082075       7.85119988       3.24869669       0.00345903       0.00607647       0.01330584
C        2.44601358       9.97066431       3.73937743      -0.00322641      -0.00291607       0.00013679
C        9.86104794       1.42020143       3.81896055       0.00308872      -0.00968469       0.00634274
C        8.62915367       3.55338250       3.82175565      -0.00832709       0.00624708       0.00234374
C        7.38822967       5.68392158       3.68224851       0.00630698       0.00746747      -0.00156132
C        6.15151380       7.82324906       3.52927816      -0.00450534      -0.00447107       0.00315674
C        4.91810223       9.96462377       3.67612383       0.00123811      -0.00116348       0.00143929
Zr       3.21159684       6.13486754       4.59173182       0.00999020       0.00718605       0.00702784
