49
Lattice="12.336457 0.0 0.0 -6.168228499999997 10.683685154694365 0.0 0.0 0.0 15.0" Properties=species:S:1:pos:R:3:forces:R:3 energy=-430.74106518059125 free_energy=-430.74106518059125 stress="-0.004213506952089408 2.2886246639311177e-06 -1.2838403864199292e-05 2.2886246639311177e-06 -0.002004115178810209 -5.093028646683375e-06 -1.2838403864199292e-05 -5.093028646683375e-06 -2.686539133937796e-06" pbc="T T T"
C        0.01828704      -0.00159862       3.51332957      -0.00285386       0.00476566      -0.00739882
C       -1.22470841       2.13549701       3.46577272      -0.00401146      -0.00067954      -0.00115398
C       -2.44966997       4.27399357       3.52730309       0.00125369      -0.00295363      -0.00054254
C       -3.68140527       6.40965424       3.57905844       0.00980907       0.00158508       0.00867292
C       -4.91978864       8.54581573       3.60903497       0.00157746       0.00131555       0.00183352
C        2.47810756       0.00052385       3.53024240      -0.00254583       0.00200578       0.00678281
C        1.23830600       2.10944605       3.57378697      -0.00152441      -0.00344624       0.00602521
C       -0.02371381       4.27250710       3.71298947       0.00591257       0.00099064      -0.00065138
C       -1.23264898       6.41365329       3.53223977       0.00551819       0.00723895      -0.00323385
C       -2.44927948       8.54335663       3.47447993      -0.00335100       0.00105359       0.00241549
C        4.95443369      -0.00540619       3.58862033      -0.00347088      -0.00370759      -0.00754753
C        3.70653984       2.05776916       4.03671357      -0.00241025       0.00457379       0.00007765
O        1.23197536       6.45245052       3.65764809      -0.01002918      -0.00369335      -0.00348439
C        0.01807797       8.53524639       3.46429196      -0.00137248      -0.00433032      -0.00300034
C        7.41727672      -0.00632895       3.52712508       0.00107275       0.00114854      -0.01128579
C        6.19975798       2.12216892       3.82558975      -0.00684088       0.00682898      -0.00094189
C        5.11218057       4.27826044       4.43182331       0.00017659      -0.00361647       0.00080950
P        3.62304623       6.43151555       4.96414412       0.01175989       0.00931935      -0.00130330
C        2.47211012       8.53785803       3.67344981      -0.00339635      -0.00314842      -0.00442673
C        9.88334335      -0.00590361       3.51810389       0.00357897      -0.00110639      -0.01203589
C        8.64957242       2.13274988       3.53962625       0.00053291      -0.00838343       0.01252726
C        7.44342526       4.26788193       3.76085595       0.00634074       0.00297963       0.01277234
C        6.24467539       6.42938890       3.99801782      -0.00771965      -0.00292850      -0.00079830
C        4.95465570       8.55774133       3.82319409      -0.00373768       0.00245010       0.00093298
C        0.01827471       1.43125689       3.46471514      -0.00464406       0.00242655      -0.00354092
C       -1.23248724       3.55259598       3.53140248       0.00060748      -0.00107023      -0.00225674
C       -2.44997510       5.69266606       3.52779859       0.00918838       0.00085513      -0.00198058
C       -3.68708957       7.83409554       3.53993426       0.00374089       0.00063316       0.01156679
C       -4.91904775       9.97270100       3.52752620      -0.00273449       0.00288889      -0.01126278
C        2.47198001       1.42882512       3.67369634       0.00053063       0.00162265      -0.00507257
O        1.23129835       3.51471797       3.65747698       0.00167903      -0.00782766      -0.00678423
C       -0.02362068       5.69374077       3.71352222       0.00734787       0.00671483       0.00103177
C       -1.22477935       7.83074058       3.46600141      -0.00399099       0.00499013      -0.00129713
C       -2.45275959       9.97255894       3.51759746      -0.00494706      -0.00174645      -0.00814408
C        4.95484240       1.40859597       3.82334012      -0.00585754       0.00028141       0.00184926
P        3.62335243       3.53444904       4.96520493       0.01187742      -0.00843713      -0.00425857
C        1.23841405       7.85750889       3.57358035      -0.00387489      -0.00553005       0.00595184
C        0.01816530       9.96804459       3.51263965       0.00080823      -0.00445591      -0.00501945
C        7.41705475       1.42056672       3.60903855      -0.00561751       0.00191559       0.00171031
C        6.24438982       3.53682423       3.99822950      -0.00041847       0.00665550      -0.00113822
C        5.11253607       5.68844413       4.43204978      -0.00557966      -0.00493035       0.00052062
C        3.70648628       7.90861070       4.03665280      -0.00412284      -0.00278677      -0.00193511
C        2.47788214       9.96594632       3.53001611       0.00317504       0.00090975       0.00814689
C        9.88707638       1.42327193       3.47449842       0.00062308      -0.00462158       0.00217216
C        8.65534850       3.55712111       3.57869178       0.00329832      -0.00803781       0.01021422
C        7.44348442       5.69819099       3.76067475       0.00446879       0.00375591       0.01450306
C        6.19948899       7.84394416       3.82519643      -0.00299013       0.00017918      -0.00050164
C        4.95420996       9.97198647       3.58866494       0.00052159       0.00154454      -0.00388698
Zr       1.54831142       4.98290389       5.29912905       0.00264197       0.00580897       0.00436710
