49
Lattice="12.336457 0.0 0.0 -6.168228499999997 10.683685154694365 0.0 0.0 0.0 15.0" Properties=species:S:1:pos:R:3:forces:R:3 energy=-430.7640686936683 free_energy=-430.7640686936683 stress="-0.004878924780112951 0.005175948267446611 -3.8472027588005845e-06 0.005175948267446611 -0.002277042003535955 -9.769626401167079e-06 -3.8472027588005845e-06 -9.769626401167079e-06 -1.3249686065135466e-06" pbc="T T T"
C        0.01655294       0.02238911       3.63728151      -0.00649342      -0.00048895       0.01683424
C       -1.20164144       2.16563224       3.61280610       0.00065864       0.00646190      -0.00442963
C       -2.44100282       4.29024975       3.81154690      -0.00244603      -0.00836185      -0.00401308
C       -3.71329392       6.42166028       3.88999878      -0.00134991       0.00801925      -0.00164532
C       -4.94829762       8.55423856       3.76408058      -0.00815581       0.00062055      -0.00264105
C        2.47715835       0.01999499       3.76330182       0.00925667      -0.00083227       0.01006125
C        1.29206686       2.19130651       3.45698865      -0.00435401      -0.01169731       0.00736130
C        0.01376114       4.38077122       3.44046407      -0.00993231      -0.00740187      -0.01331217
C       -1.28069259       6.46329652       3.82571562       0.00781715      -0.00317016      -0.00654593
C       -2.48360043       8.57158807       3.87606047       0.00120565       0.00343249      -0.00734562
C        4.94702641       0.00499321       3.89013686       0.00559462      -0.00068240      -0.00436923
C        3.76775121       2.09772464       3.84780809      -0.00102677       0.00812059       0.01599636
O        1.12631875       6.50860343       3.96591063      -0.00427129       0.00613310       0.00307997
C       -0.01817216       8.56613550       3.85496037       0.00247240       0.01661075      -0.00463286
C        7.42833082      -0.00945750       3.86737441      -0.00260407       0.00210894      -0.00205336
C        6.22552679       2.11394934       3.98433875      -0.00096677      -0.01626665      -0.00067049
C        5.03003964       4.22239927       4.00906631       0.00845348       0.00317513       0.00539002
P        3.56526833       6.14946576       2.88845448      -0.01241903       0.00161699      -0.00749747
C        2.45214711       8.53343719       3.67186822       0.01054790       0.00019467       0.00022002
C        9.88737541       0.00470104       3.70737106      -0.00747895       0.00441409       0.00027036
C        8.67819762       2.13762358       3.86517309      -0.00484518      -0.00048276       0.00464658
C        7.44147418       4.27021995       3.97528251      -0.00611906       0.00520587      -0.00200213
C        6.17227010       6.39750564       3.80979095       0.00159137       0.00029140      -0.00169351
C        4.92434514       8.53719716       3.58171308       0.01044520      -0.01420707       0.00372956
C        0.03209902       1.45704591       3.55336663      -0.00502036       0.00128644       0.00470459
C       -1.23195737       3.58213437       3.62818676      -0.00100000      -0.00176012      -0.01320397
C       -2.48244171       5.71540571       3.85505941       0.00138484      -0.00317226      -0.00657858
C       -3.71914903       7.84901326       3.85392784      -0.00661697       0.00781825       0.00006941
C       -4.92685396       9.98720544       3.71405751       0.00043004       0.00050973       0.00074097
C        2.51996902       1.45923934       3.69113232       0.00465844       0.00105585       0.01520420
P        1.27005244       3.63566019       2.30022384       0.00047131      -0.00697310       0.00302999
C       -0.07619515       5.78499168       3.71835911       0.00712341      -0.00919627      -0.00957709
C       -1.26468254       7.87420747       3.87485145       0.00484706       0.00518313      -0.00482272
C       -2.47040896       9.99953130       3.85480425       0.00979056       0.00150755       0.00247985
C        4.98573512       1.41927057       3.91320050      -0.00366038      -0.00462038       0.00118062
O        3.82701600       3.49228799       3.97942314      -0.00468943       0.01188558       0.00586405
C        1.19601861       7.88819467       3.80467424       0.00483941       0.01330033       0.00334949
C        0.01269155       9.98314410       3.88152277       0.00289467       0.01119592      -0.00414848
C        7.44371583       1.41641991       3.92272707      -0.00024858      -0.00776345      -0.00466989
C        6.23478920       3.52384862       4.04380905       0.00344763      -0.01361160       0.00650941
C        4.95785679       5.60425206       3.79546256       0.00672763      -0.00046873       0.00644509
C        3.67986431       7.84336429       3.44625310       0.01494411      -0.00887910      -0.00604696
C        2.48062859       9.96724456       3.76351275      -0.00605968       0.00146313       0.00303097
C        9.90099491       1.43227678       3.73560961      -0.00129847       0.01006289      -0.00134363
C        8.67232105       3.56377670       3.90122109      -0.00806748      -0.00067392      -0.00322326
C        7.40093386       5.69521299       3.91468854      -0.00369173       0.00969145      -0.00523358
C        6.15783084       7.82121035       3.69607741       0.00148879      -0.00850769       0.00156224
C        4.94865838       9.97880559       3.63803451      -0.00620650      -0.00548963       0.00215361
Zr       1.96899669       4.58917979       4.47704081      -0.00206882      -0.00665843      -0.00221415
