49
Lattice="12.336457 0.0 0.0 -6.168228499999997 10.683685154694365 0.0 0.0 0.0 15.0" Properties=species:S:1:pos:R:3:forces:R:3 energy=-425.5618305760037 free_energy=-425.5618305760037 stress="-0.0047520604241584954 0.00015137618986485194 -1.9817832116524034e-06 0.00015137618986485194 -0.006932942739269564 9.256724473679893e-07 -1.9817832116524034e-06 9.256724473679893e-07 1.1265675729232401e-06" pbc="T T T"
C       -0.03364087       0.00305025       3.70757674      -0.00497893       0.00266561      -0.00756674
C       -1.25878961       2.16039504       3.75474046       0.00173717      -0.00059904      -0.00010612
C       -2.51974354       4.29104416       3.99643320      -0.00702622      -0.00208305      -0.00025232
C       -3.74555792       6.42614941       3.96291814      -0.00720717       0.00019224       0.00841464
C       -4.97994127       8.54389612       3.78744208      -0.00027689       0.00029754      -0.00249038
C        2.43704943      -0.02521889       3.77201682      -0.00259436       0.00348525      -0.00506804
C        1.21317909       2.06427261       3.47160726      -0.00473048       0.01025168       0.01227776
C       -0.11807724       4.33866844       3.96814914       0.00152998       0.00072020       0.00360930
C       -1.30897115       6.43410881       4.31089886      -0.00756363      -0.00623778      -0.00023919
C       -2.50541704       8.55530399       4.07603701       0.00838944      -0.00705899      -0.00086139
C        4.90404607       0.00749948       3.90607260       0.00233928       0.00182244       0.00174743
C        3.67920937       2.11602240       3.43196403      -0.00207269      -0.01405152       0.00156049
P        1.50239812       6.26749609       4.77690484       0.00131614      -0.00414073      -0.00732071
C       -0.02667038       8.57137542       4.21479495       0.00356555       0.00532517      -0.00176788
C        7.36935690       0.02641587       3.92904154       0.00717258      -0.00018851       0.00506727
C        6.14941701       2.13116375       3.64079088       0.00529742       0.00589325       0.00347787
C        5.10962586       4.25432138       2.88758151      -0.00484983       0.00196207       0.00391981
S        3.48512295       6.41380579       2.57569105       0.00397789      -0.00494389      -0.00571358
C        2.43974634       8.60051124       3.88676320      -0.00807096       0.00459149      -0.00448830
C        9.84535269       0.02979465       3.78754486      -0.00081425       0.00041465      -0.01083926
C        8.61080835       2.15551979       3.83586890      -0.00169522       0.00174483       0.00131243
C        7.38457765       4.28931134       3.73116255       0.00816246       0.00455847      -0.00169018
C        6.16650490       6.43048668       3.47907616       0.00667046      -0.00855842       0.00103945
C        4.89251619       8.55821359       3.58034197       0.00252897       0.00018542      -0.01072412
C       -0.03800322       1.43370767       3.64990010      -0.00174648       0.00207384      -0.00033240
C       -1.29261515       3.56966882       3.90375827       0.00030233      -0.00045731       0.00468019
C       -2.52627709       5.71493238       4.11681351      -0.01344572      -0.00415017       0.00163481
C       -3.74295518       7.84478029       3.95716126       0.00079125       0.00014892       0.00036468
C       -4.97317180       9.96679624       3.76523359      -0.00461284       0.00483803      -0.00352393
C        2.43028792       1.38803224       3.54971107      -0.00687473       0.00215267      -0.00362803
S        1.30673642       3.76318242       3.19219419       0.00970617      -0.00465523       0.00702108
C       -0.10820352       5.66868414       4.39507675      -0.00327986      -0.00015472       0.01895228
C       -1.27674088       7.85677070       4.25263859       0.00871543      -0.00656555       0.00040882
C       -2.49761384       9.97126697       3.93332150       0.00062098      -0.00189598      -0.00123228
C        4.92127370       1.42851489       3.67101313       0.00245526       0.00011009       0.00424075
S        3.79160673       3.33788088       2.05054278      -0.00561213      -0.00203122       0.00289434
C        1.24113942       7.91864033       4.23622436      -0.00700270      -0.00103150       0.00246999
C       -0.03133484       9.99380258       4.02841496       0.00582184       0.00589743      -0.00437213
C        7.38010029       1.43864134       3.81764222       0.00219012      -0.00100424       0.00221411
C        6.19389672       3.54303434       3.48408844       0.00964033       0.00545616       0.00389183
C        5.03116128       5.68338685       3.02649080      -0.00609772      -0.00024231       0.00337324
C        3.63630342       7.91833486       3.49010631      -0.00287435       0.01574866      -0.00204359
C        2.44228989      10.02034549       3.88131799       0.00193789      -0.00092521      -0.00360126
C        9.85140393       1.45319949       3.80736648      -0.00183746       0.00110329      -0.01300089
C        8.60237233       3.57451576       3.87505516      -0.00190027       0.00181951      -0.00003767
C        7.37249752       5.71231220       3.73299239       0.00456782      -0.00197520       0.00825915
C        6.12897696       7.84337350       3.59363016       0.00407743      -0.01126653      -0.00330508
C        4.89934330       9.98717984       3.71327202      -0.00133146       0.00082951      -0.01051964
Zr       3.44281708       4.50395749       4.35933478       0.00498211      -0.00007131       0.00189342
