51
Lattice="12.336457 0.0 0.0 -6.168228499999997 10.683685154694365 0.0 0.0 0.0 15.0" Properties=species:S:1:pos:R:3:initial_magmoms:R:1:forces:R:3 energy=-444.8995148781998 free_energy=-444.8995148781998 stress="-0.003388390264888672 -0.0010078024569749168 1.5341791459238213e-05 -0.0010078024569749168 0.000811209129256811 7.13998485464538e-06 1.5341791459238213e-05 7.13998485464538e-06 -2.186731889164011e-06" pbc="T T T"
C       -0.11059282       0.08875719       3.70810009       0.00000000      -0.00143783      -0.00540302       0.00629232
C       -1.36255240       2.20409384       3.65902488       0.00000000      -0.00632755       0.00105171      -0.00295644
C       -2.59630924       4.35328483       3.59051094       0.00000000       0.00118139       0.00630699      -0.00427467
C       -3.81319974       6.49981853       3.59731305       0.00000000      -0.00518976       0.00534963       0.00889361
C       -5.03462871       8.64831548       3.66638887       0.00000000       0.00136562      -0.00147982      -0.00178176
C        2.35739841       0.13350672       3.75102602       0.00000000       0.00082671       0.00012838       0.00521366
C        1.09191935       2.26492727       3.87697249       0.00000000       0.00131739      -0.00312621       0.00709946
C       -0.15147374       4.29628552       3.85266267       0.00000000      -0.00004513       0.00220499      -0.00944426
C       -1.34554077       6.48334360       3.75670072       0.00000000      -0.00336554      -0.00375038      -0.00040793
C       -2.57569234       8.64386369       3.71031121       0.00000000       0.00140937      -0.00214140       0.01021052
C        4.81901350       0.09949809       3.69980435       0.00000000      -0.00481797      -0.00218029      -0.00495645
C        3.61002283       2.27483012       3.77558817       0.00000000       0.00807067       0.00211200      -0.00533253
B        1.11774258       6.47872387       4.10446223       0.00000000       0.00909150      -0.00592529      -0.00238573
C       -0.11571582       8.63623365       3.82047199       0.00000000      -0.00540021       0.00113149       0.00060186
C        7.28923296       0.07820424       3.68511097       0.00000000      -0.00159204       0.00685436      -0.00811004
C        6.05769026       2.21675128       3.55930318       0.00000000      -0.00285506       0.00323650       0.01002222
C        4.83271183       4.32107051       3.64959372       0.00000000       0.00221822      -0.00544205      -0.00006013
C        3.63042154       6.48149473       3.93708255       0.00000000       0.00333938      -0.00099661       0.00634675
C        2.35867413       8.62746633       3.86552807       0.00000000       0.00363335      -0.00016307       0.00070157
C        9.75414895       0.07109661       3.67999712       0.00000000       0.00250387       0.00303332       0.00920525
C        8.51743924       2.21319600       3.55900576       0.00000000       0.00054972      -0.00366695      -0.00394371
C        7.28753072       4.35977093       3.50520881       0.00000000       0.01104691      -0.00423287       0.00151926
C        6.05826285       6.50076255       3.61149711       0.00000000      -0.00737396      -0.00191500       0.00582641
C        4.83212849       8.62218254       3.73086448       0.00000000       0.00591702       0.00644458       0.00899801
C       -0.12368857       1.50981544       3.73511218       0.00000000      -0.00598005      -0.00439188      -0.00054933
C       -1.38086513       3.61819302       3.66622472       0.00000000      -0.00251860       0.00463576      -0.00869968
C       -2.58948526       5.78033135       3.63181023       0.00000000      -0.00559796       0.00538310      -0.00580673
C       -3.80792769       7.93014901       3.65373611       0.00000000       0.00217529       0.00316408      -0.00051950
C       -5.03863527      10.07646639       3.71530683       0.00000000       0.00087719      -0.00358025       0.00456560
C        2.35616594       1.56196287       3.82080830       0.00000000       0.00766641       0.00120320      -0.00513116
N        0.98551354       3.60174595       4.06640479       0.00000000      -0.00093743       0.00071271       0.00256734
C       -0.14552205       5.73717433       3.88378022       0.00000000       0.00124139       0.00032627      -0.01002662
C       -1.34297289       7.91935350       3.76857299       0.00000000      -0.00221234      -0.00530193      -0.01207497
C       -2.58136589      10.07684616       3.72574803       0.00000000      -0.00254814      -0.00244943       0.00027256
C        4.82536525       1.52215214       3.65584760       0.00000000       0.00152888      -0.00247537       0.00988337
N        3.70598815       3.62362414       3.84369654       0.00000000      -0.00163821       0.00375416       0.00718832
C        1.12862506       7.94820765       3.93401320       0.00000000      -0.00151133       0.00154381      -0.00464781
C       -0.11516560      10.06055750       3.73176438       0.00000000      -0.00362715       0.00291016      -0.00848380
C        7.28711831       1.50060145       3.58137891       0.00000000      -0.00433896       0.00599569      -0.01185659
C        6.06586826       3.63724926       3.51871937       0.00000000       0.00587899       0.00041955       0.00144016
C        4.80583617       5.78535739       3.69618870       0.00000000      -0.00185578      -0.00853561       0.00465042
C        3.58915149       7.87732676       3.84841813       0.00000000       0.01021820      -0.00046020       0.00881848
C        2.35613184      10.04672943       3.73915701       0.00000000       0.00151394       0.00341394      -0.00694206
C        9.74590626       1.49301746       3.61664039       0.00000000      -0.00263162      -0.00102316      -0.00046336
C        8.51407703       3.64060430       3.52581782       0.00000000       0.01038671      -0.00562435       0.00427021
C        7.28733065       5.78854869       3.54886358       0.00000000      -0.00365180      -0.00023217      -0.00434547
C        6.06518168       7.92491671       3.66175754       0.00000000      -0.00077064       0.00168971      -0.00206029
C        4.82251756      10.04378064       3.70177604       0.00000000       0.00016203       0.00295308       0.00230163
Ag       2.38519990       5.10858597       4.90323961       0.00000000      -0.00592826       0.00396597      -0.00698648
O        4.69316195       2.55921211       6.51966858       1.00000000      -0.00779044      -0.01640046      -0.00256356
O        5.75408132       3.16953195       6.38493514       1.00000000      -0.00217639       0.01097262       0.00792208
