52
Lattice="12.336457 0.0 0.0 -6.168228499999997 10.683685154694365 0.0 0.0 0.0 15.0" Properties=species:S:1:pos:R:3:forces:R:3 energy=-446.7326174520726 free_energy=-446.7326174520726 stress="-0.0012951286853808456 -0.002805465408658145 1.2174218695221285e-06 -0.002805465408658145 -0.0014119703809120253 6.507986152570636e-06 1.2174218695221285e-06 6.507986152570636e-06 -1.0395729937400857e-05" pbc="T T T"
C        0.10757386       0.05047955       3.75379041      -0.00221627      -0.00447372      -0.01074006
C       -1.13837132       2.17263849       3.66064529      -0.00517135      -0.00036458       0.00675652
C       -2.35066850       4.31966866       3.60992756      -0.00262741      -0.00567900       0.00436275
C       -3.57048965       6.46422533       3.64567540       0.00697032       0.00269098       0.00148343
C       -4.80579503       8.60823600       3.71918580      -0.00104037       0.00120862       0.00024528
C        2.57434968       0.06043283       3.81135733       0.00308955      -0.00206036       0.00220491
C        1.31422079       2.22081530       3.79001939       0.00353313       0.00330287      -0.00370424
C        0.12801265       4.25855157       3.68814403      -0.00389099       0.00130022      -0.00220255
C       -1.08717374       6.44122816       3.71965600       0.00468790      -0.00694037      -0.00569740
C       -2.33847722       8.59630948       3.75396707      -0.00137917       0.00513306       0.00376928
C        5.04393594       0.05862076       3.85405494       0.00086118      -0.00171977      -0.00073658
C        3.77688901       2.18265496       3.99512843       0.00561981      -0.00304785       0.01321846
B        1.40288010       6.42764087       4.06619976       0.00294712      -0.00383004      -0.00267326
C        0.12029874       8.59824013       3.87400552      -0.00142245      -0.00529676      -0.00131110
C        7.50848364       0.06100250       3.83591274      -0.00431866       0.00697795      -0.00210314
C        6.26307421       2.20172965       3.82355062      -0.00734212       0.00431302      -0.00295687
C        5.08937305       4.36657661       3.89288201      -0.00010249       0.00349982      -0.00240809
C        3.82659523       6.45967188       4.06470436      -0.00332362       0.00746395      -0.00237968
C        2.58526693       8.61174918       3.95917113       0.00467870      -0.00046742      -0.00292414
C        9.97557289       0.04965451       3.78264205      -0.00382747      -0.00078867      -0.00635205
C        8.73493335       2.18955454       3.69487802      -0.00345528      -0.00159986      -0.00285208
C        7.52403151       4.33483336       3.66778240       0.00170542      -0.00175175      -0.00416888
C        6.29786596       6.48725230       3.72000950      -0.00447535       0.00109028      -0.00300411
C        5.05406531       8.59468263       3.82399136       0.00578967       0.00285542       0.00805072
C        0.09107749       1.46850455       3.72406273      -0.00403743      -0.00187267      -0.00347766
C       -1.13211232       3.58607960       3.61634910      -0.00542791      -0.00033107       0.00130875
C       -2.34076620       5.74432809       3.63619331       0.00625188      -0.00674932      -0.00270762
C       -3.57249055       7.89066368       3.69536810       0.00080986       0.00676258       0.00169880
C       -4.81971809      10.02763151       3.75798677       0.00099527      -0.00022291       0.00212435
C        2.55602915       1.48339428       3.88484056       0.00615954       0.00012561       0.00043532
N        1.28343001       3.56089057       3.75139047       0.00454866       0.00841600       0.01389310
C        0.12900903       5.69746974       3.77722097       0.00761801      -0.00309284      -0.00712125
C       -1.09925228       7.87472437       3.78333184      -0.00445039      -0.00559338       0.00515917
C       -2.35255202      10.02539399       3.81391126       0.00197120       0.00179700      -0.00496642
C        5.03205902       1.49170235       3.90020747      -0.00006939      -0.00495632      -0.00246409
B        3.85370646       3.64390251       4.19960739      -0.00223045       0.00558760       0.00122999
C        1.36619627       7.91609861       3.97204376       0.00465455      -0.00498972      -0.00342505
C        0.10942861      10.03145514       3.85659929      -0.00076198      -0.00136778      -0.00283343
C        7.50015783       1.48411534       3.77577009      -0.00806914       0.00935904      -0.00071163
C        6.28414340       3.62621536       3.77753680      -0.00158132       0.00303809       0.00390927
C        5.04928735       5.79051492       3.86070839      -0.00735591       0.00350577      -0.00451162
C        3.80975122       7.85816971       3.95335925       0.00871353       0.00884532       0.00823862
C        2.57792887      10.03187705       3.85849260      -0.00418696       0.00152174       0.00058110
C        9.96527211       1.46878342       3.69952327      -0.00472043      -0.00230237      -0.00020190
C        8.74503005       3.61485787       3.63859497      -0.00083984      -0.00650715       0.00160637
C        7.52544192       5.76152009       3.65553691       0.00338806       0.00079301      -0.00036129
C        6.29356656       7.90122472       3.74102069       0.00102748      -0.00002379       0.00903274
C        5.04209498      10.01354353       3.78260430      -0.00160297      -0.00208820      -0.00516849
Ag       2.68198929       5.16169928       5.21380855       0.00342632      -0.01002069      -0.00122340
O        1.91190799       3.98057223       6.77441025       0.00576615      -0.00074185       0.01081668
O        0.50613256       3.85253061       6.62166932       0.01280930      -0.00059543      -0.00934305
H        0.19409246       4.42355191       7.35084392      -0.01809553      -0.00011234       0.00460553
