51
Lattice="12.336457 0.0 0.0 -6.168228499999997 10.683685154694365 0.0 0.0 0.0 15.0" Properties=species:S:1:pos:R:3:initial_magmoms:R:1:forces:R:3 energy=-433.1521530545644 free_energy=-433.1521530545644 stress="0.00013451822514085174 -0.0008296959525322721 -1.757968869068553e-05 -0.0008296959525322721 -0.010590435902982157 -5.128576411428122e-06 -1.757968869068553e-05 -5.128576411428122e-06 -4.080119794666753e-05" pbc="T T T"
C        0.02340751      -0.00222218       3.46414310       0.00000000      -0.00181199       0.00067690      -0.00796247
C       -1.20639178       2.15324639       3.27967858       0.00000000      -0.00849442      -0.01330510      -0.00338021
C       -2.45589204       4.28607516       3.45319751       0.00000000      -0.00162394      -0.00148629      -0.01796298
C       -3.68505611       6.40722624       3.64465331       0.00000000      -0.00376597      -0.00452536      -0.00302333
C       -4.91793355       8.52987479       3.62449731       0.00000000       0.00349074       0.00087025      -0.01306937
C        2.48735510      -0.05220218       3.65112484       0.00000000      -0.00330700      -0.00190838       0.00387024
C        1.28770381       2.04462264       3.24822119       0.00000000      -0.00052021       0.00071162       0.00833988
C       -0.03330485       4.31418052       3.12980601       0.00000000      -0.00790331      -0.00162942      -0.00256408
C       -1.19680950       6.40239792       3.65893707       0.00000000       0.01121034       0.01491404       0.00397411
C       -2.43169349       8.52232281       3.75268892       0.00000000      -0.01218801      -0.00251055      -0.00185518
C        4.95625352      -0.01023337       3.81985556       0.00000000      -0.00361481       0.00621597       0.00567610
C        3.67905049       2.06358486       3.94264500       0.00000000       0.00347409       0.00450801      -0.00140032
P        1.62751564       6.21730611       4.12431836       0.00000000       0.00662335      -0.00408923       0.01067733
C        0.03562966       8.55699434       3.86781459       0.00000000      -0.00464694       0.00666633       0.00545105
C        7.41328905       0.04759375       3.72879450       0.00000000      -0.00216500      -0.00740017       0.00397390
C        6.17524042       2.15376152       3.85416248       0.00000000       0.01203982       0.00617086       0.00501507
C        4.98585580       4.31687451       4.03011020       0.00000000      -0.00017894       0.00293879       0.00568375
B        3.57311088       6.44036926       3.83750901       0.00000000       0.00867702      -0.00115134       0.00430800
C        2.50200986       8.65827562       3.77961514       0.00000000       0.00507272       0.00616972       0.00989892
C        9.89820258       0.05148053       3.52837149       0.00000000       0.00325092       0.00300834      -0.00112163
C        8.64854798       2.16677229       3.55757562       0.00000000      -0.00606577      -0.01159583       0.00047630
C        7.41255095       4.28689479       3.69614084       0.00000000       0.00220243       0.00512212      -0.01066796
C        6.16387964       6.41977676       3.70120236       0.00000000      -0.00801797       0.00390394      -0.01180029
C        4.95610163       8.57811963       3.61266732       0.00000000       0.00747148      -0.00193096       0.00578021
C        0.02898231       1.42263901       3.30645979       0.00000000      -0.00340169      -0.00153423      -0.00224728
C       -1.22488379       3.57008791       3.24780844       0.00000000      -0.00521172      -0.01208945      -0.00539580
C       -2.44382033       5.70110266       3.58139224       0.00000000       0.00841335       0.00529016       0.00047062
C       -3.67720847       7.82321384       3.67970245       0.00000000      -0.00591830      -0.00588744      -0.01259077
C       -4.91902247       9.94743246       3.56869928       0.00000000      -0.00195659       0.00013691      -0.01055707
C        2.47983616       1.36083688       3.62515776       0.00000000       0.00548875      -0.00044663      -0.00933922
S        1.45782291       3.61692330       2.55767300       0.00000000       0.00458746      -0.00561537      -0.00000383
C        0.02112352       5.65471767       3.53827690       0.00000000       0.00970506       0.00179478       0.00177516
C       -1.19394455       7.82067304       3.79547078       0.00000000      -0.00590797       0.01263608       0.00818494
C       -2.43812201       9.94089238       3.76517535       0.00000000      -0.00386376      -0.00377034      -0.01661013
C        4.94348528       1.41858256       3.89413021       0.00000000       0.00882903       0.01168855       0.00104688
P        3.50915062       3.63438653       4.65808784       0.00000000      -0.01214428      -0.00359967      -0.00720017
C        1.29807932       7.93387500       3.95428773       0.00000000       0.00156221       0.00461126      -0.00303008
C        0.02535114       9.98880868       3.81372806       0.00000000      -0.00709925       0.00152035       0.00648588
C        7.40988526       1.46344611       3.70791998       0.00000000       0.00057966      -0.01179433       0.00470285
C        6.18582636       3.57279666       3.86586522       0.00000000       0.00514017       0.00955974      -0.00494562
C        4.92422727       5.71153225       3.83552011       0.00000000      -0.00234107       0.00218406       0.00670229
C        3.71227652       7.93241842       3.72024017       0.00000000       0.00583221      -0.00297766       0.01157114
C        2.48975267      10.05929632       3.66532535       0.00000000       0.00444820       0.00764203       0.01141099
C        9.89693041       1.46602461       3.44025940       0.00000000      -0.00842439      -0.00563969      -0.00553404
C        8.64439725       3.58170197       3.55926162       0.00000000      -0.00089110      -0.00833632      -0.00005793
C        7.40724897       5.70684619       3.66974912       0.00000000      -0.00911002       0.00424320       0.00204692
C        6.18107830       7.83778953       3.62886055       0.00000000       0.00629373       0.00106673       0.00221737
C        4.95615601      10.00186220       3.52018015       0.00000000       0.00283770       0.00011344       0.00531225
Ag       2.20042662       5.00599678       6.13535830       0.00000000      -0.00617091      -0.01464166       0.00893396
O        2.63169614       5.22808256       8.99755221       1.00000000       0.00826582       0.00356367       0.00897230
O        1.66241325       5.03989191       8.18487018       1.00000000       0.00124904      -0.00006246      -0.00063869
