52
Lattice="12.336457 0.0 0.0 -6.168228499999997 10.683685154694365 0.0 0.0 0.0 15.0" Properties=species:S:1:pos:R:3:forces:R:3 energy=-446.5466835691541 free_energy=-446.5466835691541 stress="-0.0012239244392704173 0.0008227368752362352 5.097046217810431e-06 0.0008227368752362352 -0.001266248791294384 6.780822547774983e-05 5.097046217810431e-06 6.780822547774983e-05 -5.4288028860119755e-06" pbc="T T T"
C        0.01076482      -0.00541918       3.79212174      -0.00655274      -0.00738524       0.00679738
C       -1.21805393       2.13440847       3.76825777       0.00136147      -0.00393253       0.01767664
C       -2.48029943       4.27254874       3.60786987       0.00543026      -0.00516592       0.00444632
C       -3.70948118       6.40940023       3.58161501      -0.00348617       0.00465688      -0.00678194
C       -4.92651644       8.54686145       3.68107415      -0.00364454       0.00226758      -0.00150967
C        2.48686771       0.00495813       3.77603932       0.00137437       0.00173706       0.00265942
C        1.26755421       2.11431232       3.99297101      -0.00231682       0.00347288      -0.01220150
C       -0.05067196       4.29096342       3.85134340       0.01208171      -0.00421659      -0.01074603
C       -1.23582626       6.41711207       3.65050541       0.01010925      -0.00179402       0.00377838
C       -2.46045125       8.54917995       3.64998682       0.00571684      -0.00240567       0.00624140
C        4.94550177       0.00433804       3.69390141      -0.00287786       0.00713907      -0.00044002
C        3.73386811       2.17277657       3.83096371       0.00372147       0.00565057       0.00486025
B        1.30733326       6.38286172       3.97889798      -0.00995730       0.00747278       0.00738071
C        0.00880826       8.54828842       3.73484020      -0.00123576       0.01028492      -0.01207282
C        7.41652147      -0.00086109       3.69576791      -0.00036429      -0.00044448      -0.00078715
C        6.18104591       2.12991059       3.62821701       0.00516935      -0.00327111       0.00202777
C        4.91767366       4.22588107       3.70493523      -0.00507342       0.00432643      -0.00353673
C        3.69347520       6.38065459       3.92285312       0.00837937       0.00678533      -0.01085342
C        2.48141541       8.55617506       3.84223704      -0.00164147      -0.00051927      -0.00005694
C        9.88516758      -0.00091311       3.74431577       0.00203349       0.00451445       0.00483133
C        8.64974579       2.13359535       3.63355760      -0.00159731      -0.00301564      -0.01373810
C        7.39455260       4.27050235       3.56595386      -0.00626617       0.00256406       0.01101647
C        6.15086690       6.40208501       3.64470282      -0.00518883       0.00147997       0.00242496
C        4.94285314       8.53092596       3.77120316       0.00266064      -0.00715259       0.00250775
C        0.01569125       1.42403622       3.86145788      -0.00280818      -0.00806207      -0.00756908
C       -1.24572712       3.55491507       3.72535862       0.01059471      -0.00471964       0.00433381
C       -2.47993922       5.69923067       3.58878340       0.00371838      -0.00010709      -0.00174351
C       -3.69783267       7.83588144       3.62607663      -0.00068968       0.00419513       0.00528842
C       -4.92190766       9.97046287       3.75543435      -0.00069216      -0.00036648       0.00090237
C        2.49723195       1.42700628       3.89266664       0.00008165       0.00506685      -0.00840087
B        1.20516355       3.57729571       4.19337828      -0.00093586      -0.00161753      -0.00849016
C       -0.02580433       5.69325455       3.77858357       0.00850516      -0.00301973      -0.00057767
C       -1.22684767       7.83903994       3.66879360       0.00889113       0.00160737      -0.00365111
C       -2.45611168       9.97256289       3.70176408       0.00241288      -0.00138363       0.00641268
C        4.95332510       1.42794519       3.70163757       0.00338899       0.00389518       0.00349207
N        3.76820304       3.52824271       3.87473716      -0.00276217       0.00788322       0.00573249
C        1.25524963       7.86688225       3.84467744      -0.00496142       0.00410235       0.00115203
C        0.01150254       9.97358484       3.69663740      -0.00530178       0.00788211       0.00451896
C        7.41802213       1.42099925       3.63748437       0.00303389      -0.00630705      -0.00366590
C        6.16887899       3.54860186       3.60187656      -0.00422202      -0.00031056      -0.00063479
C        4.88780373       5.68976989       3.72637222       0.00160642       0.00242793       0.00822599
C        3.69717826       7.79082756       3.85435435       0.00210691      -0.00249207       0.00438256
C        2.48491594       9.97584678       3.75477142       0.00254401       0.00102240      -0.00459585
C        9.88568087       1.42184022       3.70322185      -0.00101767       0.00585067       0.00445942
C        8.63286472       3.55899502       3.58515223      -0.00224573      -0.00205986      -0.00724804
C        7.38632585       5.69614555       3.58028212      -0.01094913       0.00446751      -0.00976170
C        6.16919702       7.82658373       3.69388187      -0.00108237      -0.00274686      -0.00446524
C        4.94582155       9.95886352       3.76920977      -0.00510161      -0.00782117      -0.00065201
Ag       2.48492968       5.05584646       5.12864702      -0.01557447       0.00392326       0.00838652
O        2.34676835       5.72986393       7.13653163       0.00180127      -0.01082707      -0.00089567
O        2.29534969       4.57274395       7.96155593       0.00636801      -0.01250133      -0.00622844
H        3.12283712       4.67471377       8.46737734      -0.00454471      -0.01103074       0.00736829
