53
Lattice="12.336457 0.0 0.0 -6.168228499999997 10.683685154694365 0.0 0.0 0.0 15.0" Properties=species:S:1:pos:R:3:forces:R:3 energy=-3975489.805041904 free_energy=-3975489.805041904 stress="8979.942540903525 1166.196806021354 2429.0871438281383 1166.196806021354 1825.2377178978004 -348.6878400693658 2429.0871438281383 -348.6878400693658 -223.23041512430476" pbc="T T T"
C        0.89275165      -1.02160851      11.44584744       3.59856779       7.57009585      -0.54721026
C       -0.57161967       4.64797561      10.93658465     -17.10981652     145.12954467    -111.24120743
C       -5.49264279       5.12290548       5.72023836    -119.41549107       9.77949888    -302.12691011
C       -6.99569624       8.17794392      -8.18121042     -13.93850942      18.99997674      19.32676936
C        0.74440170      13.01648224      -1.90003983   -7909.39909712    5262.01731414    6034.25741137
C        3.71815740      -2.02285427       7.04982420       2.71150581      -1.87302403      -2.22724543
C        0.40987086       7.19393465       8.87054273      14.24883811      15.23733111      17.48656644
C       -2.05299094       7.08251649      -5.80703391     -12.00550539       5.74255765      -9.76278597
C        4.01912187      10.89902710       0.73168692    -208.02256323    -247.23046263     -64.41752906
C       -1.86836365       7.09200989      11.87120308     -12.11572268      -1.07364478      13.38545370
C       -7.64312871       0.85938794      -0.49198759    1072.12629042    -123.79700089   -1213.40414202
C        4.54057376      -8.40265382      21.70848421      -1.35095755      34.80233734      16.10628908
B        3.35527206       4.49147989       0.90025196 -17638139.48626552 -5427214.85087024 -1819061.12677351
N        0.79438809      12.05531332       7.64923388      -0.26324095       3.49884221       2.88334131
C       -2.90631528       6.08806611      10.12234023     -10.86255338      13.51919770       6.97486037
C        7.83405312      -5.38709648      -0.22023020 1995960.50169146 -1800406.89090135 1103269.65236342
C       12.73677291     -11.09471360       2.47689968     105.81374435     -67.39313075     -33.89233071
C        4.82310322       8.68302053       4.79338560    -126.30674931     -34.82977541    -142.39906174
S        3.29217357       4.52213055       0.58024137 -47892148.46399845 -10166770.31529761 -25408935.22026130
C        2.23348422      15.05594292      -6.25849394      -8.23981499      -1.14751971       1.20410936
C       12.95378141       0.43647085      -6.77457679     -31.23454943      87.41358702      76.98494256
C       12.74901430       7.53233718       6.62187094     -43.63503160      10.21693118     108.52988847
C        6.99140477      10.47346642       7.74784224      27.41904476     -96.35710418     -64.99308824
C        4.39307636       5.01257542       1.65135584  877585.46736745  805448.25319591 1828518.23259276
C        3.01137625       6.43427802       0.73257732 -211500.43119059  136839.52370417   36855.05851597
C        5.21354186       4.15491870       8.99013882       7.22636854      -0.26587320       3.97171111
C        0.32209566       2.80121962      -2.05741064    8153.76708408    6218.44166223    8200.18527073
C        0.87637276      -5.91625499      10.80490093      -2.01790258      15.65560194     -16.98106201
C       -5.86425225       7.57345593      17.52019793   -2455.81363926   -1467.21343026   -2352.59100167
C        5.52315608       7.74617117       5.18900885     -69.94760670    -424.84173360    -305.43867592
C       -8.67137328       2.05933569       1.32702005 -101066.50190735   77195.88626380  -22881.21839592
C        3.34492448      -1.48053433      -3.30179505       2.25119277       1.48435982      11.47283035
C        4.91668171       4.00431865       7.05223342      20.86332213      19.31006144     -78.07813076
C        2.53818625       5.98632802      -7.25541434       7.93508762      27.48552853      29.41299291
C       -0.68028681      10.26273018       9.56954927       4.54742394       2.18000681      10.08461922
C       -0.67049374       2.16910294       1.31152615    8573.25679880    6353.26102242    -920.00467009
C        2.74064555       7.61999944      -2.79429303    2760.08767564   -7970.66587671    8870.57613550
C        0.46624923       6.16176188      -3.99672139    -193.09578652     -36.65834244    -201.73397934
C       -5.47637040       2.88167491      -5.95547109       0.14869712       2.28226732       0.13912677
C        3.90464741       0.49557549       0.77120348    1237.93191132     824.54267982    2430.56960242
C        1.71334754       3.01873645       1.73380331  454254.82879937  416424.75976714 -287982.33236034
C        1.55885793       3.26715076       0.04816016 1883393.99383405 1636154.62058728  701600.09006206
C        3.06082196       7.87932833       8.84178436      -3.03642904       3.62305957     -37.37607646
C        5.64920476      11.89977766       4.33835646     -19.21352265     -72.07738485     111.67233782
C       10.51124214       1.34111358       6.34461385     -14.33943361     -40.23716440     -16.69539694
C        4.63303719       7.02135522      15.21757149  120700.58466418  144786.89570078  -12760.23295854
C        2.69827267      14.42402398       5.32404788       1.34368192       1.60112184       1.83309846
C        1.33078161       7.48120276       3.95500013    2853.49267406   -4296.28398607   -4574.51961799
C        8.09721164      15.51950882       8.79378462      21.72000827      -2.48184714       9.01978930
Ag       3.11936800       4.49072725       0.61483631 60489092.50688909 14170358.86676516 23882796.59814668
O       -0.65367465       6.20260709      22.50363450      14.20298687       2.15408926     -13.01084443
O        1.97866754       3.88078444      20.25219762    8246.13963556    2980.48558218  -16929.91186291
H        3.94999981       7.81911881      23.52154949       7.53149943       1.24412832      -4.22524841
