52
Lattice="12.336457 0.0 0.0 -6.168228499999997 10.683685154694365 0.0 0.0 0.0 15.0" Properties=species:S:1:pos:R:3:forces:R:3 energy=-448.63714413552685 free_energy=-448.63714413552685 stress="-0.0013526985919218256 -0.0008397050517596486 2.2867497602645513e-05 -0.0008397050517596486 0.0012890212031632412 3.2686618580673885e-05 2.2867497602645513e-05 3.2686618580673885e-05 -1.461933494569839e-05" pbc="T T T"
C        0.00533185      -0.00411530       3.73446127       0.00222355      -0.00163976       0.00588731
C       -1.24235103       2.11597017       3.65441135       0.00019846       0.00052793      -0.00413996
C       -2.47498648       4.26331702       3.58752241      -0.00039109       0.00669889      -0.00176283
C       -3.69762070       6.40652033       3.62791976      -0.00060759      -0.00081596      -0.00359921
C       -4.92181922       8.55255841       3.70685296       0.00446826      -0.00298692      -0.00027484
C        2.47326495       0.03784160       3.79675615      -0.00258649       0.00201309       0.00413041
C        1.21342458       2.17467469       3.87618433      -0.00453826      -0.00016652      -0.00132235
C       -0.01611429       4.20902408       3.78245444       0.00031398      -0.00261185      -0.00030896
C       -1.21677134       6.38836957       3.71473446      -0.00322893       0.00745134       0.00156392
C       -2.45754959       8.54736697       3.73007296      -0.01070512       0.00352419      -0.00715593
C        4.93321361       0.00618427       3.74902942       0.00520102      -0.00960249      -0.00218271
C        3.71950073       2.18517210       3.86713864       0.00118104      -0.00293766       0.00198209
B        1.28499536       6.37402860       4.00241547       0.00549698       0.00177366       0.00594453
C        0.00399260       8.54137688       3.79001610      -0.00008808      -0.00030882      -0.00444102
C        7.40393397      -0.00870008       3.70273020       0.00167330      -0.00326204      -0.00708141
C        6.17035612       2.12924667       3.64165749       0.00645116      -0.00633156       0.00099421
C        4.93351752       4.23095569       3.73615501       0.00355923      -0.00430079       0.00674000
C        3.70377486       6.38107584       3.90384625      -0.01108481      -0.00765352      -0.00107217
C        2.47311688       8.54280225       3.83601776       0.00486514       0.00629816       0.00495461
C        9.87228412      -0.01630613       3.69319851      -0.00811307      -0.00026812      -0.00439308
C        8.63358434       2.12540918       3.58580232       0.00481932      -0.00322652       0.01447204
C        7.40064526       4.27074007       3.56662580       0.00134940      -0.00103532      -0.00049725
C        6.16282853       6.40489542       3.65854189       0.00177962       0.00631440       0.00316259
C        4.94381188       8.52771693       3.74944551      -0.00066749       0.01045728       0.00599273
C       -0.00461613       1.41911535       3.74363776       0.00014228      -0.00068459      -0.00608650
C       -1.25634552       3.53053152       3.63711579      -0.00159504       0.00126934      -0.00626324
C       -2.46824484       5.68882438       3.62785071      -0.00079963       0.00765322      -0.00873965
C       -3.69244451       7.83555200       3.68675358      -0.00294054      -0.00438837      -0.00450495
C       -4.92423102       9.98097145       3.75306293       0.00132010      -0.00311676      -0.00062738
C        2.47023748       1.46641647       3.87093806      -0.00255926       0.00259394       0.00669781
N        1.12853789       3.52339696       3.99556964       0.00299073      -0.00087876      -0.00842490
C       -0.00444422       5.64565466       3.79527705      -0.00478996      -0.00018888       0.00868791
C       -1.22229198       7.82317464       3.74622330      -0.00968847       0.00694907      -0.00031298
C       -2.46552686       9.98100441       3.76786056      -0.00386218       0.00178389      -0.01001506
C        4.93667090       1.43208267       3.74027898       0.00494449      -0.00735886      -0.00626618
N        3.80370344       3.53903177       3.96916185      -0.00314330      -0.00350092       0.00006336
C        1.24947426       7.85691725       3.87092406       0.00433797       0.00751776       0.00306247
C        0.00040425       9.97005365       3.74244886       0.00628516      -0.00384583       0.00142448
C        7.40248193       1.41404060       3.62688549       0.00551987      -0.00464601       0.00279031
C        6.17452020       3.54965266       3.60723224       0.00332968      -0.00614851       0.00535029
C        4.90085937       5.69154432       3.73418939       0.00094423      -0.00159080       0.00429327
C        3.69575854       7.78521853       3.83470000       0.00202616       0.00280297       0.00367424
C        2.47265245       9.96223647       3.73861774      -0.00390425       0.00273513      -0.00947496
C        9.86465881       1.40548113       3.62781337       0.00222482      -0.00567570       0.00352944
C        8.62986563       3.55229261       3.55774565       0.00217919      -0.00041987      -0.00088380
C        7.39710274       5.69728753       3.60118505       0.00403650       0.00180230      -0.00293161
C        6.17576943       7.82892322       3.69910365       0.00214450       0.00975597      -0.00894940
C        4.93815897       9.95117960       3.72172818      -0.00364441       0.00878611       0.00178972
Ag       2.48293040       4.99188709       5.04430360       0.01072257       0.00833321       0.00701676
O        2.49766210       5.76386894       7.05171410      -0.01255458      -0.00165637       0.01321318
O        2.43455394       4.63211849       7.90862757      -0.01684060      -0.00908192      -0.00249647
H        3.09878033       4.87341530       8.58169283       0.01160449      -0.00671189      -0.00320891
