52
Lattice="12.336457 0.0 0.0 -6.168228499999997 10.683685154694365 0.0 0.0 0.0 15.0" Properties=species:S:1:pos:R:3:forces:R:3 energy=-444.79061565486074 free_energy=-444.79061565486074 stress="0.005617093802767208 0.0018899513253305257 7.1678432445361905e-06 0.0018899513253305257 -0.002663397579107672 5.7594209847304306e-06 7.1678432445361905e-06 5.7594209847304306e-06 -5.873142218847687e-06" pbc="T T T"
C        0.04817813       0.01356611       3.81785269       0.00515696      -0.00130320       0.00072390
C       -1.16173895       2.17439602       3.78404294      -0.00027816       0.00305284       0.01494242
C       -2.42166337       4.30438607       3.64458575       0.00047945      -0.00739186      -0.00977314
C       -3.67038349       6.42067323       3.63817388       0.00018660       0.00114338      -0.00393289
C       -4.90548529       8.54465203       3.72905348      -0.00331341      -0.00250716       0.00756822
C        2.52419829      -0.00074475       3.81189908      -0.00160702      -0.00012583      -0.00598325
C        1.31957051       2.12252024       3.99842285      -0.00855738      -0.00303898       0.00169161
C        0.03546836       4.32394224       3.81857820       0.00198112       0.00099134       0.01052533
C       -1.14977643       6.43177143       3.65480935       0.00629760      -0.00831203       0.00021093
C       -2.41783490       8.55173680       3.69355084       0.00332336       0.00095490       0.00278326
C        4.98868364       0.01539986       3.71934970       0.00182277      -0.00543808      -0.00135733
C        3.76981197       2.17296414       3.82839108      -0.00448154       0.01204325      -0.00141018
B        1.54364484       6.37747895       3.81409916      -0.00734891       0.01168979      -0.00812549
C        0.06462485       8.56469386       3.71772761       0.00141663       0.00091256       0.01149088
C        7.45178616       0.04458069       3.70142884       0.00250067       0.00818410      -0.01191053
C        6.21706703       2.15761870       3.64614884      -0.00494657       0.00443721       0.00470419
C        4.92802434       4.23799161       3.68752066       0.00657158       0.00266421      -0.00303873
B        3.47166960       6.36542539       3.81886168       0.00423233      -0.00142184      -0.00244971
C        2.51653979       8.62914652       3.78713038      -0.00486483      -0.00987110       0.00995782
C        9.92983796       0.05108414       3.74967448      -0.00493481      -0.00000794       0.00708973
C        8.69408134       2.17480359       3.65279436      -0.00069178       0.00634925       0.01456140
C        7.42782637       4.29486406       3.60331680       0.00053130      -0.00385020       0.01150956
C        6.13613395       6.40038935       3.67622055      -0.00049422      -0.00456526       0.00533089
C        4.95993972       8.55829549       3.77489092      -0.00342206       0.00140918       0.01143020
C        0.06346455       1.44718431       3.87580164      -0.00173719      -0.00035076      -0.00805277
C       -1.17827060       3.59450409       3.73767712       0.00503459       0.00036866      -0.01432642
C       -2.41401741       5.72447799       3.63234532       0.00000036      -0.00749580      -0.01497573
C       -3.66319256       7.84167444       3.68192180      -0.00038416       0.00589808       0.00142140
C       -4.89038224       9.97204974       3.79548676       0.00039119      -0.00210131      -0.00728306
C        2.53844989       1.42086915       3.90566825      -0.00422040       0.00382491       0.00266923
B        1.28183593       3.59022520       4.18589870       0.00334323       0.00228253       0.00431792
C        0.10803493       5.72420234       3.71722644       0.01014074      -0.00047295       0.00849397
C       -1.17601458       7.85061778       3.68075128       0.00417856      -0.00570641      -0.00902660
C       -2.41358902       9.97402147       3.74072920      -0.00107721      -0.00029065      -0.00314555
C        4.99499537       1.43873304       3.71859248      -0.00391538      -0.00031095      -0.00490732
N        3.77590339       3.52322050       3.83032797      -0.00140019       0.01388090       0.00335766
C        1.31265509       7.89414115       3.77220417      -0.00525290      -0.00286075       0.00511886
C        0.05705034       9.99717024       3.70638962       0.00713556       0.00264128      -0.00423672
C        7.45720577       1.46183318       3.65412717      -0.00177928       0.01255213      -0.00216368
C        6.20044557       3.57005225       3.61766897      -0.00117380       0.00186107      -0.00134582
C        4.87668291       5.67868401       3.69575137       0.00450872      -0.00231395      -0.00588443
C        3.71344254       7.88821437       3.80626094      -0.00170249      -0.00725913      -0.00758373
C        2.52218398      10.04595849       3.74283681      -0.00466103      -0.00725947       0.00081963
C        9.93558154       1.47086407       3.71933327      -0.00060598       0.00172704       0.00451517
C        8.68020216       3.59451639       3.62070627      -0.00165694      -0.00123975      -0.00199608
C        7.41083337       5.71289287       3.62922301       0.00442105      -0.00318140      -0.00373867
C        6.18503241       7.83204887       3.72694182      -0.00527545      -0.00292398      -0.00114104
C        4.98088842       9.99855080       3.78201915       0.00311874       0.00343613      -0.00517928
Ag       2.45867572       4.99928346       5.36410677       0.00797470      -0.00864470      -0.00733999
O        2.76662920       4.89350446       7.44278623       0.00029200      -0.00543175       0.00502303
O        1.48028238       4.86245894       8.06654145      -0.00173438      -0.00705301      -0.00310594
H        1.51571156       3.98259458       8.48578576      -0.00352233       0.01042548       0.00315686
