53
Lattice="12.336457 0.0 0.0 -6.168228499999997 10.683685154694365 0.0 0.0 0.0 15.0" Properties=species:S:1:pos:R:3:forces:R:3 energy=-452.4093071138056 free_energy=-452.4093071138056 stress="-0.0047826544778181625 0.0017794463611588863 5.097125740655797e-05 0.0017794463611588863 -0.00575845224423653 -2.1901694644237086e-05 5.097125740655797e-05 -2.1901694644237086e-05 6.940043480183409e-06" pbc="T T T"
C        0.00316491       0.00755416       3.86332635      -0.00747178      -0.00163273      -0.00718890
C       -1.22541587       2.14302610       3.81154342       0.00440564      -0.00097559      -0.00808101
C       -2.45854808       4.28025779       3.68097634       0.00255343       0.01259310       0.00230624
C       -3.69516846       6.41464118       3.69228636      -0.00691816      -0.00571387      -0.00736118
C       -4.94116752       8.54665348       3.82257308       0.00423369       0.00420912      -0.00132749
C        2.46776766       0.00615784       3.75879126       0.00344615      -0.00714549       0.00167011
C        1.24386484       2.15904153       3.87110498       0.00426877       0.00344111       0.00562643
C       -0.01108666       4.27414893       3.68432266      -0.00827152      -0.00863220       0.00407635
C       -1.23476704       6.41427722       3.44528528       0.00637640       0.00293435      -0.00007982
C       -2.46978418       8.55207055       3.57959769       0.00351907       0.00467435      -0.00279523
C        4.93818588       0.00413547       3.59213202       0.01123064       0.00190608      -0.00366804
C        3.71986277       2.12828593       3.77891451      -0.00964225      -0.00437873       0.00860462
B        2.52847181       4.38679484       4.08388587       0.00190494       0.00241408       0.00600642
P        1.45303223       6.28621224       2.64050072      -0.00123201       0.01049344      -0.00758979
C       -0.00179320       8.56543660       3.38747821      -0.00422123      -0.00892341       0.00247238
C        7.40611044       0.01754637       3.58486295      -0.00398285      -0.00890732      -0.00366310
C        6.19218553       2.12421401       3.64061427      -0.00541948       0.00666266       0.00430107
C        5.00459139       4.22395245       3.86313430       0.00665389      -0.00314283       0.00651294
P        3.38220887       6.19569807       4.43053893      -0.00955534       0.00074653      -0.00033250
C        2.45885991       8.60175058       3.63624594      -0.00159652      -0.00027339      -0.00520967
C        9.87941735       0.01741700       3.77879184       0.00052464      -0.00027450       0.00085100
C        8.65277010       2.14234170       3.68781516      -0.00016050       0.00258942      -0.00137243
C        7.43187197       4.27358648       3.70971829       0.00691068      -0.00099786       0.00697097
C        6.17986731       6.40198800       3.92112843       0.00370958       0.00018622      -0.00602786
C        4.91806970       8.54700411       3.94230275       0.00482159      -0.00149043      -0.00179261
C        0.00800057       1.43364849       3.85563220       0.00519218       0.00144551      -0.00088745
C       -1.23699547       3.56214156       3.74277505      -0.00643067      -0.00252976      -0.00787257
C       -2.46566252       5.70337211       3.60772826       0.00245777       0.00861436       0.00303653
C       -3.70375185       7.84081034       3.70001897       0.00221163      -0.00332422      -0.00988240
C       -4.93446801       9.97423869       3.82306516      -0.00235336       0.00152236       0.00182265
C        2.47294893       1.42667861       3.81503783      -0.00441929      -0.00957020      -0.00154748
C        1.22652149       3.59074605       3.88278760      -0.00028818       0.00569044       0.01239535
C       -0.03892680       5.66175725       3.36732233      -0.00005397      -0.00780437       0.00518542
C       -1.24120597       7.84604485       3.42522230       0.00014306       0.00315180      -0.00086977
C       -2.46963458       9.97681835       3.63674150       0.01212071       0.00492250       0.00354747
C        4.95264311       1.41791169       3.65966956      -0.00530018       0.00548436       0.00161779
C        3.77151305       3.53117293       3.89148887       0.00104572      -0.00170731       0.00787112
C        1.25079593       7.91355764       3.31427949      -0.00298964      -0.00542296      -0.00486481
C        0.00190545       9.98851282       3.51386839       0.00095512      -0.01405255      -0.00182107
C        7.42039843       1.42902467       3.62516044      -0.00851425      -0.00179930       0.00967691
C        6.22246922       3.53643605       3.70982694       0.00954904       0.00331402       0.00674885
C        5.00725746       5.62537732       4.03105733       0.00520724      -0.00469919      -0.00026020
C        3.64909010       7.89051382       3.95008913       0.00192943       0.00293621      -0.00584609
C        2.47298445      10.01260442       3.66293207      -0.00018053      -0.00142878      -0.00105561
C        9.88213637       1.43461072       3.76305911       0.00253149       0.00222753      -0.00087838
C        8.65555966       3.56404994       3.68897040       0.00604585       0.00630370      -0.00153881
C        7.41840121       5.69757357       3.77585311      -0.00505459      -0.00710441      -0.00111372
C        6.16341695       7.83509515       3.92715230       0.00616609       0.00345037      -0.00616397
C        4.93623054       9.97863015       3.86753832      -0.00489045      -0.00316818       0.00345598
Ag       2.52874395       5.31649047       6.36867239      -0.00704796       0.00571619      -0.00030608
O        2.01188776       4.80706674       8.31742372      -0.00597113       0.00880729      -0.00204597
O        2.55834758       5.88012673       9.09838460       0.00854657       0.00002428       0.00818799
H        3.06024952       5.35841973       9.75551818      -0.01669521      -0.00136177      -0.00950060
