51
Lattice="12.336457 0.0 0.0 -6.168228499999997 10.683685154694365 0.0 0.0 0.0 15.0" Properties=species:S:1:pos:R:3:initial_magmoms:R:1:forces:R:3 energy=-432.9955900026105 free_energy=-432.9955900026105 stress="-0.0008953125238062067 -0.0020684228124931026 2.673205476302897e-05 -0.0020684228124931026 -0.011435894995150152 -1.9051760602868155e-05 2.673205476302897e-05 -1.9051760602868155e-05 -9.666026554833431e-06" pbc="T T T"
C       -0.02367357      -0.02532848       3.62001641       0.00000000       0.00178021       0.00090408      -0.00536718
C       -1.26664053       2.11745225       3.76671101       0.00000000      -0.00192939       0.00406444      -0.00498018
C       -2.50374122       4.25793258       3.71763495       0.00000000      -0.00517729       0.00521087      -0.00759752
C       -3.72260994       6.38407066       3.65040438       0.00000000      -0.00101398       0.00126631      -0.00346726
C       -4.95936953       8.50650639       3.61814583       0.00000000       0.00189383      -0.00405565      -0.00517425
C        2.44649515      -0.07579540       3.57189357       0.00000000       0.00017010       0.00074578       0.00072551
C        1.22956822       2.03602728       3.91195440       0.00000000      -0.00000173       0.00524241      -0.00050519
C       -0.09174755       4.23058283       4.16754935       0.00000000       0.00200180       0.00324566      -0.00213116
C       -1.23619582       6.38219144       3.79669713       0.00000000      -0.00586318       0.00224160       0.01195393
C       -2.47213741       8.49984761       3.61933188       0.00000000       0.00035548       0.00017546       0.00189762
C        4.90901468      -0.02981216       3.45649368       0.00000000       0.00337665      -0.00037761       0.00196076
C        3.63492247       2.03178896       3.29635364       0.00000000       0.00109509       0.00170010       0.00625493
P        1.60633545       6.26400224       4.19705316       0.00000000       0.00086078       0.00023446      -0.00016903
C       -0.00970071       8.54631781       3.68778237       0.00000000       0.00085123      -0.00151120       0.00472970
C        7.36196152       0.02841091       3.45218831       0.00000000       0.00198067      -0.00059989       0.00083165
C        6.11382378       2.14353953       3.31092270       0.00000000       0.00035559      -0.00150554      -0.00250235
C        4.92642560       4.31329741       3.27845220       0.00000000      -0.00052202      -0.00510634       0.00722889
B        3.54321148       6.42262437       3.84197665       0.00000000      -0.00299363      -0.00613278       0.00672666
C        2.46000204       8.64310063       3.63605228       0.00000000       0.00499694       0.00115855       0.00505041
C        9.85203823       0.03072664       3.50699050       0.00000000      -0.00140977      -0.00478463      -0.00320621
C        8.59829589       2.14774542       3.49151549       0.00000000       0.00214529      -0.00444155      -0.00083356
C        7.36332888       4.27035140       3.49827403       0.00000000      -0.00281431      -0.00087607       0.00014831
C        6.12360311       6.39584793       3.62924205       0.00000000      -0.00180829       0.00170213      -0.00403777
C        4.91503306       8.55755912       3.59702439       0.00000000       0.00134570       0.00431508       0.00075834
C       -0.02486557       1.39431069       3.77173771       0.00000000      -0.00138083       0.00242146       0.00234957
C       -1.28809739       3.52602398       3.88941984       0.00000000      -0.00245739       0.00752134      -0.00409828
C       -2.48316901       5.67827012       3.71701548       0.00000000      -0.00365745       0.00400575       0.00409421
C       -3.71669204       7.79955337       3.63476142       0.00000000       0.00173624      -0.00108849      -0.00890912
C       -4.96391894       9.92208756       3.60681692       0.00000000       0.00176997      -0.00385206       0.00296390
C        2.43715243       1.33740961       3.60273856       0.00000000      -0.00034859       0.00272605       0.00268223
P        1.32239562       3.48082535       4.89546640       0.00000000       0.00745204      -0.00599675      -0.00165667
C       -0.03292401       5.62631533       3.99515381       0.00000000      -0.00510509       0.00170805      -0.00492954
C       -1.23454361       7.80259157       3.70377238       0.00000000      -0.00109615      -0.00174627      -0.00767468
C       -2.47990477       9.91883174       3.53433484       0.00000000       0.00176658       0.00067396       0.00297514
C        4.89106114       1.40316706       3.32627469       0.00000000       0.00096561      -0.00021013      -0.00127009
S        3.43359656       3.64258333       2.73478038       0.00000000       0.00747842      -0.00309958      -0.00403118
C        1.25321502       7.93247840       3.81756066       0.00000000       0.00307228       0.00416714      -0.00506940
C       -0.02290731       9.96945937       3.51812518       0.00000000       0.00297960      -0.00313115      -0.00649001
C        7.35232894       1.44801908       3.39406833       0.00000000       0.00121896      -0.00092521       0.00657243
C        6.12226923       3.56189961       3.33926827       0.00000000      -0.00171127      -0.00305123       0.00413478
C        4.87619378       5.68368848       3.59667258       0.00000000      -0.00092009      -0.00237075      -0.00313611
C        3.66933555       7.91772416       3.66153396       0.00000000       0.00340061      -0.00160851      -0.00332565
C        2.44172351      10.04040145       3.49208706       0.00000000      -0.00008482      -0.00251230      -0.00467078
C        9.84241061       1.44046152       3.56657740       0.00000000      -0.00017244      -0.00621204       0.00900001
C        8.59959353       3.56119984       3.55799007       0.00000000      -0.00350026      -0.00267972       0.00419495
C        7.36598678       5.68498145       3.59683511       0.00000000      -0.00121637       0.00092311      -0.00331089
C        6.14025032       7.81646088       3.63187284       0.00000000      -0.00044906       0.00231395       0.00340894
C        4.91214495       9.98273252       3.55374014       0.00000000       0.00013261       0.00241125       0.00495521
Ag       2.80291747       5.70444378       6.14060028       0.00000000       0.00034849       0.00043969      -0.00768635
O        2.84339354       5.24423698       9.00626929       1.00000000      -0.00863236       0.00082679      -0.00079105
O        3.66586276       5.34863036       8.03455223       1.00000000      -0.00126502       0.00552998       0.01142337
