52
Lattice="12.336457 0.0 0.0 -6.168228499999997 10.683685154694365 0.0 0.0 0.0 15.0" Properties=species:S:1:pos:R:3:initial_magmoms:R:1:forces:R:3 energy=-448.2890657971086 free_energy=-448.2890657971086 stress="-0.005130868474793594 0.0018507605093878087 -2.8992717655611803e-05 0.0018507605093878087 -0.005911360402853518 -7.529241907389768e-06 -2.8992717655611803e-05 -7.529241907389768e-06 -3.0492162181821692e-05" pbc="T T T"
C        0.01284120       0.01120888       3.78885439       0.00000000      -0.00190391       0.00857690       0.00886756
C       -1.21565815       2.14729106       3.74067767       0.00000000       0.00486420      -0.00529332       0.01005772
C       -2.44930080       4.28452595       3.61144666       0.00000000      -0.00337421      -0.00334256      -0.00226489
C       -3.68767164       6.41740615       3.61233604       0.00000000       0.00337758       0.00318517       0.00016862
C       -4.93132517       8.55012196       3.74015852       0.00000000      -0.00893956       0.00728862       0.01076333
C        2.47801129       0.00953855       3.71534158       0.00000000      -0.00769962      -0.00364635      -0.00067416
C        1.25251440       2.16397816       3.81317446       0.00000000       0.00899950      -0.00209825      -0.00908372
C       -0.00211336       4.27798753       3.60775168       0.00000000       0.00927165       0.00157519      -0.00353717
C       -1.22617115       6.41811108       3.37381385       0.00000000      -0.00135019       0.00497600      -0.00085469
C       -2.45964732       8.55578152       3.52644632       0.00000000      -0.00421947      -0.00425578      -0.00822137
C        4.94894644       0.00603586       3.57887385       0.00000000       0.00202890       0.00456870      -0.01589068
C        3.72921959       2.13070769       3.75792906       0.00000000      -0.00135747       0.00383601       0.00336584
B        2.53617338       4.39366428       4.00535468       0.00000000      -0.00189671      -0.00827475       0.01764479
P        1.45555661       6.29589687       2.55503824       0.00000000      -0.00386173       0.00172561      -0.00406267
C        0.00647820       8.56973872       3.33760897       0.00000000       0.00558243      -0.00780763      -0.01670184
C        7.41469652       0.02020539       3.54814284       0.00000000       0.00435111       0.00594681       0.00474780
C        6.20160827       2.12559939       3.63110769       0.00000000       0.00114866       0.00975649      -0.00607508
C        5.01462737       4.22723997       3.82417597       0.00000000      -0.00178270      -0.01337819       0.01096205
P        3.38643507       6.20403472       4.34105526       0.00000000      -0.00904590      -0.00092724      -0.00220231
C        2.46968424       8.60712965       3.54796521       0.00000000      -0.01204562      -0.00077083       0.00717707
C        9.88923260       0.02186284       3.71079689       0.00000000       0.00831788      -0.00829122      -0.00599086
C        8.66204248       2.14572985       3.64240722       0.00000000      -0.00398030       0.00364304       0.00977294
C        7.44179305       4.27581930       3.65923089       0.00000000      -0.00899431       0.00698840       0.00897797
C        6.18761527       6.40615498       3.84057389       0.00000000       0.00909171      -0.00836567       0.00214374
C        4.92858199       8.55066766       3.84922492       0.00000000       0.00045383       0.00070049      -0.00072283
C        0.01750006       1.43776178       3.78870970       0.00000000       0.00847673       0.00307314      -0.01083476
C       -1.22780119       3.56629437       3.66900137       0.00000000       0.00629934      -0.00305578      -0.00452020
C       -2.45740308       5.70706485       3.53243157       0.00000000       0.00143170       0.00089493       0.00801925
C       -3.69459811       7.84363981       3.62328492       0.00000000      -0.00770311       0.00246461       0.01138511
C       -4.92460338       9.97767705       3.75394341       0.00000000      -0.01277064       0.00711650       0.00551199
C        2.48165037       1.43023749       3.77634112       0.00000000       0.00328233      -0.00464004       0.00008664
C        1.23507184       3.59617793       3.81200170       0.00000000       0.00744592      -0.00255148       0.00010017
C       -0.03038163       5.66559380       3.29066595       0.00000000      -0.00453914       0.00540125      -0.00252030
C       -1.23214198       7.85002285       3.36902835       0.00000000       0.00341342       0.00126213      -0.00631867
C       -2.45870279       9.97970250       3.60581003       0.00000000      -0.00524176      -0.00317524      -0.01419686
C        4.96253550       1.41923217       3.65501385       0.00000000       0.00131547       0.01105019      -0.01480570
C        3.78114721       3.53493582       3.85331710       0.00000000      -0.00674137      -0.00136904       0.00684758
C        1.25793128       7.92065013       3.23723198       0.00000000      -0.00197324      -0.01377335      -0.00729488
C        0.01105258       9.99061498       3.48576911       0.00000000       0.00712156      -0.00201427      -0.00826196
C        7.42925788       1.43104409       3.60144306       0.00000000      -0.00129644       0.00876110      -0.00633910
C        6.23302783       3.53825614       3.68313397       0.00000000      -0.00056325       0.00115848       0.00928958
C        5.01500753       5.63142583       3.96534876       0.00000000       0.00747330      -0.01384363       0.00555812
C        3.66077483       7.89335702       3.84850200       0.00000000      -0.00972825       0.00888446       0.00247849
C        2.48308294      10.01699966       3.59638957       0.00000000       0.00125606      -0.00037827       0.00198506
C        9.89194761       1.43888556       3.70264151       0.00000000       0.00080589      -0.00615072      -0.00787690
C        8.66570481       3.56733052       3.63557361       0.00000000      -0.01338181       0.00531482      -0.00760063
C        7.42604859       5.70043810       3.70102610       0.00000000       0.00850778       0.00136918       0.01640969
C        6.17298424       7.83893765       3.83607280       0.00000000      -0.00005639      -0.00266050       0.00446477
C        4.94604737       9.98274027       3.78749520       0.00000000       0.00893201      -0.00314043      -0.00795463
Ag       2.41151324       5.42424911       6.27401454       0.00000000      -0.00135109      -0.00566703       0.00310898
O        2.39565169       5.40233460       9.16886483       1.00000000       0.00189768      -0.00423965       0.00031431
O        1.64142896       5.04882326       8.19862698       1.00000000       0.01065155       0.01359297       0.00459771
