52
Lattice="12.336457 0.0 0.0 -6.168228499999997 10.683685154694365 0.0 0.0 0.0 15.0" Properties=species:S:1:pos:R:3:forces:R:3 energy=-440.6328169453975 free_energy=-440.6328169453975 stress="0.009464272454845234 -0.0012052663787044204 -2.2717056713191597e-05 -0.0012052663787044204 -0.008018716877499305 -3.515550408087754e-05 -2.2717056713191597e-05 -3.515550408087754e-05 2.877249388762378e-05" pbc="T T T"
C        0.00639471      -0.08841164       3.75963016      -0.00374440      -0.00549742       0.00269335
C       -1.19858862       2.10151292       3.63850434       0.00718222      -0.00557394      -0.00204302
C       -2.42395924       4.22396231       3.67191639      -0.00503922      -0.00564619       0.00502378
C       -3.68028625       6.32597211       3.81529117       0.01060851       0.01203003      -0.00487803
C       -4.93445903       8.43922742       3.85961385       0.00202574       0.01290497      -0.00142556
C        2.47942675      -0.16238605       3.68699255       0.00551690      -0.00042166      -0.00004055
C        1.27093357       1.97105504       3.53967301      -0.00353783      -0.00353503       0.00593489
C        0.10259852       4.23407511       3.60215969      -0.00239629       0.00388651      -0.01256692
C       -1.14572397       6.33095991       3.79193580       0.00101239      -0.00589918      -0.00554667
C       -2.43316615       8.43739671       3.78969375      -0.00174308       0.00588732       0.01013453
C        4.94436256      -0.07954335       3.61499623       0.00732432      -0.00106399       0.01853664
C        3.65983322       1.95807257       3.35656306      -0.00478304      -0.00271898      -0.01062417
B        1.54073072       6.33728062       3.93410483      -0.00955579       0.00059254      -0.00410245
C        0.03628122       8.49545339       3.79268095      -0.00783683      -0.00891426       0.00618184
C        7.39820593      -0.00321017       3.67755696       0.00720759       0.00361490      -0.00755445
C        6.14202894       2.10932723       3.50527700      -0.00578563      -0.00500482       0.00560179
C        4.90070811       4.27634647       3.55369377      -0.01015439      -0.00816701      -0.00577281
B        3.43653840       6.34495055       3.99176991      -0.01542075      -0.00327709      -0.00528331
C        2.47784156       8.59265943       3.87383867       0.00528762      -0.00701614       0.00678886
C        9.88566303      -0.00501623       3.75240572      -0.00729354       0.00876838      -0.00717602
C        8.64180390       2.11638766       3.62335272       0.00670671       0.00080013      -0.00765589
C        7.38876379       4.22744306       3.66653184      -0.00577002      -0.00739929      -0.00038634
C        6.12609076       6.33848698       3.87765508      -0.00119893      -0.00149613      -0.00158585
C        4.92749520       8.49707440       3.90325679       0.00690790       0.01384126      -0.01068231
C        0.01890284       1.34235999       3.65413001       0.00047901      -0.01300706      -0.00495359
C       -1.16236358       3.52310689       3.61670272      -0.00022495      -0.00404107       0.01905440
C       -2.41482429       5.63373956       3.76068894       0.00405391      -0.00331841      -0.00647892
C       -3.68177638       7.73749124       3.83770489       0.00044683       0.01565513       0.00143206
C       -4.93736944       9.85162375       3.78565108       0.00249661       0.00743950       0.00032509
C        2.46810344       1.23915360       3.52766434      -0.00242795      -0.00058738       0.01276522
B        1.40994148       3.43886243       3.45763217       0.00749316       0.00679477      -0.00136527
C        0.13080177       5.62608749       3.76459904       0.00211574       0.00246199      -0.00743106
C       -1.18491820       7.74844620       3.80093090      -0.01041867      -0.00803311       0.00505699
C       -2.43924196       9.85330278       3.70231780       0.00628800       0.00119385      -0.00969784
C        4.92165442       1.35715177       3.47260707      -0.00566744      -0.00379756       0.00453401
S        3.30705298       3.63113149       2.99745114       0.00902762      -0.00177396      -0.00358655
C        1.28473001       7.84721224       3.87232749      -0.00322637      -0.00417914       0.00376849
C        0.01511904       9.92964030       3.69441900       0.00729018      -0.00394796       0.00743628
C        7.38642812       1.41687345       3.59282548       0.00558074       0.00572953      -0.00414479
C        6.12292300       3.52965751       3.55120717      -0.01106084      -0.00925062       0.00881081
C        4.84725249       5.64320430       3.82926082      -0.00917992      -0.00638265       0.00458052
C        3.67483671       7.85622331       3.93580140       0.01191576       0.00063704      -0.00176788
C        2.47346402      10.00472059       3.77109829       0.00100222      -0.00299740       0.00315662
C        9.88985316       1.41171261       3.66878407       0.00525614       0.00480253      -0.00690633
C        8.65014019       3.52958374       3.64302373      -0.00439406      -0.00430526       0.00041503
C        7.38819746       5.63475564       3.79836861       0.00919525      -0.00155959      -0.00288242
C        6.15555864       7.75513124       3.90547628       0.00550490       0.00771566       0.01215728
C        4.93770755       9.92745799       3.81594379      -0.00959953       0.01178452       0.00217445
Ag       2.45599362       5.63573837       5.85805164      -0.01213989       0.00183629       0.00226586
O        2.32256163       5.01399652       7.85439793       0.01036610       0.00244455      -0.00062502
O        2.30825113       6.20095683       8.66499352      -0.01306771       0.00341622      -0.00979243
H        2.99802382       5.96021701       9.31154762       0.01737497       0.00457471      -0.00187231
