51
Lattice="12.336457 0.0 0.0 -6.168228499999997 10.683685154694365 0.0 0.0 0.0 15.0" Properties=species:S:1:pos:R:3:initial_magmoms:R:1:forces:R:3 energy=-437.48590867532357 free_energy=-437.48590867532357 stress="-0.003191282299567491 -0.005079780383552495 2.9545214443891798e-05 -0.005079780383552495 -0.0009839303234410659 1.069408901641494e-05 2.9545214443891798e-05 1.069408901641494e-05 6.452557672884661e-06" pbc="T T T"
C        0.00343693       0.01660604       3.69525289       0.00000000      -0.00387613      -0.00492167      -0.00119329
C       -1.26090371       2.14058937       3.68504498       0.00000000       0.00631177      -0.00011909      -0.00104268
C       -2.46910204       4.29499202       3.67599498       0.00000000      -0.00193131       0.01091031       0.00027042
C       -3.66802055       6.44352995       3.66657065       0.00000000      -0.00832146      -0.00801627       0.00978823
C       -4.90113168       8.58663591       3.69929230       0.00000000       0.00730702       0.00116757       0.00875016
C        2.46866297       0.04426383       3.73840416       0.00000000      -0.00070134       0.00148092      -0.00502872
C        1.17359834       2.13820161       3.76362892       0.00000000      -0.00078732      -0.00006855       0.00439661
C       -0.04703246       4.21640396       3.92250778       0.00000000       0.00191004       0.00091507       0.00514184
C       -1.20416137       6.40638965       3.84245484       0.00000000       0.00565379       0.00810292       0.00089284
C       -2.43795257       8.57038950       3.76473183       0.00000000      -0.00349619      -0.00685134       0.00331518
C        4.93050306       0.03736109       3.66483516       0.00000000       0.00481698       0.00664833      -0.00228987
C        3.65941878       2.13805447       3.39826726       0.00000000      -0.01100099       0.01213064      -0.00303118
B        1.17397247       6.45503923       4.25431360       0.00000000      -0.00126710      -0.00048377       0.00430243
C        0.01433847       8.57504140       3.84792903       0.00000000       0.00394913      -0.00896392       0.00294406
C        7.39638003       0.02764827       3.65364295       0.00000000      -0.00083114      -0.00597341       0.01131091
C        6.14433461       2.18302231       3.46115008       0.00000000      -0.00068180       0.00233777      -0.00328524
C        5.00187115       4.39320913       3.29210671       0.00000000      -0.00078425      -0.00604550       0.00253960
N        3.79280151       6.46115939       3.74464962       0.00000000      -0.00000041      -0.00279726      -0.01759400
C        2.49373822       8.56175550       3.82130326       0.00000000       0.00445867       0.00193576      -0.00054208
C        9.86307708       0.01405853       3.65508122       0.00000000       0.00020682       0.00005890       0.00298669
C        8.61821069       2.16328823       3.58051823       0.00000000       0.00032099      -0.00956582       0.01146940
C        7.41507633       4.31824095       3.53137005       0.00000000      -0.00142341      -0.00295922      -0.01210476
C        6.22021340       6.47825970       3.56725790       0.00000000      -0.00066331       0.00849894       0.00024774
C        4.96059606       8.57167499       3.67434635       0.00000000       0.00383627       0.00356948      -0.00141953
C       -0.01934722       1.44067871       3.70758825       0.00000000       0.00376033      -0.00431935       0.00269589
C       -1.25378795       3.55247001       3.74015636       0.00000000       0.00118734       0.00488942       0.00194458
C       -2.44640670       5.71541562       3.71732421       0.00000000       0.00155298       0.01203165       0.00441268
C       -3.66771822       7.86714352       3.71532168       0.00000000      -0.00170887      -0.01023591      -0.00581675
C       -4.92275942      10.00894806       3.73251065       0.00000000       0.00012738      -0.00039412      -0.00667160
C        2.43403670       1.47413589       3.67335172       0.00000000      -0.00600881       0.00293368      -0.00413870
O        1.10521967       3.47802987       4.08761983       0.00000000       0.00453486       0.00093163       0.00731706
C       -0.00933695       5.63279844       3.97936050       0.00000000       0.00154429       0.00208907      -0.00157997
C       -1.19986059       7.84046317       3.83009071       0.00000000       0.00233811      -0.00000678       0.00451426
C       -2.45823579      10.00479389       3.73449238       0.00000000       0.00363236      -0.00142423      -0.00542985
C        4.90798405       1.47346458       3.50063435       0.00000000      -0.00539800       0.01468465      -0.00563176
S        3.52172311       3.73678077       2.76392846       0.00000000      -0.00865236       0.00206062      -0.00063797
C        1.26419987       7.88498807       3.96117202       0.00000000       0.00654114      -0.00542436       0.00196593
C       -0.00133853      10.00575270       3.71826333       0.00000000       0.00164138      -0.00922340       0.00233318
C        7.37718353       1.45972072       3.55670238       0.00000000      -0.00266734      -0.00790520      -0.00276446
C        6.16657925       3.61598471       3.41977262       0.00000000       0.00136293      -0.00070592      -0.00515542
C        4.97642326       5.80816036       3.49978291       0.00000000       0.00451729      -0.00152320      -0.01148865
C        3.73971622       7.82138758       3.74676401       0.00000000       0.00484740       0.00052407       0.00395163
C        2.47058391       9.98595057       3.69822015       0.00000000       0.00124685       0.00109934      -0.00286652
C        9.85276068       1.44080677       3.62920815       0.00000000       0.00594230      -0.00364635       0.00471922
C        8.63251246       3.58942808       3.58787790       0.00000000      -0.00027665      -0.00285093      -0.00608212
C        7.43521415       5.73989744       3.57662562       0.00000000      -0.00952909      -0.00334028       0.00123868
C        6.20544749       7.88824613       3.64693749       0.00000000       0.00749875       0.00994759       0.01080685
C        4.93498489       9.98822967       3.67493282       0.00000000      -0.00355149      -0.00027790       0.00057321
Ag       2.62493803       5.32893386       5.29611131       0.00000000      -0.00033324       0.00701287      -0.00703985
O        2.81949013       4.42623783       8.17135150       1.00000000      -0.01733291      -0.00026433      -0.00723584
O        2.22976694       4.08650242       7.10789326       1.00000000       0.00017773      -0.00765309       0.00524157
