51
Lattice="12.336457 0.0 0.0 -6.168228499999997 10.683685154694365 0.0 0.0 0.0 15.0" Properties=species:S:1:pos:R:3:initial_magmoms:R:1:forces:R:3 energy=-436.2239911182833 free_energy=-436.2239911182833 stress="0.00013398662503878616 -0.0016545881063060393 2.0419579895744795e-05 -0.0016545881063060393 -0.00750518690129396 -9.42227494158254e-06 2.0419579895744795e-05 -9.42227494158254e-06 -5.4526257357839645e-06" pbc="T T T"
C        0.00591228      -0.03365637       3.72998101       0.00000000      -0.00128111       0.00133469      -0.00634098
C       -1.22619064       2.11926601       3.78678156       0.00000000       0.00142699       0.00017198       0.00201052
C       -2.46640082       4.25822566       3.67039612       0.00000000       0.00076706       0.00161359       0.00177031
C       -3.69256973       6.38545888       3.62726856       0.00000000       0.00194815       0.00019478      -0.00011063
C       -4.92354638       8.51221647       3.67391923       0.00000000      -0.00311361      -0.00138861      -0.00558097
C        2.47804236      -0.07336010       3.58202678       0.00000000       0.00418131       0.00382677       0.00342172
C        1.27346334       2.04801994       3.85385642       0.00000000      -0.00487506       0.00442767      -0.00069559
C       -0.03485728       4.27955445       3.97680905       0.00000000      -0.00941986      -0.00366573       0.00115401
C       -1.21156760       6.39236257       3.72092112       0.00000000       0.00325909       0.00088153      -0.00253557
C       -2.44642978       8.50727213       3.60795438       0.00000000      -0.00078159      -0.00496900      -0.01159678
C        4.94405321      -0.03058124       3.48129570       0.00000000       0.00172177      -0.00436792       0.00509889
C        3.67661390       2.03196793       3.28111305       0.00000000      -0.00040788      -0.00016428      -0.00124533
B        1.34233043       6.40470800       4.09284691       0.00000000       0.01151995      -0.00084307       0.00109915
C        0.01654765       8.54033722       3.70794493       0.00000000       0.00030975      -0.00047380      -0.00824861
C        7.40354331       0.00798869       3.58467218       0.00000000       0.00205139      -0.00831112      -0.00204828
C        6.15448498       2.13704344       3.37358834       0.00000000      -0.00047527       0.00259966      -0.00029122
C        4.95028955       4.32070769       3.34593612       0.00000000       0.00054800       0.00477661      -0.00151978
C        3.67636258       6.40780438       3.93856637       0.00000000       0.00092620       0.00157478      -0.01036382
C        2.47852500       8.57857603       3.82888432       0.00000000       0.00105002      -0.00213530      -0.00138485
C        9.87721384       0.00245070       3.70380048       0.00000000      -0.00192826       0.00692090      -0.01483077
C        8.63562160       2.13442753       3.58024255       0.00000000      -0.00096664      -0.00143892      -0.00096749
C        7.39493761       4.26751764       3.52870006       0.00000000       0.00822468       0.00232913      -0.00412726
C        6.16322246       6.40267897       3.66906078       0.00000000       0.00147477      -0.00578408      -0.00574882
C        4.94345679       8.53170445       3.76412974       0.00000000      -0.00177107       0.00104913      -0.00416664
C        0.01133405       1.39351868       3.80751952       0.00000000       0.00005696      -0.00019783       0.00580250
C       -1.23531970       3.53906850       3.80308393       0.00000000      -0.00601928      -0.00324325       0.00393161
C       -2.45701112       5.67899100       3.65488260       0.00000000       0.00194309       0.00291863       0.00393822
C       -3.68735298       7.80354369       3.63448987       0.00000000      -0.00231054      -0.00180552      -0.00089960
C       -4.93184043       9.92431666       3.67187360       0.00000000       0.00200650       0.00150592       0.00041640
C        2.47555158       1.33835699       3.56909429       0.00000000       0.00066351       0.00557726       0.01279512
P        1.46686537       3.62446860       4.56827931       0.00000000      -0.01391378      -0.00227399      -0.00134310
C        0.01305169       5.68388267       3.88818170       0.00000000       0.00191344      -0.00376212       0.00007396
C       -1.20944093       7.81046264       3.67032167       0.00000000       0.00037642       0.00061433       0.00767791
C       -2.44925601       9.92357518       3.54134509       0.00000000       0.00241326      -0.00399633       0.00310193
C        4.93138468       1.40241199       3.34953104       0.00000000      -0.00058234      -0.00192989       0.00272817
S        3.48180683       3.65946714       2.72891463       0.00000000      -0.00215485       0.00382855       0.00843115
C        1.26260709       7.88010057       3.87182781       0.00000000      -0.00023638       0.00116917      -0.00389183
C        0.01016207       9.96329459       3.58022678       0.00000000       0.00119716      -0.00353619       0.00164482
C        7.39117476       1.43293051       3.49774493       0.00000000      -0.00194441      -0.00608668       0.00487356
C        6.14516728       3.56482098       3.40053278       0.00000000       0.00329984       0.00699809       0.00156248
C        4.89326478       5.71702868       3.65050116       0.00000000       0.00153791       0.00024840       0.00128182
C        3.69622283       7.81422000       3.84928149       0.00000000       0.00093148       0.00015106      -0.00613410
C        2.47435548       9.99153218       3.69635180       0.00000000       0.00296363      -0.00232429       0.00428652
C        9.87534939       1.42213714       3.68270804       0.00000000       0.00103662       0.00615581      -0.00028325
C        8.63333385       3.55506006       3.57996355       0.00000000       0.00394508      -0.00104637       0.01275990
C        7.39571139       5.68525607       3.60273342       0.00000000       0.00517918      -0.00124753       0.01169445
C        6.17231592       7.81736597       3.72001520       0.00000000      -0.00326731      -0.00533326      -0.00481901
C        4.93883565       9.95322966       3.73667138       0.00000000      -0.00450443       0.00453378      -0.00458248
Ag       2.68056599       5.56034295       5.62724940       0.00000000      -0.00335983      -0.00368328      -0.00986268
O        1.84983076       5.43665343       8.45679976       1.00000000       0.00283163      -0.00287946      -0.00120247
O        2.91687519       5.37086727       7.76770091       1.00000000      -0.00839134       0.01148559       0.01326679
