51
Lattice="12.336457 0.0 0.0 -6.168228499999997 10.683685154694365 0.0 0.0 0.0 15.0" Properties=species:S:1:pos:R:3:initial_magmoms:R:1:forces:R:3 energy=-442.6302853989441 free_energy=-442.6302853989441 stress="-0.003630146949873419 -0.002584630802720801 -8.541197511835787e-06 -0.002584630802720801 -0.0025004782597219445 -3.426551721708705e-05 -8.541197511835787e-06 -3.426551721708705e-05 -3.262446512442957e-05" pbc="T T T"
C       -0.03147494       0.09771637       3.57674136       0.00000000      -0.00341050      -0.00237714      -0.00152422
C       -1.28077447       2.21560518       3.49758985       0.00000000       0.00186310      -0.00042345       0.00039187
C       -2.49731391       4.36450725       3.43388407       0.00000000      -0.00322934       0.00035280       0.00130154
C       -3.71272590       6.51251671       3.45951135       0.00000000       0.00267957      -0.00096705      -0.00117012
C       -4.94446981       8.65799267       3.53554899       0.00000000       0.00381135      -0.00077557      -0.00458923
C        2.43394848       0.10951686       3.65261420       0.00000000       0.00220994       0.00255269       0.00242539
C        1.16890431       2.26398052       3.71682171       0.00000000       0.00026934      -0.00741659       0.00475623
C       -0.03582950       4.30387192       3.61845236       0.00000000      -0.00075167      -0.00188277       0.00210147
C       -1.24050123       6.49103912       3.57227762       0.00000000      -0.00958666       0.00388500      -0.00489948
C       -2.48167259       8.64618855       3.57933643       0.00000000      -0.00020852       0.00196823      -0.00149587
C        4.90421356       0.10338443       3.67348194       0.00000000      -0.00052729      -0.00029425       0.00467590
C        3.64449260       2.22444469       3.85504104       0.00000000      -0.00570058       0.00803460      -0.00260435
B        1.22534921       6.48221710       3.95101370       0.00000000       0.00415429      -0.00050249       0.00167725
C       -0.02459229       8.64422001       3.70858669       0.00000000       0.00141606       0.00046940      -0.00202861
C        7.36781468       0.10217238       3.64024378       0.00000000       0.00742916      -0.00016858       0.00173321
C        6.12534636       2.24362287       3.63586077       0.00000000      -0.00007269      -0.00406581       0.00335627
C        4.96032975       4.41038132       3.73179083       0.00000000      -0.00251416      -0.00375118       0.00147526
C        3.71273665       6.51391274       3.90482142       0.00000000      -0.00630988      -0.00192828      -0.00028383
C        2.44502979       8.65276254       3.78650319       0.00000000       0.00331691       0.00138668       0.00179909
C        9.83410144       0.09060776       3.58715993       0.00000000      -0.00302637       0.00285417      -0.00548425
C        8.59307861       2.23068129       3.49416155       0.00000000       0.00759246       0.00276260      -0.00129303
C        7.38481875       4.37951277       3.47212839       0.00000000      -0.00020630      -0.00193069      -0.00048613
C        6.16324565       6.53579566       3.53311248       0.00000000       0.00037631      -0.00443372       0.00059300
C        4.91808392       8.64265721       3.64088698       0.00000000      -0.00391423       0.00149234      -0.00214379
C       -0.04944882       1.51626386       3.57862858       0.00000000       0.00054255      -0.00396778       0.00060698
C       -1.28043143       3.62871341       3.47337495       0.00000000      -0.00347720      -0.00072748      -0.00143253
C       -2.48763018       5.79039767       3.46360418       0.00000000      -0.00446350      -0.00125266       0.00255071
C       -3.71388034       7.93965367       3.51365796       0.00000000       0.00385331      -0.00175786      -0.00291853
C       -4.95895983      10.07675317       3.58510116       0.00000000       0.00149206       0.00108367       0.00071840
C        2.41701916       1.53062037       3.76368238       0.00000000       0.00035910       0.00042290      -0.00123638
N        1.11319670       3.60837984       3.80033487       0.00000000       0.00117823      -0.00557689       0.00358262
C       -0.03305494       5.74659964       3.67183483       0.00000000      -0.00811836       0.00298699      -0.00126881
C       -1.24479378       7.92381430       3.62146503       0.00000000      -0.00381731       0.00405640      -0.00039748
C       -2.49421725      10.07379682       3.63984323       0.00000000      -0.00011415       0.00076508      -0.00042083
C        4.89659091       1.53376441       3.72774015       0.00000000      -0.00643775       0.00121808       0.00070607
B        3.74262763       3.67764128       4.07446722       0.00000000       0.00355267      -0.00242537       0.00064473
C        1.22092981       7.96026412       3.82231621       0.00000000       0.00295668       0.00302241      -0.00238524
C       -0.03200501      10.07490665       3.67192502       0.00000000       0.00453229       0.00117710      -0.00027736
C        7.36002531       1.52510678       3.57477106       0.00000000       0.00844791       0.00024172       0.00375669
C        6.14822855       3.66923214       3.59434859       0.00000000      -0.00107451      -0.00278182       0.00057441
C        4.92113103       5.83856883       3.69297846       0.00000000      -0.00568374      -0.00340290       0.00048619
C        3.67482098       7.90315990       3.78370689       0.00000000      -0.00113793      -0.00023906      -0.00018947
C        2.43705513      10.07104146       3.66628813       0.00000000       0.00377230      -0.00080227      -0.00069886
C        9.82288953       1.50980486       3.50647529       0.00000000       0.00424974       0.00158608      -0.00390020
C        8.60242989       3.65727970       3.44254910       0.00000000       0.00074548       0.00123640      -0.00165916
C        7.38729386       5.80764637       3.46270175       0.00000000       0.00407316      -0.00265888       0.00155308
C        6.15680366       7.95035958       3.55530432       0.00000000      -0.00028788      -0.00117337      -0.00143010
C        4.90348404      10.05956592       3.59255571       0.00000000      -0.00728899       0.00278851       0.00260784
Ag       2.50255730       5.15261530       4.94012093       0.00000000       0.00395262      -0.00304360      -0.01574537
O        3.16232321       3.02652395       8.92064425       1.00000000       0.00194307       0.00795341       0.00011317
O        3.08662386       2.00098132       8.23635287       1.00000000       0.00058984       0.00643026       0.01777585
