51
Lattice="12.336457 0.0 0.0 -6.168228499999997 10.683685154694365 0.0 0.0 0.0 15.0" Properties=species:S:1:pos:R:3:initial_magmoms:R:1:forces:R:3 energy=-441.70059689979456 free_energy=-441.70059689979456 stress="-0.006710157103863937 -0.002758981481307319 -7.330848891429683e-06 -0.002758981481307319 -0.00032173034859712425 2.0336868438776447e-05 -7.330848891429683e-06 2.0336868438776447e-05 -1.4290543313893342e-05" pbc="T T T"
C        0.04756187      -0.02679807       3.73966497       0.00000000       0.00098179      -0.00286497      -0.00726295
C       -1.21111889       2.08557484       3.75280781       0.00000000      -0.00086937      -0.01339810       0.00723828
C       -2.43094847       4.23102666       3.67505597       0.00000000       0.00005091      -0.00666600      -0.00395635
C       -3.63367056       6.38660998       3.60664521       0.00000000      -0.00233335       0.00436724      -0.00428554
C       -4.86402574       8.53724458       3.65582590       0.00000000      -0.00166030       0.00477903       0.00214643
C        2.52176903      -0.01515290       3.72095858       0.00000000       0.00443238      -0.00682197      -0.00714549
C        1.27233173       2.13879116       3.82499391       0.00000000      -0.00345789       0.00785588      -0.00329614
C        0.02858188       4.20922232       3.90942836       0.00000000      -0.00658835       0.00288596       0.00383188
C       -1.20250668       6.38332582       3.77175194       0.00000000       0.00060228       0.00111202      -0.00272019
C       -2.41480583       8.52623484       3.69959253       0.00000000       0.00641338      -0.00192319      -0.00112439
C        4.98495140      -0.03149297       3.59184924       0.00000000      -0.00018968      -0.00361444      -0.00183603
C        3.71806076       2.05586964       3.32902177       0.00000000       0.00005643      -0.00317208       0.00802761
C        1.19304019       6.38061515       4.06865235       0.00000000       0.00682882      -0.00317744       0.00584270
C        0.04792858       8.50239545       3.75694767       0.00000000      -0.00042972       0.00616608      -0.00304777
C        7.45020673      -0.05743133       3.60762248       0.00000000       0.00150076       0.00401356       0.00786524
C        6.20775380       2.10337365       3.37214480       0.00000000      -0.00265925      -0.00140205      -0.00055472
C        5.06868327       4.31631243       3.11611169       0.00000000       0.00978197       0.00731785       0.00197425
N        3.88344118       6.39725050       3.55196310       0.00000000      -0.00100832       0.00832254      -0.01767360
C        2.53669287       8.46129573       3.74304787       0.00000000      -0.00460383      -0.00448977      -0.00073352
C        9.90829296      -0.05826271       3.67338225       0.00000000      -0.00036923       0.00116006      -0.00581058
C        8.67153182       2.08809659       3.57381108       0.00000000      -0.00643141       0.01197486      -0.00154185
C        7.46841806       4.24743263       3.44378925       0.00000000      -0.00496983       0.00141625      -0.00257689
C        6.27847021       6.42006415       3.42360050       0.00000000       0.00061069      -0.00876049       0.00928417
C        5.00924035       8.51628587       3.61781836       0.00000000       0.00786483      -0.00522479       0.00407925
C        0.03067750       1.39208570       3.79271333       0.00000000       0.00007266      -0.00533529       0.00360622
C       -1.21548321       3.50642141       3.77710702       0.00000000      -0.00090720      -0.01218842       0.00507307
C       -2.42064079       5.66389338       3.68348953       0.00000000      -0.00088244      -0.00324978      -0.01407054
C       -3.63663696       7.81396272       3.65689517       0.00000000      -0.00017866       0.00935266       0.00015215
C       -4.87860375       9.95538278       3.73273102       0.00000000       0.00086633       0.00386586      -0.00642761
C        2.51458452       1.40778218       3.67226230       0.00000000      -0.00271107      -0.00374144       0.00105577
C        1.20625191       3.50209206       4.04052760       0.00000000       0.00584240       0.01432143      -0.00482699
C        0.02884470       5.66843821       3.90610293       0.00000000      -0.00054239       0.00351407       0.00686684
C       -1.18589384       7.80593264       3.74192475       0.00000000       0.00482659       0.00201480       0.00343492
C       -2.41387186       9.95113276       3.67771105       0.00000000       0.00480040      -0.00766878      -0.00081753
C        4.97753196       1.39493748       3.41760611       0.00000000      -0.00012374      -0.00643587       0.00659011
S        3.57798903       3.62083864       2.61214686       0.00000000       0.00629862       0.00688190      -0.00567796
C        1.29159671       7.74350296       3.85500027       0.00000000      -0.00636216      -0.00146057       0.00138923
C        0.05066925       9.92280647       3.64718532       0.00000000       0.00083238       0.00586138       0.00513988
C        7.43508505       1.37743898       3.50832414       0.00000000      -0.00251955       0.00731454       0.01185611
C        6.22555242       3.54087243       3.29821400       0.00000000       0.00125043       0.00027197       0.00061527
C        5.04931761       5.73849845       3.30422151       0.00000000      -0.00225351       0.00529834      -0.00388472
C        3.79297937       7.74802945       3.63478908       0.00000000       0.00116952       0.00451888      -0.00227105
C        2.51687766       9.88744527       3.67094939       0.00000000      -0.00057551      -0.00400306      -0.00066086
C        9.89464583       1.36688318       3.66833348       0.00000000      -0.00793303       0.00275456       0.00180316
C        8.68061166       3.51902143       3.56189010       0.00000000      -0.00694031       0.00691901      -0.00222360
C        7.48368211       5.67434562       3.47880690       0.00000000      -0.00102608      -0.00432229       0.00068355
C        6.24971275       7.83168831       3.56447958       0.00000000       0.00596673      -0.01134598       0.00748206
C        4.98342711       9.93164792       3.68671238       0.00000000       0.00278927      -0.00416023      -0.00164907
Ag       2.61323626       4.93264769       4.71068547       0.00000000      -0.01358976      -0.00281589      -0.00852663
O        1.61232676       5.59967755       9.35917211       1.00000000      -0.00264350      -0.00172168      -0.00423067
O        0.97964531       5.69358010       8.30135983       1.00000000       0.01091986      -0.00429615       0.01279508
