51
Lattice="12.336457 0.0 0.0 -6.168228499999997 10.683685154694365 0.0 0.0 0.0 15.0" Properties=species:S:1:pos:R:3:initial_magmoms:R:1:forces:R:3 energy=-441.98580792196094 free_energy=-441.98580792196094 stress="-0.005749206724966789 0.0029636337811239297 1.4093601891211612e-05 0.0029636337811239297 -0.00025228938568249077 -1.9398860284862387e-05 1.4093601891211612e-05 -1.9398860284862387e-05 -6.26789226651528e-07" pbc="T T T"
C        0.10627676       0.09388291       3.74287215       0.00000000      -0.00307468       0.00656334       0.00208700
C       -1.12138455       2.21821539       3.81752939       0.00000000       0.00498873      -0.00055796       0.00197087
C       -2.34579322       4.35593963       3.74655574       0.00000000      -0.00095297      -0.00872778      -0.00398959
C       -3.58957877       6.49680709       3.63384973       0.00000000      -0.00348933       0.00184620       0.00115201
C       -4.84319548       8.63704434       3.60457504       0.00000000       0.00532699       0.00012255      -0.00669752
C        2.56969612       0.11617652       3.78601289       0.00000000      -0.00341498      -0.00145690      -0.01794991
C        1.34099003       2.26621075       3.94089647       0.00000000      -0.00088920       0.00531416       0.00810198
C        0.11267283       4.36000828       3.97914535       0.00000000      -0.00243226       0.01466864      -0.00435340
C       -1.14391449       6.51344868       3.84387146       0.00000000      -0.00599339       0.00834988      -0.00973200
C       -2.37835775       8.64644332       3.75308377       0.00000000       0.00056361       0.00571336       0.01078800
C        5.04422346       0.08784004       3.78595896       0.00000000       0.00738067      -0.00544471       0.00810590
C        3.83140029       2.25299604       3.77868808       0.00000000       0.00551418       0.00576376      -0.00543295
N        1.23736118       6.54611846       4.11329252       0.00000000       0.00282511      -0.01061641      -0.00530130
C        0.09014133       8.62758042       3.85177085       0.00000000      -0.00318624      -0.00438379      -0.01071424
C        7.51731295       0.06705068       3.81585928       0.00000000       0.00518445      -0.00107330      -0.00588559
C        6.30872233       2.19455483       3.67631138       0.00000000      -0.00077956       0.00134457       0.00782118
C        5.09900874       4.30500813       3.41188539       0.00000000       0.00265869      -0.00882732       0.00145779
S        3.67769922       6.42853363       2.59295886       0.00000000       0.00675353      -0.01519892      -0.00365820
C        2.56091720       8.60511889       3.73128105       0.00000000      -0.00622270      -0.00696065       0.01024780
C        9.97933079       0.06850459       3.76283931       0.00000000       0.00751369      -0.00353010       0.00168748
C        8.76266764       2.20691590       3.73773338       0.00000000      -0.00547841      -0.00420286      -0.00813439
C        7.54913615       4.34214691       3.55372558       0.00000000      -0.00895808       0.00856878       0.00607125
C        6.29600427       6.48649607       3.35529363       0.00000000      -0.00700023      -0.00371282       0.00844593
C        5.03099972       8.62263458       3.50467156       0.00000000       0.01526889       0.00363341       0.00748484
C        0.10118090       1.51486095       3.84398435       0.00000000       0.00232335       0.00468427      -0.00700032
C       -1.12651806       3.64271840       3.84723262       0.00000000       0.00408173       0.00073601       0.01302498
C       -2.36014697       5.78577087       3.74118601       0.00000000      -0.00335977      -0.00446400       0.00153731
C       -3.60521628       7.92578901       3.66065865       0.00000000       0.00589444       0.00400623      -0.01591351
C       -4.83120173      10.06819979       3.71374085       0.00000000      -0.00862158       0.00042808       0.00793608
C        2.57835758       1.54128552       3.85793932       0.00000000       0.00249286       0.00024957      -0.00505731
C        1.27476787       3.64619788       4.08377049       0.00000000      -0.00814734       0.00705024       0.00235289
C        0.09706180       5.83181657       3.97535577       0.00000000      -0.00786858       0.01092641      -0.01030552
C       -1.14817131       7.93153317       3.82237293       0.00000000      -0.00495080       0.00720891       0.00155823
C       -2.36903814      10.07247546       3.77369097       0.00000000       0.00203163       0.00104922       0.00811606
C        5.07068831       1.50178328       3.74429385       0.00000000       0.00442003      -0.00497547      -0.01020069
C        3.92924794       3.63461418       3.73792445       0.00000000      -0.00242345       0.00551727      -0.00123079
C        1.30540884       7.88263011       3.88779654       0.00000000      -0.01140471      -0.01325649      -0.00761452
C        0.10846936      10.04936563       3.81656708       0.00000000       0.00819712      -0.00491501       0.00777047
C        7.53602030       1.48579197       3.74846255       0.00000000      -0.00464124      -0.00024043       0.00536051
C        6.33724223       3.60605081       3.52761535       0.00000000      -0.00093078       0.00170851       0.00856368
C        5.13245645       5.72494940       3.17392133       0.00000000       0.00220898      -0.01649045      -0.00054954
C        3.77347970       7.96097544       3.39817777       0.00000000       0.00495598       0.01531088      -0.00841323
C        2.57595857      10.03035959       3.79901261       0.00000000       0.00299676      -0.00341462       0.00667276
C        9.98584214       1.49647995       3.78024277       0.00000000       0.00436113      -0.00298212      -0.00951377
C        8.77004603       3.63392489       3.67734629       0.00000000      -0.01209298      -0.00128624       0.00740901
C        7.53578995       5.77146969       3.51029560       0.00000000      -0.00853781       0.00735766      -0.00042704
C        6.26728083       7.91801279       3.44916065       0.00000000       0.00942028      -0.00639654       0.00678079
C        5.04013791      10.04869523       3.68447107       0.00000000       0.00864774       0.00197064       0.00616525
Ag       2.75898371       5.00510605       4.71494401       0.00000000       0.00213679      -0.00163506      -0.00653999
O        0.31593128       3.21885484       6.92986909       1.00000000      -0.01672126      -0.00172160      -0.00413165
O       -0.61142999       2.46518386       6.64918107       1.00000000       0.01342496       0.00637898       0.01007692
