53
Lattice="12.336457 0.0 0.0 -6.168228499999997 10.683685154694365 0.0 0.0 0.0 15.0" Properties=species:S:1:pos:R:3:forces:R:3 energy=-456.96615891508355 free_energy=-456.96615891508355 stress="-0.0005795773190851166 0.004586300222516069 1.3622213427388486e-06 0.004586300222516069 -0.005946675353963241 -2.2024104706816383e-05 1.3622213427388486e-06 -2.2024104706816383e-05 3.1131190416131644e-05" pbc="T T T"
C        0.05586260       0.00511535       3.69273685       0.00234256      -0.00026851       0.00220049
C       -1.14401267       2.16574937       3.72116977      -0.00383235       0.00213610      -0.00176752
C       -2.37233274       4.29320439       3.71474889       0.00089673      -0.00122373       0.00670443
C       -3.64325195       6.41233177       3.68626833       0.00097921       0.00119936      -0.00443726
C       -4.90839856       8.53280795       3.65797658       0.00370463       0.00073673       0.00517903
C        2.51505997      -0.01205505       3.73147476      -0.00387062      -0.00119384      -0.00323852
C        1.31266841       2.14670285       3.73864975       0.00426683       0.00022395       0.00330394
C        0.10886536       4.30800316       3.76054513       0.00372638      -0.00022774      -0.00387357
C       -1.15976447       6.43010031       3.76194903      -0.00508052       0.00184824      -0.00168874
C       -2.42804643       8.54975790       3.74162926      -0.00776679       0.00267313       0.00509905
C        4.99072021       0.00264120       3.78893005      -0.00400819       0.00182501      -0.00856027
C        3.77202274       2.11071137       3.77866878      -0.00116834      -0.00213046      -0.00225144
C        2.60722748       4.23958578       3.89591337       0.00033085      -0.00204032       0.00010747
C        1.29978282       6.50247307       3.94838929       0.00349981      -0.00668329      -0.00385888
C        0.03862816       8.57720466       3.82627957       0.00541151      -0.00234182      -0.00499882
C        7.46234157       0.02984376       3.81084240       0.00266983       0.00322558       0.00374187
C        6.24922979       2.13053076       3.78041892       0.00500968      -0.00391780       0.00494894
C        5.03327639       4.23267676       3.73093070      -0.00034100      -0.00107667       0.00111693
S        3.34190285       6.18005253       3.32677607       0.00257272       0.00537248       0.00902787
C        2.50696374       8.60895607       3.79251387      -0.00080851       0.00125406      -0.00133616
C        9.94262176       0.03195573       3.74771671       0.00089057       0.00016518      -0.00033068
C        8.72233327       2.15809335       3.75675044      -0.00097673      -0.00112958      -0.00748440
C        7.49109822       4.27755132       3.71332274       0.00527604      -0.00024749       0.00170670
C        6.19050090       6.39050069       3.62106100      -0.00080521       0.00623894      -0.00246391
C        4.95393511       8.53341169       3.64175685      -0.00928646      -0.00925431       0.00227646
C        0.07665482       1.43890476       3.71371109       0.00056667       0.00370067       0.00175032
C       -1.12654614       3.59430605       3.72490286       0.00104457       0.00155457      -0.00152554
C       -2.39086730       5.71367454       3.71494284      -0.00303693      -0.00048139       0.00641663
C       -3.66111445       7.83358855       3.68827920      -0.00229397      -0.00013542       0.00922967
C       -4.89041813       9.96234651       3.68827703       0.00124646      -0.00169476       0.00341786
C        2.52678275       1.41271279       3.75481940       0.00048714      -0.00267370      -0.00034255
C        1.34838920       3.59499344       3.76837090       0.00537852       0.00001856      -0.00335296
C        0.11221955       5.73761481       3.79609611       0.00014622       0.00000291      -0.01097353
C       -1.18855771       7.84816138       3.78481440      -0.00466772       0.00322413      -0.00460229
C       -2.41913093       9.96942485       3.75575419      -0.00740345       0.00129258      -0.00203384
C        5.00914536       1.41592031       3.78425777       0.00090315       0.00052574      -0.00369002
C        3.79526015       3.52582135       3.77827282      -0.00136316      -0.00280681       0.00727227
C        1.27573203       7.89006628       3.84104735       0.00681243      -0.00386931       0.00743622
C        0.05553976       9.99611482       3.81293605       0.00116673       0.00258580      -0.00191309
C        7.48179361       1.44174713       3.78670210       0.00435852      -0.00014519      -0.00106511
C        6.26962812       3.54668494       3.74795306       0.00366350      -0.00302693       0.00249205
C        5.00447064       5.61740691       3.61879634      -0.00374589       0.00308178       0.00233192
C        3.69094945       7.89338780       3.65678922      -0.01025617      -0.01130575      -0.00477916
C        2.53106390      10.02305404       3.79799889       0.00135200       0.00272441      -0.00212719
C        9.95623976       1.45605738       3.74301316      -0.00380672       0.00024218      -0.00357402
C        8.73112332       3.57741070       3.72549353       0.00430536      -0.00266612       0.00744095
C        7.46048772       5.69538460       3.66879017       0.00173312       0.00381912       0.00321952
C        6.18950661       7.81821127       3.61939766      -0.00008315       0.00496167       0.00125707
C        4.98686765       9.98033071       3.69285262      -0.00051309      -0.00694982       0.00263375
Ag       2.53393472       5.68241706       5.59328913       0.00414048      -0.00193690      -0.00509680
O        2.65403350       5.59106746       7.67050805      -0.00241698       0.01743561      -0.00439644
O        1.29137002       5.69094787       8.16046061      -0.00371700       0.00357012       0.00320492
H        1.47074651       5.50085132       9.10187166       0.00236676      -0.00621096      -0.00775362
