52
Lattice="12.336457 0.0 0.0 -6.168228499999997 10.683685154694365 0.0 0.0 0.0 15.0" Properties=species:S:1:pos:R:3:forces:R:3 energy=-438.90975254237435 free_energy=-438.90975254237435 stress="0.00014413130279733374 -0.0033111597902067778 3.138131613563942e-05 -0.0033111597902067778 -0.008801649433362113 4.970671588302688e-07 3.138131613563942e-05 4.970671588302688e-07 2.1760357406561447e-05" pbc="T T T"
C       -0.01024758      -0.03726419       3.89657118       0.00414933      -0.00030252       0.00960475
C       -1.26517384       2.10440148       4.02763243      -0.00836833      -0.00591724      -0.00149241
C       -2.50992281       4.24153444       3.80902418       0.00827396      -0.00274969      -0.00104747
C       -3.71887230       6.37062769       3.64631776      -0.00473038      -0.00770487       0.01120159
C       -4.93987134       8.50140994       3.73394988       0.00964397      -0.00539759      -0.00582276
C        2.46384775      -0.08417804       3.80400848      -0.01206418      -0.01120518       0.00646880
C        1.24300556       2.02708128       4.16494395       0.00547540      -0.00346107       0.00317697
C       -0.09791720       4.25469530       4.19260553      -0.00071652      -0.00013247      -0.00857612
C       -1.22960664       6.35611707       3.67135563       0.00102576       0.00186958      -0.00130236
C       -2.45927723       8.48345087       3.65414007       0.00899432       0.01107203       0.00384868
C        4.92502964      -0.05399837       3.62112337      -0.00531452       0.00144863       0.00532438
C        3.64554373       2.01243130       3.49627354      -0.00321548      -0.00511530       0.01476635
P        1.67377240       6.15843187       3.54971616      -0.00863523       0.00107824      -0.00287557
C        0.01375659       8.50153266       3.62559447       0.00411824       0.00135848      -0.00383354
C        7.37488580      -0.00046193       3.65287807       0.00263045       0.00161000      -0.00389410
C        6.11990193       2.12452114       3.49607268      -0.00241153       0.00030357      -0.00253441
C        4.92391947       4.30254074       3.30036822       0.00396475       0.00198090       0.00683418
C        3.61836525       6.44826406       3.62103031       0.01203000       0.00714322      -0.00336775
C        2.47930432       8.59604167       3.68601636      -0.00335669       0.00636046      -0.01077778
C        9.85858017       0.00517234       3.79057462       0.00908898      -0.00446178       0.00539692
C        8.59982168       2.12469801       3.72677082      -0.00831521       0.01096876       0.00973490
C        7.35908418       4.25592697       3.58057836       0.00266448      -0.00520805      -0.00603413
C        6.12874327       6.39388178       3.59509592      -0.00154444       0.00500424      -0.00390115
C        4.93919983       8.54518146       3.72503660      -0.00505877      -0.00664513      -0.01045384
C       -0.01548256       1.38181394       4.05734194       0.00043454       0.00560333       0.00026131
C       -1.29524672       3.52124671       4.03724731       0.00233335      -0.00649319      -0.00549295
C       -2.48372303       5.65947309       3.69780792      -0.00015509      -0.00405823       0.00140294
C       -3.70527673       7.78781403       3.67182830       0.01350879      -0.00107564       0.00304190
C       -4.94713872       9.91398353       3.83081541      -0.00653190      -0.00721970      -0.01438319
C        2.45390461       1.32966840       3.86049228      -0.00033407      -0.01423229       0.00093730
P        1.33999717       3.59091767       4.95019719      -0.00579288       0.00059468       0.00648824
C       -0.01901940       5.60141744       3.78772429       0.00742798       0.00580510      -0.00198558
C       -1.22129422       7.77798671       3.62157735       0.00374071       0.00139418       0.00100112
C       -2.46737544       9.90397343       3.68501650      -0.00922967       0.00805830      -0.00395522
C        4.90381264       1.38200453       3.52646770      -0.00154021      -0.00349011      -0.01036170
S        3.44717831       3.57110364       2.79571617       0.00666713       0.01156398       0.00535493
C        1.28387007       7.85936688       3.63915988       0.00100455       0.00587933      -0.00071761
C       -0.00566499       9.93443109       3.62659947      -0.00024106       0.00229956      -0.01129893
C        7.35746737       1.42391284       3.62092717      -0.00404596       0.00610182      -0.00114759
C        6.11381448       3.55056357       3.45035668       0.00098221      -0.00204898      -0.00607072
C        4.86714228       5.70924633       3.48757825       0.00186541       0.00747710       0.01149677
C        3.70244148       7.85950450       3.67352535      -0.01032894       0.00095447       0.00144852
C        2.45506696      10.00243980       3.70855459       0.00701494       0.00362539       0.00390552
C        9.84443474       1.41681797       3.85203586      -0.01245386      -0.00352774       0.00587451
C        8.59248710       3.54190668       3.70539601       0.00617811       0.00746500       0.00076203
C        7.36511223       5.67490301       3.60220279      -0.00700428      -0.00724509       0.00914480
C        6.15858446       7.81143270       3.69609434       0.00133374       0.00226014      -0.00555358
C        4.92560137       9.96382460       3.80670745       0.01084720      -0.00902679       0.01013276
Ag       2.66403284       5.53103429       5.71842901      -0.00886843      -0.01192044       0.00012921
O        3.67501193       5.96069928       7.49692035       0.00124962       0.00207606      -0.01645571
O        2.65564047       5.91548921       8.51322918       0.00173804       0.00470668       0.01401808
H        3.14201649       5.40965973       9.19431525      -0.00812833       0.00257586      -0.00842128
