52
Lattice="12.336457 0.0 0.0 -6.168228499999997 10.683685154694365 0.0 0.0 0.0 15.0" Properties=species:S:1:pos:R:3:forces:R:3 energy=-446.0303699397177 free_energy=-446.0303699397177 stress="-0.004065335274049608 -0.0029400428208252393 2.048491551032875e-05 -0.0029400428208252393 0.002268541004388432 1.0166568357962952e-05 2.048491551032875e-05 1.0166568357962952e-05 5.015739127827527e-06" pbc="T T T"
C       -0.11327043       0.01403917       3.93274457      -0.00382137       0.00136262      -0.00075177
C       -1.37450458       2.12613340       3.95990661      -0.00011352      -0.00720815      -0.00083719
C       -2.59472218       4.27114791       3.86840827      -0.00132762      -0.00206489       0.00713578
C       -3.79809923       6.42592312       3.78879590      -0.00713238       0.00231739       0.00545750
C       -5.02584066       8.57718798       3.83526076       0.00197892       0.00415424       0.00037418
C        2.36096709       0.02719256       3.92950575      -0.00677108       0.00457079       0.00300596
C        1.11010592       2.18187474       4.06154298      -0.00139160       0.00799991      -0.00188526
C       -0.13403638       4.25070141       4.13139788       0.00093117       0.00006297       0.01018809
C       -1.36278825       6.42208983       3.96758039       0.00710056       0.00005968      -0.00062342
C       -2.57483022       8.56600729       3.89185413       0.00124561      -0.00524632       0.00756564
C        4.82366949       0.01075711       3.79576159      -0.00286119      -0.00395349       0.00750675
C        3.55307257       2.10772070       3.56149779       0.00154432      -0.00432818      -0.01743529
C        1.04461793       6.40648508       4.27868210       0.01272969      -0.00367315       0.00613074
C       -0.10789741       8.53629821       3.94325858       0.00391837      -0.00047056      -0.00009542
C        7.28761804      -0.01749406       3.79250800      -0.00649175      -0.00051305      -0.00932405
C        6.04190009       2.14743667       3.57229602       0.00312646      -0.00018055       0.00213153
C        4.90336052       4.36020614       3.27360397       0.00720849       0.00151690       0.00630300
N        3.69670259       6.45773224       3.45329367       0.00671988      -0.00415904      -0.00970167
C        2.37472775       8.49404143       3.86699985       0.00157368       0.00093981      -0.00209270
C        9.74592759      -0.01959183       3.83950937      -0.00413533       0.00247947       0.00575251
C        8.50717473       2.13001658       3.76377786      -0.00920463      -0.00265138       0.00109083
C        7.30130476       4.28794939       3.62483067       0.00173951       0.00275893      -0.01146702
C        6.10747471       6.45941850       3.57454537       0.00280696       0.00406366      -0.00094092
C        4.84787810       8.55749718       3.75127986       0.00660612      -0.00189210      -0.00373039
C       -0.13001616       1.43444646       4.00891870       0.00015713       0.00090107       0.00031183
C       -1.38039020       3.54597409       3.98657087       0.00516406      -0.00487005      -0.00805669
C       -2.58305697       5.70392312       3.87265257      -0.00053030       0.00295512      -0.00747687
C       -3.79822991       7.85385699       3.84072132      -0.00174757       0.00083629       0.00959099
C       -5.03989679       9.99580531       3.92529959      -0.00487802       0.00249177       0.00404862
C        2.35192230       1.45280982       3.90302098      -0.00337584       0.00606162      -0.00630581
C        1.04417196       3.55111145       4.28351796       0.00601725       0.00111235       0.00382440
C       -0.12756933       5.70657677       4.11754402       0.01081971       0.00026107      -0.00535729
C       -1.34492086       7.84350555       3.93476192       0.00613911      -0.00137760      -0.00086639
C       -2.57453761       9.99243683       3.88037056      -0.00591440      -0.00374767      -0.00743633
C        4.81182174       1.44029786       3.63121072       0.00363425      -0.00271566      -0.00839595
S        3.38894586       3.68174153       2.86631822      -0.00540331       0.00709036      -0.00330995
C        1.13647743       7.77165205       4.02628177       0.00401464       0.00047245       0.00354422
C       -0.10961599       9.96095525       3.83767140      -0.00251860      -0.00269336       0.00651461
C        7.27057578       1.41991541       3.70166372      -0.00616870      -0.00327031       0.00811967
C        6.05712967       3.58370917       3.47865770       0.00636446       0.00250511       0.00073021
C        4.86986166       5.78793947       3.39535865       0.01025043       0.00048188      -0.00222864
C        3.62981910       7.78130896       3.68503905       0.00679793      -0.00547161      -0.00101839
C        2.35486170       9.92268130       3.82823119      -0.00431081       0.00410963      -0.00677052
C        9.73151302       1.40683509       3.85659070      -0.00873676       0.00054570       0.00342676
C        8.51488205       3.56122784       3.75148135      -0.00382043      -0.00256464       0.00026652
C        7.31586392       5.71554991       3.65352831      -0.00723588       0.00157480       0.00602229
C        6.08794322       7.87248490       3.71816061       0.00761399       0.00129154       0.00661046
C        4.82255598       9.97099090       3.85275317      -0.00264270      -0.00056073       0.00236716
Ag       2.37868933       4.95618576       5.12833009      -0.01643826       0.00923247       0.00290010
O        4.22183901       5.47641220       6.06110539       0.00250408      -0.00394289       0.01289182
O        4.79718819       4.25772798       6.50829545      -0.01575427      -0.00684444      -0.00659683
H        5.04431915       4.52319134       7.41760314       0.00401955       0.00019025      -0.01110744
