52
Lattice="12.336457 0.0 0.0 -6.168228499999997 10.683685154694365 0.0 0.0 0.0 15.0" Properties=species:S:1:pos:R:3:forces:R:3 energy=-445.9197980744452 free_energy=-445.9197980744452 stress="-0.003683693858089286 0.0026119505956762284 -2.009004720934463e-05 0.0026119505956762284 -0.0006652121497404035 -6.200356725059553e-05 -2.009004720934463e-05 -6.200356725059553e-05 1.9812631647038015e-05" pbc="T T T"
C       -0.01093563      -0.00399980       3.72880974       0.00429798      -0.00047047       0.00204886
C       -1.23468850       2.12859106       3.79092031       0.00365645       0.00581100       0.00907366
C       -2.45626658       4.26163170       3.74474641       0.00179267      -0.00143805      -0.00129157
C       -3.70501298       6.39929895       3.66611254      -0.00548050      -0.00686669      -0.00212034
C       -4.96005825       8.53658407       3.62127171      -0.00283955      -0.00475767      -0.00290570
C        2.45154239       0.01100325       3.77534441       0.00239317       0.00174278       0.01022460
C        1.22911337       2.16062358       3.91626779       0.00236895       0.00250279      -0.00086775
C        0.03023455       4.26943532       3.89758344       0.00125971      -0.00514259      -0.00166061
C       -1.24827543       6.41423512       3.77391624      -0.01065671      -0.00493446       0.00298712
C       -2.49228577       8.54755048       3.72600620      -0.00634161       0.00615577       0.00654909
C        4.92397049      -0.00473697       3.78995272      -0.00144355      -0.00498128       0.00629323
C        3.69950269       2.15623445       3.85045499      -0.00449894      -0.00034487      -0.00498966
N        1.14819671       6.45000739       3.92029682       0.00939112       0.00770330      -0.00138883
C       -0.02613656       8.53675711       3.78351401       0.00235668      -0.00165022       0.00375252
C        7.39746036      -0.02097657       3.80685126       0.00202218      -0.00890631      -0.00532066
C        6.18144975       2.10692650       3.77652841       0.00194856      -0.00441380       0.00312153
C        4.94647709       4.21676209       3.62141259       0.00510074      -0.00152038      -0.00283411
S        3.55964824       6.28115082       2.72412085      -0.00919277       0.01397689      -0.00596800
C        2.44237819       8.52175455       3.67557952       0.00784554      -0.00285627      -0.00368787
C        9.86229289      -0.02040048       3.74518943      -0.01242514       0.00214719      -0.00160165
C        8.64230078       2.11672443       3.76940077       0.00376792       0.01231541       0.00093638
C        7.41903562       4.25112625       3.67509032       0.00296701      -0.00476439      -0.00066850
C        6.16930224       6.38757102       3.48349187       0.00203084      -0.00449429      -0.00635924
C        4.91478936       8.52847302       3.51816988      -0.01303737      -0.00447277       0.01039820
C       -0.01240082       1.41930132       3.81285066       0.00685735       0.00753091      -0.00209487
C       -1.22552001       3.55464832       3.80023268       0.00037688       0.00100431       0.01144021
C       -2.46841766       5.68927710       3.72786654      -0.01096094      -0.00780139      -0.00022480
C       -3.72060048       7.82657913       3.66511027      -0.00432610      -0.00057001       0.00141001
C       -4.94932152       9.96736084       3.70623542       0.00352598       0.00060205      -0.00419757
C        2.45807766       1.43271614       3.87427428      -0.00218002       0.00125387       0.00648051
C        1.19836935       3.55152641       4.09005661       0.00774937       0.00275948      -0.00018486
C        0.01377082       5.73889374       3.86425865       0.00398929       0.00082346       0.00626811
C       -1.26079569       7.83294245       3.76194333      -0.00817144      -0.00410089      -0.00429681
C       -2.48548211       9.97254283       3.75926246      -0.00215549       0.00462275       0.00753760
C        4.94484729       1.41095611       3.80377295      -0.00434890      -0.00447465      -0.00018363
C        3.74606122       3.54565456       3.89247278       0.00447367      -0.00287195       0.00038250
C        1.19123035       7.78865922       3.78347943       0.01301942       0.00901077      -0.00645321
C       -0.01005722       9.95936400       3.79323189       0.00031652      -0.00274015       0.00450506
C        7.41278811       1.39789955       3.79082556       0.00572471      -0.00043182       0.00419552
C        6.19815161       3.52286168       3.69765739       0.00344995      -0.00504813       0.00048760
C        4.99411472       5.62621251       3.36490195       0.00081720       0.00198854      -0.00460655
C        3.66027703       7.86729881       3.40006342      -0.00277608      -0.01062614      -0.00225141
C        2.45717169       9.94346469       3.76812384      -0.00325586      -0.00902812      -0.00972450
C        9.86725479       1.40632472       3.77292526       0.00030794       0.00438047       0.00124194
C        8.65049221       3.54321506       3.73125947       0.00447389       0.00785813      -0.00052417
C        7.41170328       5.67649320       3.61537205       0.00608181      -0.00833444      -0.01009684
C        6.14774444       7.81754937       3.50401018      -0.00786101      -0.00231113       0.00118667
C        4.92267734       9.95737229       3.67210136      -0.00709214      -0.00117451       0.00499955
Ag       2.56379274       4.59813621       5.27957156      -0.00494859      -0.00387508      -0.01004185
O        2.93037810       5.74438648       6.99553407       0.00896451       0.00978060      -0.00647330
O        2.60720191       4.91072278       8.12754313       0.01077059       0.00745760       0.00456409
H        3.46157121       4.94488970       8.59760222      -0.01010587       0.01397485      -0.00706569
