51
Lattice="12.336457 0.0 0.0 -6.168228499999997 10.683685154694365 0.0 0.0 0.0 15.0" Properties=species:S:1:pos:R:3:initial_magmoms:R:1:forces:R:3 energy=-429.68247355205216 free_energy=-429.68247355205216 stress="-0.0069212256683851125 0.00021383620093827296 1.9960914335676747e-05 0.00021383620093827296 -0.005321448396520345 2.1073337668447717e-05 1.9960914335676747e-05 2.1073337668447717e-05 -1.4140875025422822e-05" pbc="T T T"
C       -0.00622619      -0.03292914       3.80175523       0.00000000      -0.00909754       0.00029610      -0.00268624
C       -1.23287838       2.12441943       3.93166096       0.00000000      -0.00125276      -0.00817408       0.00187533
C       -2.47484770       4.26099916       3.75232050       0.00000000       0.00475541       0.00584083       0.00051148
C       -3.70185924       6.39751411       3.60707124       0.00000000       0.00453882      -0.00398657       0.00939776
C       -4.94550021       8.52071679       3.57095278       0.00000000       0.00351923       0.00651730       0.00442473
C        2.46662792      -0.08050937       3.89878381       0.00000000       0.00147530      -0.00220658       0.00105057
C        1.23522442       2.00747440       4.26332039       0.00000000       0.00245097       0.00338586       0.00137684
C       -0.04666143       4.32568979       3.74440220       0.00000000      -0.00518992      -0.00511961      -0.01367186
C       -1.27067849       6.40995101       3.40681148       0.00000000       0.00090391       0.00283923      -0.00524431
C       -2.45976941       8.52224553       3.56341984       0.00000000      -0.00087246      -0.00241657       0.00787790
C        4.94056231      -0.03437385       3.80803983       0.00000000       0.00312516       0.00733208       0.00077840
C        3.70086730       2.00202785       4.28239883       0.00000000      -0.00423666       0.00615132      -0.00436457
S        1.11874934       6.35349152       2.26820620       0.00000000       0.00388114       0.00224623       0.00255916
C       -0.00391126       8.55490505       3.32237109       0.00000000      -0.00714733      -0.01036039      -0.00145217
C        7.40090412      -0.00282700       3.66164685       0.00000000       0.00106791      -0.00376611      -0.00242478
C        6.17098688       2.12014229       3.95301265       0.00000000      -0.00457327       0.00404953       0.00092115
C        4.98590167       4.31941312       3.78769227       0.00000000      -0.00434547       0.00030656       0.00404269
S        3.78672501       6.32959016       2.34062873       0.00000000       0.00185012      -0.00304657      -0.00331999
C        2.46500589       8.59720804       3.13595099       0.00000000       0.00211622       0.00540880       0.00296180
C        9.87024364      -0.00243035       3.65769834       0.00000000       0.00327526      -0.00118219       0.00205383
C        8.63670188       2.12414177       3.83085758       0.00000000       0.00133472       0.00079385       0.00016745
C        7.41160055       4.25992783       3.76564796       0.00000000      -0.00330160      -0.00453541       0.00713704
C        6.20170478       6.40710459       3.43289966       0.00000000       0.00229893       0.00357131      -0.00653985
C        4.93492546       8.55102942       3.33722917       0.00000000      -0.00056702       0.00278027      -0.00467649
C       -0.01062610       1.38259106       4.01102341       0.00000000      -0.00042720      -0.00272498       0.00664829
C       -1.24507799       3.55297774       3.84492452       0.00000000      -0.00261715      -0.00633469      -0.00241611
C       -2.48229248       5.68242215       3.61780012       0.00000000       0.00824116       0.00491538      -0.00005464
C       -3.70252388       7.81462728       3.57032032       0.00000000       0.00170011      -0.00327519      -0.00240373
C       -4.94424680       9.93046078       3.75045748       0.00000000      -0.00501028       0.00698093      -0.00696021
C        2.46744136       1.30266541       4.18044687       0.00000000      -0.00014735      -0.00184653       0.00384754
P        1.36308430       3.72235877       4.56139937       0.00000000       0.00597605       0.00466536      -0.00111192
C       -0.10232987       5.65995483       3.25309922       0.00000000      -0.00188205      -0.00031924      -0.00116259
C       -1.23746798       7.82887502       3.38379177       0.00000000      -0.00600840      -0.00326387       0.00320762
C       -2.45935472       9.93100798       3.74930591       0.00000000       0.00573083       0.00003370       0.00383742
C        4.94734160       1.37854422       4.03067258       0.00000000      -0.00389735       0.01188155       0.00053220
P        3.57182423       3.71410023       4.59650042       0.00000000       0.01034760      -0.00625174      -0.00545563
C        1.21488449       7.93065686       2.98198501       0.00000000      -0.00023871       0.00032552       0.00290836
C        0.00105910       9.96574626       3.60214494       0.00000000      -0.00167743      -0.00730688      -0.00276649
C        7.39962643       1.41547715       3.83164254       0.00000000      -0.00173779      -0.00045163       0.00108105
C        6.18423088       3.54889190       3.87241519       0.00000000      -0.00713193      -0.00146011       0.00326194
C        5.03307735       5.65453036       3.30090599       0.00000000       0.00073688      -0.00031723       0.00004085
C        3.71404129       7.92587320       3.00457138       0.00000000      -0.00144826      -0.00000199       0.00562540
C        2.46666764       9.98785648       3.50028842       0.00000000       0.00633425       0.00482269      -0.00285848
C        9.87391963       1.41715371       3.82240183       0.00000000       0.00041141      -0.00452916      -0.00330787
C        8.63681546       3.54629177       3.80559118       0.00000000       0.00376119       0.00403778       0.00275537
C        7.41600690       5.68124319       3.63047821       0.00000000       0.00100338      -0.00389136       0.00376192
C        6.16763143       7.82538180       3.40234785       0.00000000       0.00406292       0.00858340      -0.00771114
C        4.93279650       9.96528161       3.60137561       0.00000000      -0.00482527      -0.00233660      -0.00034635
Ag       2.45179336       4.44429365       6.60063307       0.00000000       0.00175134      -0.00268485      -0.01786225
O        2.31754121       4.45217908       9.52362541       1.00000000      -0.00191817      -0.00742810       0.01509647
O        2.47469323       5.25561893       8.53979325       1.00000000      -0.00709881       0.00145264      -0.00094289
