52
Lattice="12.336457 0.0 0.0 -6.168228499999997 10.683685154694365 0.0 0.0 0.0 15.0" Properties=species:S:1:pos:R:3:forces:R:3 energy=-434.0977395583058 free_energy=-434.0977395583058 stress="-0.002437474144099692 -1.4196686633251299e-05 -5.101866902604708e-05 -1.4196686633251299e-05 -0.010539205334074342 8.269893037873929e-06 -5.101866902604708e-05 8.269893037873929e-06 3.5559178691427814e-05" pbc="T T T"
C       -0.00906198      -0.01621991       3.76844365       0.01035404       0.00161444       0.00294759
C       -1.24111616       2.13011653       3.94329409      -0.00155361       0.00215199      -0.00256286
C       -2.48165205       4.26937535       3.83125476       0.00738798       0.00070987      -0.00513246
C       -3.70363710       6.39792486       3.64982378       0.00212327      -0.00968588      -0.00052287
C       -4.95446491       8.51957521       3.59992121      -0.00221497      -0.00250673       0.00246711
C        2.45947955      -0.06125439       3.73679801       0.00858650       0.00016445      -0.01097312
C        1.25602908       2.04768105       4.08342812      -0.00108519      -0.00041177       0.00585724
C       -0.08578846       4.27409182       4.32995080      -0.01416536      -0.00300808       0.01241125
C       -1.26571255       6.41607506       4.03129522      -0.00450713       0.00243194      -0.00605953
C       -2.47050564       8.52084487       3.77394306       0.00321358      -0.00116375      -0.00459680
C        4.92639710      -0.01921770       3.66755803      -0.00261135      -0.00628603      -0.01062828
C        3.66338560       2.03134208       3.43016390      -0.00978463      -0.00069930       0.00394627
P        1.39501472       6.39334319       4.90913505      -0.00416029       0.00687998      -0.00678503
C       -0.00499193       8.55951712       3.95540589       0.00696074      -0.00248572      -0.01268815
C        7.38310795       0.02684289       3.71160647       0.00309462      -0.00829567       0.00370226
C        6.15191706       2.13178091       3.44306049      -0.01001254      -0.00454145      -0.00247803
C        5.00875237       4.28257404       3.04741941       0.00380102       0.00479023       0.00258468
S        3.45017575       6.38537659       2.72312444       0.01510270       0.01025561      -0.00459892
C        2.46429244       8.61432412       3.77135279      -0.00145509      -0.00661286      -0.00303818
C        9.86800648       0.02484685       3.70967544       0.00088954       0.00267631       0.01151017
C        8.62787245       2.14653383       3.67370521      -0.00446942       0.01545330      -0.00469328
C        7.40760609       4.27116414       3.46728179       0.00162258       0.00051775       0.00864751
C        6.17803875       6.41581914       3.30760966      -0.00299394       0.00103704       0.00746149
C        4.92206794       8.55704326       3.48415507      -0.01349738       0.00145691       0.00774380
C       -0.00498579       1.40181038       3.96055847      -0.00058936       0.00641908      -0.01332199
C       -1.26550271       3.54584954       4.03090941      -0.00584277      -0.00294399       0.00860783
C       -2.48146349       5.69251032       3.83041743       0.00269965      -0.00476850      -0.00295362
C       -3.70876926       7.81497868       3.66995928      -0.00016078      -0.00521814       0.00478621
C       -4.95383960       9.93494184       3.71581161       0.01058796       0.00174079       0.00383638
C        2.46374434       1.34768614       3.77655247      -0.00069215      -0.00137116       0.00958229
P        1.39076072       3.56665543       4.91915468      -0.00042881       0.00099383      -0.00902162
C       -0.08580913       5.68783851       4.32960916      -0.01423049      -0.00323217       0.00756117
C       -1.24134894       7.83145852       3.94019000       0.00398167       0.00224786      -0.00386957
C       -2.46870882       9.93714524       3.71228925       0.00271557      -0.00255258       0.00946584
C        4.92184271       1.40543292       3.49114978      -0.01125306      -0.00656549       0.00026385
S        3.44798646       3.57760230       2.73464294       0.01119288      -0.00615316      -0.01106953
C        1.25639210       7.91421221       4.07821026       0.00489955      -0.00025383       0.00038434
C       -0.00852060       9.97765296       3.76362353       0.00062874      -0.00168805       0.01991289
C        7.38225391       1.44237669       3.60026177      -0.00499627       0.00121301       0.01298350
C        6.17759329       3.54605833       3.31111080      -0.00135929       0.00075382       0.00802321
C        5.00941120       5.67889633       3.04408599      -0.00142001       0.00687012       0.00311136
C        3.66373108       7.93060648       3.42286423      -0.01066406       0.00355222      -0.00086405
C        2.45991820      10.02324192       3.73071673       0.00361399      -0.00809513      -0.00243699
C        9.86628480       1.44070872       3.77730630      -0.00352537       0.00800268      -0.01562918
C        8.63245682       3.56369302       3.65295565       0.00614585       0.01304326      -0.00740664
C        7.40764541       5.69061902       3.46662574       0.00279827      -0.00390910      -0.00264628
C        6.15218273       7.83050740       3.43830826      -0.01183781       0.00031793       0.00101262
C        4.92627491       9.98128259       3.66423834       0.00504147       0.00104878       0.00069733
Ag       2.47550627       4.98664942       6.51086090      -0.00474301      -0.00308102      -0.00702406
O        3.55373923       4.99297934       8.27742843       0.01237039      -0.00086988      -0.01423900
O        2.55557428       4.98671592       9.30269845       0.00573138       0.00013180       0.01335699
H        3.13182312       4.98743185      10.09315262       0.00871018      -0.00007558      -0.00762511
