53
Lattice="12.336457 0.0 0.0 -6.168228499999997 10.683685154694365 0.0 0.0 0.0 15.0" Properties=species:S:1:pos:R:3:forces:R:3 energy=-447.6662173208503 free_energy=-447.6662173208503 stress="-0.008125422760216166 0.00017654228541883689 3.388731179563144e-05 0.00017654228541883689 -0.003488611969014167 -4.1694850646219334e-05 3.388731179563144e-05 -4.1694850646219334e-05 9.572938212751796e-05" pbc="T T T"
C       -0.00440195      -0.00847362       3.80032500       0.00786962       0.00656048       0.00318567
C       -1.24885143       2.11242499       3.88273661       0.00288686       0.00723219       0.00196617
C       -2.48412727       4.26004499       3.86007800       0.00714530      -0.00871872      -0.00203970
C       -3.70250359       6.40619844       3.80647772      -0.00089374      -0.00414028       0.00905520
C       -4.94329765       8.53982597       3.72203398      -0.00087296      -0.00175030      -0.00415880
C        2.46403753      -0.00042813       3.87012531       0.00424393      -0.00452171       0.00712037
C        1.22243026       2.13012789       3.97463310      -0.00060906      -0.00095921       0.00149265
C       -0.05240608       4.25375518       3.78220384       0.00322524      -0.00203664      -0.00624815
C       -1.26290135       6.40517556       3.61954270      -0.00050335       0.00101365      -0.00225080
C       -2.46513751       8.54061984       3.72047854       0.00412898       0.00220090      -0.00002100
C        4.93382849      -0.00871323       3.80883439      -0.00404707      -0.00258163       0.00047229
C        3.70759409       2.12793722       3.98339416       0.00828714      -0.00525126       0.00074882
P        2.46561638       4.50345234       4.66159318      -0.00756273       0.01366334       0.00379336
S        1.10247440       6.33204527       2.42578619       0.00063044       0.00068906       0.00245846
C       -0.00952414       8.54532716       3.47558082       0.00291868      -0.00002754      -0.00161692
C        7.40110519      -0.01508501       3.71995996      -0.01147705      -0.00112942       0.00133819
C        6.18112767       2.11027452       3.89725127       0.00058292      -0.00280376       0.00466529
C        4.98748406       4.24865964       3.80867215      -0.00472050       0.00862937      -0.00626206
S        3.79772700       6.31016366       2.48926211       0.00152231       0.00348291       0.01352029
C        2.46294660       8.57157525       3.27151631       0.00133221      -0.00394480      -0.00859794
C        9.86566688      -0.01484437       3.71361653       0.00727181       0.00077053       0.00795508
C        8.63454223       2.11539168       3.86863607      -0.00219939       0.00400782       0.00802530
C        7.41795860       4.25880642       3.86859586      -0.00576726       0.00060382       0.00010509
C        6.19362904       6.40317685       3.63175397      -0.00752495       0.00234543      -0.00038920
C        4.93725751       8.54363378       3.48113662      -0.00254723      -0.01371230      -0.00168298
C       -0.01075317       1.41010532       3.88858893      -0.00005546       0.00771974      -0.00312126
C       -1.26825955       3.53708164       3.86048505       0.00650774      -0.00333275      -0.00869733
C       -2.48329861       5.68664577       3.80348933       0.00235410      -0.00611443      -0.00434282
C       -3.70391045       7.82916019       3.75456686      -0.00026157       0.00113254       0.01323910
C       -4.93791485       9.96788743       3.79573272       0.00416093       0.00183496       0.00655374
C        2.46427321       1.42170934       3.97593300       0.00312967      -0.00328937      -0.00212986
C        1.16839772       3.55396504       3.99940507       0.00418088       0.00317447      -0.00541324
C       -0.09945942       5.64271690       3.43784690      -0.00076548      -0.00069569       0.00206324
C       -1.24233814       7.82895392       3.57270853       0.00491922       0.00157065       0.00591083
C       -2.47017214       9.96843699       3.79876588       0.00179714      -0.00259281       0.00527701
C        4.94153595       1.40902662       3.90066457       0.00661132      -0.00817341      -0.00013599
C        3.76409644       3.55023504       4.01087632       0.00045213       0.00268425      -0.00463367
C        1.20697489       7.90819612       3.14242734       0.00312696       0.00094399       0.00098683
C       -0.00286994       9.96589523       3.68185378      -0.00997694      -0.00090108      -0.00856118
C        7.40671683       1.40176640       3.84678463      -0.00402590       0.00071080       0.00054900
C        6.20306254       3.53400770       3.87969592      -0.00564719       0.00106983      -0.00825891
C        5.03062768       5.63704398       3.47014363      -0.00815341       0.01252562      -0.00046259
C        3.71783250       7.90561353       3.16063317      -0.00155008      -0.01085085      -0.01364315
C        2.46460192       9.96787276       3.59038382      -0.00236853      -0.00372288       0.00758131
C        9.86187439       1.40249198       3.83838764       0.00305062       0.00751096       0.00340477
C        8.63521492       3.54054006       3.88821277       0.00210869       0.00076873       0.01165497
C        7.41587475       5.68534255       3.80788722      -0.00735532       0.00043047       0.00544857
C        6.17001708       7.82720976       3.58051026      -0.00192917      -0.00636679      -0.00113263
C        4.93234348       9.96601436       3.67518324       0.01068198      -0.00766217      -0.00232575
Ag       2.53930860       5.53941578       6.68683226      -0.00262685      -0.00372030      -0.00092984
O        2.64709881       6.50137138       8.51348279      -0.01292190       0.00681736      -0.01173697
O        2.46729230       5.44798726       9.46988486       0.00429298       0.01800870      -0.00292759
H        3.08377337       5.75162963      10.16534931      -0.00305671      -0.00910250      -0.01685128
