52
Lattice="12.336457 0.0 0.0 -6.168228499999997 10.683685154694365 0.0 0.0 0.0 15.0" Properties=species:S:1:pos:R:3:forces:R:3 energy=-433.8636673770191 free_energy=-433.8636673770191 stress="-0.0067923239770712115 0.0006005591355422092 3.3819104168527844e-05 0.0006005591355422092 -0.0051767525585754235 -3.4533902477900854e-06 3.3819104168527844e-05 -3.4533902477900854e-06 3.2778467820903507e-05" pbc="T T T"
C        0.00322290      -0.01693777       3.84426521       0.00660209      -0.00300807      -0.00434505
C       -1.22036131       2.13973035       3.97331094       0.00199205       0.00970288      -0.00357789
C       -2.46144973       4.27698076       3.81686176       0.00560595      -0.00746174      -0.00743828
C       -3.69112435       6.41227096       3.68943992       0.00134855       0.00175077      -0.00956799
C       -4.93712265       8.53470554       3.63141642      -0.00236993       0.00204822      -0.00643863
C        2.47616308      -0.06386353       3.94078571       0.00400744       0.00457901       0.00219030
C        1.24733163       2.02727527       4.29399908      -0.00809844      -0.00104180      -0.00842108
C       -0.03146339       4.33951520       3.74886173       0.00077374       0.01068228      -0.00619458
C       -1.26135121       6.42577209       3.45105468      -0.00545371      -0.00491061      -0.00139507
C       -2.45127220       8.53722704       3.62168682       0.00144414       0.00217614      -0.00555512
C        4.95104609      -0.01921966       3.86712001      -0.00923794       0.00014327      -0.00413540
C        3.71166328       2.01262559       4.35368700       0.00391519      -0.00225668       0.00053399
S        1.10053356       6.39219802       2.25653216       0.00295159       0.00336772       0.00136475
C        0.00254169       8.57245075       3.36614476       0.00189031       0.00323893       0.00601853
C        7.41100523       0.01213494       3.72226744      -0.00235327       0.00148218      -0.00714430
C        6.18508633       2.13144022       4.04660415       0.00269693       0.00359258      -0.00017201
C        5.00326028       4.33173518       3.93450714      -0.00768924       0.00422483       0.00267203
S        3.76395214       6.30888432       2.50238018      -0.00324529       0.00477240       0.01051308
C        2.47040297       8.61337518       3.18802604       0.00455796      -0.01334807       0.01218993
C        9.87981718       0.01190378       3.71139755       0.00307623       0.00381015      -0.00130519
C        8.64894724       2.13846261       3.90505999       0.00328231       0.00469783      -0.00309230
C        7.42523348       4.27497987       3.87087018       0.00435295      -0.00290805       0.00073405
C        6.20990467       6.41959998       3.53326090       0.00183270      -0.00604057       0.00928271
C        4.94190404       8.56262372       3.40267724      -0.00299865      -0.00938159       0.00802057
C        0.00131295       1.39906384       4.04780646      -0.00586090       0.00035073      -0.00825484
C       -1.23108350       3.56790976       3.87956098       0.00856729       0.00636193      -0.00045215
C       -2.46989395       5.69882644       3.68506790      -0.00390976      -0.00915089      -0.00449112
C       -3.69389976       7.82877899       3.63794686      -0.00089967       0.00663281      -0.00170293
C       -4.93512407       9.94659211       3.79290957       0.00733370       0.00088879       0.01085260
C        2.47829286       1.31892689       4.22385528      -0.00011194       0.00286738       0.00690456
P        1.37710118       3.74487821       4.57408008      -0.01424432      -0.00109322       0.00041117
C       -0.09603706       5.67757903       3.26416867      -0.00378588       0.00427131      -0.01490704
C       -1.23031130       7.84503038       3.43351351       0.00216809      -0.00267548       0.00192689
C       -2.44956885       9.94702679       3.80025920      -0.00379244      -0.00200858       0.01225130
C        4.95886950       1.39141187       4.10499516       0.00534857      -0.00607485       0.01445911
P        3.58943539       3.71338018       4.73499094      -0.00194689      -0.00212813       0.00965365
C        1.21885838       7.95075632       3.01466270       0.00397471      -0.00201390       0.00797951
C        0.01057848       9.98119087       3.65775946      -0.00767292       0.00497734       0.00188995
C        7.41185819       1.42852511       3.90903133       0.00309448       0.00450156       0.00046866
C        6.20057266       3.56117050       3.99109944      -0.00269110       0.00617176       0.00321220
C        5.03948123       5.66365549       3.44053894      -0.00122702       0.00270514       0.00373333
C        3.71762720       7.93445980       3.08762622       0.00152648      -0.00918304      -0.00658119
C        2.47539031      10.00374438       3.55295181       0.00136291      -0.00650347       0.00411572
C        9.88528780       1.43141227       3.87858900       0.00315496       0.00844354      -0.00462647
C        8.65058004       3.56155885       3.89011417       0.00530487      -0.00157827      -0.00541382
C        7.42664626       5.69610442       3.72895665       0.00686222      -0.00404434      -0.00150527
C        6.17486223       7.83729891       3.47547727      -0.00395423      -0.00678894       0.00744695
C        4.94139553       9.97942270       3.65305966       0.00584518      -0.00288109      -0.01261738
Ag       2.39229809       4.40158392       6.64919634      -0.00871802      -0.00266815      -0.00239651
O        2.28027470       5.14905529       8.57043650      -0.00343257      -0.00076278      -0.00157076
O        2.38095535       3.99826939       9.40848098       0.00435245       0.00384787       0.00251966
H        2.95546879       4.36321163      10.11148642      -0.00553190      -0.00237703      -0.00804285
