51
Lattice="12.336457 0.0 0.0 -6.168228499999997 10.683685154694365 0.0 0.0 0.0 15.0" Properties=species:S:1:pos:R:3:initial_magmoms:R:1:forces:R:3 energy=-441.2635736196401 free_energy=-441.2635736196401 stress="-0.003021044206628535 0.0007241930573028074 -1.7025083474745823e-05 0.0007241930573028074 0.0030472478318170765 1.1535863466544238e-05 -1.7025083474745823e-05 1.1535863466544238e-05 8.810925444526485e-06" pbc="T T T"
C       -0.13547056      -0.02460260       3.77451666       0.00000000       0.01863039      -0.00041817      -0.00547616
C       -1.38097594       2.09375647       3.83238503       0.00000000      -0.00091781       0.00070054       0.00450888
C       -2.64973312       4.23874134       3.63506744       0.00000000      -0.00099348       0.00517034      -0.01981507
C       -3.86776621       6.38714594       3.48808910       0.00000000       0.01078079       0.00255090      -0.01444039
C       -5.07629480       8.53162484       3.58304009       0.00000000      -0.00907389      -0.00272787      -0.01387746
C        2.33745137       0.01110236       3.70782051       0.00000000       0.01355154      -0.01754282      -0.00027920
C        1.11406973       2.11714297       4.03101018       0.00000000       0.00957139      -0.00304742      -0.01059373
C       -0.26702138       4.25381622       4.09213630       0.00000000      -0.00879087       0.00911953       0.00306253
C       -1.43757515       6.39367854       3.78418809       0.00000000       0.00484352       0.01504343      -0.00777353
C       -2.61821156       8.53121664       3.64595974       0.00000000      -0.01456197      -0.00131205      -0.01061231
C        4.79513054      -0.02935726       3.67310472       0.00000000      -0.00759147       0.00750943       0.00462914
C        3.60532511       2.11259766       3.63032098       0.00000000      -0.00415463      -0.00226842      -0.00728528
B        0.99216429       6.37942338       4.34706894       0.00000000       0.00590418      -0.00726908       0.00534546
C       -0.14968090       8.51318058       3.84864755       0.00000000      -0.00520856       0.00551735      -0.01533200
C        7.27248884      -0.05511125       3.71012408       0.00000000      -0.01401801       0.00371816       0.00406666
C        6.03996151       2.09229235       3.53056392       0.00000000      -0.00193427       0.00108211      -0.00290404
C        4.82190585       4.21845816       3.44421453       0.00000000       0.00854162      -0.00076350      -0.00136652
N        3.68809294       6.36689610       3.96902356       0.00000000       0.00215882       0.00145267       0.02044173
C        2.34416498       8.47680819       3.92589936       0.00000000      -0.00254486      -0.00719243       0.00622746
C        9.73310555      -0.05249379       3.75619382       0.00000000      -0.00114633      -0.00608319      -0.00309370
C        8.49825179       2.09026999       3.60355847       0.00000000      -0.00514968       0.00069174       0.00705430
C        7.25058178       4.24427023       3.42509032       0.00000000       0.00349031       0.00446378      -0.00479683
C        6.01708074       6.37851822       3.43710179       0.00000000       0.00175110      -0.00673194       0.00464113
C        4.80363985       8.49697138       3.71687222       0.00000000       0.00496345       0.00174083       0.00473341
C       -0.12706922       1.40660457       3.89959815       0.00000000       0.00620989       0.00109188      -0.00538849
C       -1.42887848       3.51554693       3.84107128       0.00000000      -0.00463218       0.00467677      -0.00333285
C       -2.65715058       5.66905978       3.60427784       0.00000000       0.00636319       0.00751745       0.01996596
C       -3.85029366       7.81673319       3.55220494       0.00000000      -0.01265619       0.00006366       0.00199975
C       -5.06678797       9.96302471       3.69668421       0.00000000       0.01454173      -0.00921376      -0.00458073
C        2.35544697       1.45065480       3.80279349       0.00000000       0.00459013      -0.01741766      -0.01289503
B        1.02151531       3.56810031       4.42544023       0.00000000       0.00258635       0.00965478      -0.00809935
C       -0.28023605       5.65651400       4.05389373       0.00000000       0.00217319       0.00917272      -0.02658338
C       -1.39328792       7.81659145       3.75857097       0.00000000      -0.01095204       0.01309110       0.01086649
C       -2.61167355       9.96281850       3.67008999       0.00000000       0.00506993      -0.00822643      -0.01592602
C        4.80762876       1.39757363       3.60977677       0.00000000      -0.00345208       0.00081931      -0.01274011
O        3.66012641       3.46371979       3.38595129       0.00000000       0.00435636      -0.00250240       0.00387006
C        1.09283750       7.82513803       4.02844259       0.00000000      -0.00127125       0.00032289       0.01358132
C       -0.13992727       9.93443833       3.73233924       0.00000000      -0.01299369       0.00489983      -0.00545052
C        7.26559002       1.37607764       3.59910955       0.00000000      -0.00557966       0.00215739      -0.00353601
C        6.02304093       3.52142528       3.44460482       0.00000000       0.00799482       0.00330163       0.02378786
C        4.78525687       5.65501028       3.55509074       0.00000000       0.00231438      -0.00298956       0.02813411
C        3.59145181       7.72816689       3.87944836       0.00000000       0.00502852      -0.00284038       0.00754990
C        2.34126772       9.90455512       3.78505716       0.00000000      -0.01233396      -0.00214720       0.01685485
C        9.72928436       1.37559126       3.71817319       0.00000000      -0.00452814      -0.00343666       0.00538664
C        8.47591434       3.52063595       3.52559683       0.00000000      -0.00438699       0.00167114       0.01220857
C        7.24029590       5.66566191       3.40179904       0.00000000       0.00485455       0.00355495       0.00471812
C        6.02612255       7.80248346       3.56562692       0.00000000      -0.00458630      -0.00590837      -0.01132729
C        4.79927835       9.92542988       3.75520707       0.00000000       0.01192044       0.00151906       0.00329901
Au       2.31127261       5.03367169       5.08352462       0.00000000      -0.00044308      -0.00222890      -0.01967202
O        5.44895030       5.88920099       6.57167706       1.00000000       0.14268901      -0.00478873      -0.14852289
O        6.58466576       5.58349969       6.20390738       1.00000000      -0.15097817      -0.00521844       0.17876756
