51
Lattice="12.336457 0.0 0.0 -6.168228499999997 10.683685154694365 0.0 0.0 0.0 15.0" Properties=species:S:1:pos:R:3:initial_magmoms:R:1:forces:R:3 energy=-442.0397748708738 free_energy=-442.0397748708738 stress="-0.007488069300132235 5.022996491880326e-05 2.050004477394722e-06 5.022996491880326e-05 -0.0011386987141740502 -3.8787592050358954e-05 2.050004477394722e-06 -3.8787592050358954e-05 3.889066319555771e-06" pbc="T T T"
C        0.10789150       0.02992816       3.81262976       0.00000000       0.00014938       0.00012579       0.00277474
C       -1.13989363       2.13759785       3.92926472       0.00000000      -0.00687939      -0.00029681       0.00613337
C       -2.37595774       4.27918172       4.06574024       0.00000000       0.00127976       0.00360910       0.00312902
C       -3.59131566       6.42875399       3.99269480       0.00000000      -0.00148494       0.00094942      -0.00189759
C       -4.82648771       8.57697291       3.85875028       0.00000000       0.00256325       0.00070160      -0.00002384
C        2.57208993       0.04266203       3.74837597       0.00000000       0.00532142      -0.00242748      -0.00152755
C        1.32449365       2.20099612       3.59072093       0.00000000      -0.00057475       0.00278463       0.00158864
C        0.05039385       4.26646049       3.90687706       0.00000000       0.00850938      -0.00492609       0.00432300
C       -1.15703153       6.43224029       4.06949685       0.00000000      -0.00018826       0.00349583       0.00324074
C       -2.37407453       8.57768197       3.97291024       0.00000000      -0.00199467      -0.00008240       0.00593625
C        5.04143195       0.00588139       3.77632991       0.00000000       0.00047809      -0.00287058       0.00537568
C        3.83064763       2.05141617       3.18959921       0.00000000      -0.00066167      -0.00594280       0.00683172
C        1.21976390       6.40529468       3.66852091       0.00000000       0.00200352       0.00126898       0.00124057
C        0.09458413       8.54421852       3.90368482       0.00000000      -0.00462973       0.00416914      -0.00113007
C        7.50556846      -0.01061976       3.84031524       0.00000000      -0.00301302      -0.00148949       0.00051163
C        6.29677932       2.12457120       3.56617898       0.00000000      -0.00025058      -0.00149966      -0.00797512
C        5.26614905       4.29280767       2.98860787       0.00000000      -0.00309951       0.00124710       0.00014563
B        3.91869179       6.44200052       3.22651391       0.00000000       0.00175904      -0.00549674      -0.00195461
C        2.56637832       8.53572793       3.70227093       0.00000000       0.00194507      -0.00082507       0.00576537
C        9.96937342      -0.00374964       3.85896921       0.00000000      -0.00294086      -0.00143138      -0.00465228
C        8.73608376       2.13238408       3.91658078       0.00000000      -0.00179486      -0.00292282       0.01089679
C        7.53943688       4.28046730       3.78330313       0.00000000       0.00044258      -0.00082648      -0.00341660
C        6.33399891       6.43194822       3.59679609       0.00000000       0.00127605       0.00031228       0.01006230
C        5.05600444       8.57186502       3.68772266       0.00000000       0.00212790      -0.00132373      -0.00107855
C        0.10071166       1.45217923       3.79330547       0.00000000      -0.00580570       0.00204809      -0.00190272
C       -1.16242641       3.55374019       4.02304026       0.00000000       0.00127994      -0.00042656       0.00134684
C       -2.37525139       5.70962392       4.08221702       0.00000000      -0.00020458       0.00573208      -0.00441689
C       -3.59893882       7.86146747       3.96323497       0.00000000      -0.00041204      -0.00127455      -0.00394249
C       -4.82602956      10.00603075       3.82142259       0.00000000       0.00461774       0.00075632       0.00144912
C        2.57878026       1.46064679       3.50068717       0.00000000      -0.00261202      -0.00095567       0.00221631
C        1.19681776       3.58897968       3.54610512       0.00000000       0.01396540       0.00364096      -0.00725442
C        0.05344988       5.71334702       3.94150304       0.00000000      -0.00131443      -0.00341136      -0.01189830
C       -1.14311768       7.85387013       4.00422795       0.00000000      -0.00335549       0.00302252      -0.00312044
C       -2.36863124      10.00023408       3.84153745       0.00000000       0.00345402      -0.00312749       0.00130537
C        5.05911588       1.41432766       3.52070538       0.00000000       0.00018451      -0.00480656       0.00200788
S        3.98713264       3.44610066       2.15968204       0.00000000      -0.00710297      -0.00052338       0.00794389
C        1.32646044       7.80091801       3.75981201       0.00000000      -0.00306616       0.00352045      -0.00601098
C        0.10351873       9.96551348       3.85983401       0.00000000      -0.00254186       0.00102882      -0.01116543
C        7.50405571       1.41967196       3.80241832       0.00000000      -0.00125922      -0.00264734      -0.00610873
C        6.35080245       3.54820094       3.45453283       0.00000000      -0.00084160      -0.00062737      -0.00723153
C        5.19754851       5.68975845       3.20650468       0.00000000       0.00456911      -0.00010795       0.00540071
C        3.81439480       7.88204921       3.55327273       0.00000000       0.00272197      -0.00397287       0.00110851
C        2.56633211       9.95764818       3.82422763       0.00000000      -0.00210416       0.00036784      -0.00291954
C        9.96339919       1.41640797       3.93190947       0.00000000      -0.00454367      -0.00339884       0.00847537
C        8.74318848       3.56091310       3.96070465       0.00000000       0.00249526       0.00007687      -0.00271448
C        7.53885527       5.70981449       3.81576462       0.00000000      -0.00000514      -0.00004628       0.00021029
C        6.28929599       7.85890470       3.71985216       0.00000000       0.00305716       0.00145914      -0.00277920
C        5.04555187       9.98948536       3.81056297       0.00000000      -0.00120807       0.00008357      -0.00597765
Au       2.51535153       5.02863778       3.02390908       0.00000000       0.00189627      -0.00434090      -0.00118910
O       -0.87771489       5.08953137       6.71427184       1.00000000      -0.00864729       0.01670569      -0.00106569
O        0.09305889       4.34561452       6.61908199       1.00000000       0.00643983       0.00492243       0.00393405
