52
Lattice="12.336457 0.0 0.0 -6.168228499999997 10.683685154694365 0.0 0.0 0.0 15.0" Properties=species:S:1:pos:R:3:forces:R:3 energy=-445.91275868141395 free_energy=-445.91275868141395 stress="-0.002509072869250341 -0.004122632786751691 1.9006743335273154e-05 -0.004122632786751691 0.0024642023276695763 -1.781988677177777e-05 1.9006743335273154e-05 -1.781988677177777e-05 -1.5572265673091033e-05" pbc="T T T"
C        0.07832154       0.07078701       3.69757106       0.00163895      -0.00779738      -0.00026996
C       -1.18535665       2.17997651       3.56746547       0.00022960      -0.00732536       0.00595756
C       -2.39931873       4.33525579       3.53541848       0.00222445      -0.00564939       0.00214349
C       -3.59786090       6.49044252       3.60311919       0.00725125       0.00620572      -0.00201992
C       -4.82749826       8.63947285       3.68656907      -0.00320102       0.00178015      -0.01095431
C        2.54329880       0.11067368       3.74198143       0.00348395      -0.00389561       0.00248454
C        1.25753615       2.20779078       3.63639394      -0.00547772      -0.00816629       0.00870487
C        0.03264689       4.26952794       3.49758934      -0.00181899      -0.00124319      -0.00633622
C       -1.13306264       6.45371992       3.64108215       0.00550816       0.00046840       0.00599453
C       -2.36502439       8.62446186       3.70303513      -0.00082057       0.00248620      -0.00239905
C        5.00932929       0.08431247       3.84870377      -0.00479977       0.00030128       0.00665764
C        3.73920320       2.23543440       4.00900538      -0.00267817       0.00649374       0.00612655
B        1.23552867       6.41501517       4.20892515       0.00064730       0.00943434      -0.00359732
C        0.09229894       8.60355666       3.88608239      -0.00373054      -0.00011918      -0.00102529
C        7.47700310       0.06156006       3.87579965      -0.00140880       0.00430559       0.00149149
C        6.22776461       2.22013460       3.89189034      -0.00248357       0.00492269      -0.00625274
C        5.08438895       4.40821790       4.05743458      -0.00533291       0.00234423      -0.01259311
N        3.94597370       6.53064135       4.26169105      -0.00086474      -0.00617824       0.00117805
C        2.56225729       8.58776955       4.03653672       0.00634045      -0.00387213       0.00619390
C        9.93843587       0.05084079       3.79231852       0.00156831       0.00245114      -0.00353530
C        8.69484249       2.19753813       3.70858597       0.00516432      -0.00304368      -0.01295015
C        7.49421824       4.35527100       3.71174242       0.00310255       0.00011518      -0.00481860
C        6.29971252       6.52047883       3.77430467      -0.00539296       0.00094644      -0.01050619
C        5.03768163       8.61537655       3.85183255      -0.00108367       0.00268368       0.00477952
C        0.05677265       1.49032938       3.62288844      -0.00318476      -0.01088081      -0.00059677
C       -1.18189248       3.59515996       3.48132102      -0.00013742      -0.00682162       0.00300376
C       -2.37921643       5.75969445       3.55434937       0.00757509      -0.00208978       0.01061022
C       -3.59558596       7.91853960       3.64781744       0.00038961       0.00706434      -0.00333083
C       -4.84433603      10.06688432       3.69963043       0.00395125      -0.00315559       0.00295742
C        2.51065182       1.54834341       3.80537365       0.00079151      -0.00432595      -0.00049568
O        1.20971832       3.55699791       3.44021826      -0.00433345      -0.00868334      -0.00541955
C        0.05589728       5.67646029       3.68556673       0.00775339       0.00145574      -0.00728297
C       -1.12923572       7.88813270       3.74567254      -0.00351867       0.00048000       0.01165607
C       -2.38639535      10.06075292       3.76921316      -0.00001463      -0.00200203       0.00087751
C        4.98448975       1.52478759       3.92951831      -0.00394170       0.00303916       0.01419981
B        3.84129264       3.69651594       4.35752054      -0.00770645       0.01211125       0.00336932
C        1.32831151       7.89990389       4.04293714       0.00091945       0.00337525       0.00904216
C        0.07603277      10.04280789       3.87372367      -0.00483304       0.00009538       0.00317228
C        7.46329574       1.49187421       3.82240604       0.00149975       0.00579424      -0.00485268
C        6.25786567       3.65165177       3.87682226      -0.00246788       0.00537246      -0.00759493
C        5.08789808       5.83633659       4.01398788      -0.00098014      -0.00218452       0.00472655
C        3.82750918       7.87049350       4.05886128       0.00539244      -0.00623367       0.00482700
C        2.54786260      10.01789787       3.90327731       0.00264927       0.00060408       0.00837755
C        9.92880057       1.47656041       3.67776409       0.00279202      -0.00032679       0.00246243
C        8.70582301       3.62651375       3.63549171       0.00244613      -0.00627894      -0.01058008
C        7.51029932       5.78109014       3.67253239       0.00237226       0.00350118      -0.00766160
C        6.27952936       7.93161973       3.75660115      -0.00547545       0.00111149      -0.00215599
C        5.01326522      10.03313510       3.77462960      -0.00109048       0.00176431      -0.00818640
Au       2.56901386       5.15842834       5.19934581       0.00529125       0.01024374      -0.00270935
O        1.24753678       3.84348589       6.07648952       0.01055816      -0.00247097       0.00162080
O        1.22534444       4.16774348       7.48944188      -0.00016629       0.00521794       0.00413756
H        1.58269521       3.34465661       7.88201155      -0.01459705      -0.00342486       0.00137242
