52
Lattice="12.336457 0.0 0.0 -6.168228499999997 10.683685154694365 0.0 0.0 0.0 15.0" Properties=species:S:1:pos:R:3:forces:R:3 energy=-449.21333191273897 free_energy=-449.21333191273897 stress="-0.0002242860938927718 -0.00018658225888879698 3.659091069286683e-05 -0.00018658225888879698 0.0004962774350437641 2.8289348096046907e-05 3.659091069286683e-05 2.8289348096046907e-05 3.040797081470819e-05" pbc="T T T"
C       -0.02777280       0.03146970       3.66947785       0.00203874       0.01164275       0.02207487
C       -1.27198119       2.16434059       3.87310071      -0.02228330       0.01653577      -0.00562345
C       -2.52453916       4.31341261       3.78434520       0.00456731      -0.01138229      -0.01677022
C       -3.74273127       6.45070988       3.63377821       0.00385663       0.00747000      -0.01532614
C       -4.96071934       8.58802132       3.58261468      -0.00210530      -0.01043364       0.00831817
C        2.44184207       0.06555474       3.71334859       0.02743825      -0.02086310      -0.00143163
C        1.20097057       2.13127527       4.07344735      -0.01862641       0.00394818      -0.00485541
C       -0.12602046       4.30790608       4.26760923       0.03294132      -0.00912640      -0.02394978
C       -1.28614328       6.44404827       3.92290484       0.00808617      -0.00249899       0.00997681
C       -2.49814519       8.58667783       3.71720306       0.01575746      -0.00046843      -0.01872180
C        4.89703104       0.04297428       3.75386669      -0.00455742      -0.01070414      -0.00011807
C        3.70099017       2.19145083       3.79752504       0.00100999       0.00218495       0.00465278
B        1.18209035       6.47315981       4.46439812      -0.00804651      -0.00864900      -0.01795366
C       -0.03453660       8.58761992       3.90509691       0.00046750       0.01158995       0.01467096
C        7.36995275       0.03456138       3.74923964      -0.00315614      -0.00092342       0.02150638
C        6.13296122       2.17279730       3.67536329       0.01054022      -0.00566319       0.00178465
C        4.90866472       4.27732800       3.64957724      -0.02163616       0.00989553       0.02348986
C        3.76478255       6.46786741       4.12034984       0.00170212      -0.01404051      -0.02752929
C        2.44181186       8.58456951       3.93642122       0.01340604      -0.01196040       0.00403968
C        9.83949597       0.03144086       3.70405794      -0.01483025       0.02401992       0.01533831
C        8.60098540       2.17185967       3.69754955       0.01148934       0.01020033      -0.01172627
C        7.35784925       4.31457412       3.60777673      -0.01371604      -0.00223508      -0.00124141
C        6.11814263       6.43688617       3.57398450      -0.00659334      -0.00046981      -0.02248976
C        4.90855384       8.57535482       3.65774553      -0.00010259       0.01692663       0.00607977
C       -0.01657443       1.45356177       3.86121237      -0.04003575       0.00120381       0.01179258
C       -1.29789070       3.59640560       3.97327604       0.00979072       0.00064516       0.01253106
C       -2.52059667       5.73693399       3.76422992       0.00414097      -0.00472127      -0.00955173
C       -3.73252804       7.87565970       3.62739622       0.01411239       0.00420866       0.00948033
C       -4.95820070      10.01740682       3.64034538       0.01535268      -0.00960836      -0.00306685
C        2.44220936       1.50238582       3.86055496      -0.01119191      -0.01503320      -0.01569585
B        1.04594968       3.45860999       4.82874558      -0.02527581       0.02347137       0.01178068
C       -0.10505084       5.69849498       4.20925433       0.02062211      -0.01895588      -0.00865270
C       -1.26995987       7.87082866       3.85120754       0.00941932       0.00208721       0.01141594
C       -2.50206470      10.02146652       3.71960500       0.02136407      -0.01680617      -0.01389424
C        4.89896028       1.47535551       3.74435295      -0.00600782      -0.00397159      -0.02780158
O        3.74060689       3.55503662       3.69010827       0.00930710       0.00728449      -0.02225507
C        1.20730489       7.91465748       4.07950365       0.00426551       0.00611107       0.01696186
C       -0.03586471      10.01234342       3.78787899      -0.01150743      -0.00073872       0.00125073
C        7.36237528       1.46335241       3.69076365       0.02550782       0.00458425      -0.01262111
C        6.12081554       3.59492289       3.61354588      -0.02256621      -0.00057630       0.03266211
C        4.87308621       5.71318718       3.70728775       0.00325236       0.00139006      -0.00127784
C        3.68087692       7.84725394       3.88294188       0.01370353      -0.00721890       0.01466484
C        2.43948537      10.00587219       3.77318840      -0.00605146      -0.00146225      -0.00946528
C        9.83979401       1.45875211       3.73705056      -0.00919206       0.01603239      -0.01589771
C        8.59050787       3.59844161       3.67839852      -0.00490140       0.00054835      -0.00226159
C        7.35598069       5.73382374       3.57340326      -0.00598509       0.00158870       0.00867172
C        6.13566127       7.86596469       3.58069496      -0.01088264       0.00014266       0.00896267
C        4.90522358      10.00241772       3.64898455      -0.00569662       0.02423801       0.03341310
Au       2.64404080       5.51120209       5.51671867       0.01343602      -0.02706582       0.00288421
O        1.65270843       3.71514395       5.98871782       0.01481653      -0.00459689       0.01811072
O        4.29649695       4.83666822       6.51480737      -0.01189400       0.05086100       0.03534521
H        3.89865844       4.35104170       7.25841336      -0.02555056      -0.03863745      -0.05168155
