51
Lattice="12.336457 0.0 0.0 -6.168228499999997 10.683685154694365 0.0 0.0 0.0 15.0" Properties=species:S:1:pos:R:3:initial_magmoms:R:1:forces:R:3 energy=-435.5616706447228 free_energy=-435.5616706447228 stress="0.0010461978569325724 0.0006620152667521141 2.21756290732503e-05 0.0006620152667521141 -0.006135518536759824 1.5583590265543782e-05 2.21756290732503e-05 1.5583590265543782e-05 2.345762322279586e-05" pbc="T T T"
C       -0.00087241       0.09254801       3.94292413       0.00000000      -0.00747243      -0.00252702       0.00201002
C       -1.21846440       2.25449296       3.84121147       0.00000000      -0.00020829      -0.00086720      -0.00392202
C       -2.45859411       4.38654268       3.64625690       0.00000000       0.00220997      -0.00071109       0.00376428
C       -3.69987895       6.51079929       3.67030141       0.00000000       0.00900280      -0.00059348      -0.00833260
C       -4.94904970       8.62718109       3.85821586       0.00000000      -0.00805930       0.00014588       0.01049431
C        2.46837771       0.06888923       3.82887373       0.00000000       0.00499332       0.00038486       0.01902529
C        1.26487064       2.19790809       3.99066871       0.00000000       0.00515386      -0.01150648      -0.01147228
C       -0.01138010       4.39685187       3.90776613       0.00000000       0.00327555      -0.00558692      -0.00695766
C       -1.21125147       6.52057625       3.74539830       0.00000000       0.00434794      -0.00676466      -0.03497304
C       -2.46694048       8.63880976       3.78101784       0.00000000       0.00004350      -0.01845938      -0.01541668
C        4.93274566       0.10447864       3.65537928       0.00000000      -0.02256223       0.00704457       0.02732466
C        3.66368783       2.15174848       3.37327580       0.00000000       0.00962179       0.01273048      -0.00698874
B        1.38486990       6.51565780       3.85733588       0.00000000       0.00621662      -0.01349295       0.03019603
C       -0.00373309       8.67641015       3.82194248       0.00000000       0.00003061       0.00555677      -0.00098095
C        7.39336958       0.14868266       3.72941880       0.00000000      -0.01760224       0.01018707       0.01303020
C        6.16127902       2.24328165       3.35223421       0.00000000       0.00374573       0.00256150      -0.00009517
C        4.99773795       4.40118538       3.04906992       0.00000000       0.00640012      -0.00341134      -0.00660790
P        3.34142466       6.28842723       4.00749473       0.00000000       0.00818014      -0.00544508       0.02165463
C        2.44962910       8.74869295       4.02455933       0.00000000       0.00166842       0.00810058      -0.02250856
C        9.87774258       0.14281068       3.89686528       0.00000000      -0.00868594       0.00011947       0.00394177
C        8.64479084       2.25889221       3.59526020       0.00000000       0.00433055       0.00586823       0.01475978
C        7.41426383       4.38354592       3.41906991       0.00000000       0.00603359       0.01230122      -0.00924262
C        6.15107548       6.50737575       3.62562350       0.00000000       0.00389466       0.00555489      -0.02844576
C        4.92472044       8.65086351       4.00997578       0.00000000      -0.00770685       0.00093880      -0.02784507
C        0.01440379       1.53020528       3.94156449       0.00000000      -0.00340045      -0.00499528      -0.00681167
C       -1.22355251       3.67361215       3.78405497       0.00000000       0.00017408      -0.00159829       0.00349060
C       -2.45659992       5.80851858       3.67139742       0.00000000       0.00547131      -0.00531737       0.00017787
C       -3.70598262       7.92790539       3.77474939       0.00000000      -0.00480021      -0.00529466      -0.00049361
C       -4.94130864      10.04964493       3.90792795       0.00000000      -0.00203588       0.00267435       0.00660588
C        2.47434131       1.49198847       3.78620384       0.00000000       0.01863654       0.00422518       0.01804696
B        1.25772465       3.66311852       4.29372389       0.00000000       0.01810300      -0.00148525      -0.01124964
C        0.03040812       5.79642091       3.80731794       0.00000000      -0.00011428      -0.00672154      -0.00215252
C       -1.22890377       7.94177612       3.77779331       0.00000000       0.00640262      -0.00825187      -0.02573380
C       -2.46437224      10.06046638       3.76004185       0.00000000      -0.00921816      -0.01678529      -0.00964701
C        4.92828514       1.52144839       3.44230429       0.00000000      -0.00079247       0.00618641       0.00664883
S        3.50313480       3.65439604       2.54535836       0.00000000       0.00789109       0.00267149      -0.01871643
C        1.24190368       8.01943010       3.91669040       0.00000000       0.00368016       0.00286457       0.00206754
C       -0.00213832      10.10259048       3.74054860       0.00000000      -0.02069352       0.01003648      -0.00512801
C        7.39490027       1.55641108       3.54382953       0.00000000       0.00116865       0.00943435       0.02559254
C        6.18552639       3.65832523       3.22356412       0.00000000       0.00591221       0.00381837       0.01758910
C        4.93508554       5.76180940       3.40422003       0.00000000       0.00232840      -0.01236236       0.02513372
C        3.66283659       8.01455645       4.11500065       0.00000000      -0.00025955       0.00367369       0.00792120
C        2.46227516      10.15358441       3.90561233       0.00000000      -0.01324686       0.00886441      -0.00401634
C        9.87993821       1.55567357       3.76886041       0.00000000      -0.00086097       0.00068813       0.02431947
C        8.64891667       3.67579205       3.53304445       0.00000000      -0.00082073       0.00682951       0.02653102
C        7.39841730       5.80249844       3.55744770       0.00000000       0.00803480       0.00984090      -0.01001409
C        6.14791298       7.91851269       3.86121131       0.00000000      -0.00935515      -0.00031273      -0.01421545
C        4.93255030      10.08613940       3.97446371       0.00000000      -0.00908635      -0.00239289      -0.01646326
Au       2.61874842       4.68719864       5.56577413       0.00000000      -0.00692353      -0.01395309       0.02477918
O        2.01416596       1.91178995       6.72145301       1.00000000       0.03114422       0.00643981      -0.01225610
O        2.98089808       2.70397598       6.73949565       1.00000000      -0.03419082      -0.00090572      -0.01441790
