52
Lattice="12.336457 0.0 0.0 -6.168228499999997 10.683685154694365 0.0 0.0 0.0 15.0" Properties=species:S:1:pos:R:3:forces:R:3 energy=-443.01760493386746 free_energy=-443.01760493386746 stress="-0.006509682147498828 0.0015264302473595361 -2.2170654504362138e-05 0.0015264302473595361 -0.0025059537890464584 6.34369629057272e-06 -2.2170654504362138e-05 6.34369629057272e-06 5.674157367378746e-06" pbc="T T T"
C        0.01009127      -0.10200656       3.96401071      -0.00086628       0.00027104       0.00297081
C       -1.22067524       2.03541304       4.07949482       0.00771722      -0.00441667      -0.00643620
C       -2.46646686       4.18203856       4.17613442       0.00169836      -0.00203462       0.00632965
C       -3.69240153       6.32368602       4.08061076       0.00201875      -0.00222101       0.00315627
C       -4.92979787       8.45127308       3.91331876      -0.00511427       0.00103638       0.00461329
C        2.48219055      -0.10022937       3.93536043      -0.00012342      -0.00026702      -0.00002292
C        1.25311072       2.00904197       3.86641689       0.00168303       0.00318094       0.00118640
C       -0.05300425       4.23013308       4.01868520      -0.00780115       0.00412088       0.00247605
C       -1.26184060       6.35170701       4.14632901       0.00794013      -0.00411760      -0.00762815
C       -2.46303405       8.46329741       4.06655160       0.00224019       0.00499723      -0.00292924
C        4.95690950      -0.10239418       3.91615686       0.00403081       0.00753735       0.00253072
C        3.72751191       2.00427709       3.64579415      -0.00562090       0.00540663      -0.00013069
N        1.08147290       6.34160476       3.64268190       0.00412666       0.01176591      -0.00317962
C        0.00991649       8.43951466       3.91401024      -0.00546772       0.00096298      -0.00051009
C        7.42362750      -0.11777862       3.91190114       0.00376479      -0.00644103       0.00460137
C        6.20420789       2.02748814       3.79853013      -0.00293096      -0.00094938      -0.00093929
C        5.10824250       4.19274051       3.26369460      -0.00231120      -0.00029948       0.00205286
S        3.93715512       6.46056378       2.17698405      -0.00861986      -0.00282618       0.00701766
C        2.48105423       8.41404294       3.57848224       0.00337879      -0.00202156       0.00227487
C        9.87871619      -0.11653149       3.93036186       0.00466758      -0.00154541      -0.00599468
C        8.65549094       2.02631311       4.03803211       0.00115764       0.00631532       0.00642180
C        7.44894633       4.17373465       3.89382619      -0.00763944      -0.00226893       0.00085671
C        6.26094239       6.33030080       3.53218117      -0.00253071      -0.00773720      -0.00101529
C        4.95707376       8.45898533       3.60819353       0.00151791      -0.00753579      -0.00563018
C        0.01289001       1.32497610       3.99449479       0.00705508      -0.00101479      -0.00139734
C       -1.23483601       3.47083671       4.13315601      -0.00160531      -0.00593459      -0.01081226
C       -2.47222119       5.60995414       4.18336211       0.00642396      -0.00276811       0.00733271
C       -3.69491388       7.74613292       4.04023200      -0.00153672       0.00377641       0.00358040
C       -4.92399432       9.87718898       3.95229296      -0.00421366       0.00286331      -0.00010500
C        2.48804984       1.31737803       3.80864973      -0.00136183       0.00082702       0.00345505
B        1.19889300       3.49048856       3.76772181      -0.01510193       0.00568743       0.00347489
C       -0.05091284       5.66208689       3.97634561       0.01025674       0.00509656       0.00020910
C       -1.23299207       7.75828614       4.06749432      -0.00186335      -0.00454220      -0.00483372
C       -2.45194327       9.88056044       3.97703520       0.00545514       0.00620933      -0.00874346
C        4.96648801       1.31703534       3.77675914      -0.00515417       0.00654086       0.00570990
B        3.81373537       3.45426727       3.30706746       0.00477786       0.00358473      -0.00525419
C        1.21137428       7.69814352       3.68220124      -0.00144935       0.01080185      -0.00495671
C        0.01945765       9.86372845       3.92070498       0.00002304       0.00002825      -0.00161063
C        7.42637490       1.31130688       3.93951068       0.00174661      -0.00134678      -0.00873283
C        6.24442567       3.45273607       3.66608162      -0.00481662      -0.00367828      -0.00377200
C        5.19345774       5.58706778       3.02637326      -0.00998146      -0.00061175       0.00962995
C        3.73531085       7.83212177       3.24910175      -0.00080771      -0.00856403       0.00522484
C        2.48052101       9.83753013       3.83048104       0.00583551      -0.00467544       0.00353681
C        9.88500741       1.31256463       4.05324397       0.00501216       0.00056475      -0.00255031
C        8.65701594       3.45667269       4.07414976      -0.00418125       0.00711469       0.01245832
C        7.44590787       5.60067725       3.87547321       0.00058447      -0.00472438      -0.00629677
C        6.19885689       7.75139216       3.66216334      -0.00060339      -0.00794186      -0.00051727
C        4.94699529       9.86876453       3.87582379       0.00285581      -0.00543337      -0.00889669
Au       2.44447801       4.91532171       3.08111579      -0.00187571       0.00062218       0.00248010
O        2.91842675       6.62914617       5.74435063       0.01779406       0.00711767      -0.00485360
O        1.81417367       6.58936475       6.53577488      -0.01404027      -0.00274540      -0.00553720
H        2.12392681       6.14682276       7.35690330       0.00385633      -0.00776684       0.00970577
