51
Lattice="12.336457 0.0 0.0 -6.168228499999997 10.683685154694365 0.0 0.0 0.0 15.0" Properties=species:S:1:pos:R:3:initial_magmoms:R:1:forces:R:3 energy=-441.92709097092353 free_energy=-441.92709097092353 stress="-0.004584349714157375 0.0016291970835341574 -1.2671800382146232e-06 0.0016291970835341574 0.0006416499741603048 -1.5996119462749487e-05 -1.2671800382146232e-06 -1.5996119462749487e-05 0.00012719562657816796" pbc="T T T"
C       -0.12328474      -0.00387238       3.75846025       0.00000000      -0.00480439      -0.01270214       0.00302680
C       -1.36188195       2.11905911       3.78375129       0.00000000      -0.00744951       0.00393542       0.00388740
C       -2.63324370       4.26298932       3.60450986       0.00000000       0.00969813       0.00929201      -0.00632755
C       -3.85922233       6.40976583       3.51804670       0.00000000       0.00448958      -0.01282548      -0.00999931
C       -5.06819849       8.55064533       3.61424434       0.00000000       0.00373035      -0.00388732      -0.00944001
C        2.34876628       0.02694838       3.65678288       0.00000000       0.00439394      -0.00061441       0.00356526
C        1.13358774       2.14094171       3.95239353       0.00000000       0.00236853      -0.01470398      -0.00428399
C       -0.24236842       4.28176317       3.99202824       0.00000000       0.00638027       0.00559910      -0.01686453
C       -1.42212050       6.41947021       3.71867705       0.00000000       0.00428347       0.00995088      -0.00079265
C       -2.61042237       8.55373591       3.60266797       0.00000000      -0.00397914       0.00007102       0.00191113
C        4.80700632      -0.00895218       3.60887191       0.00000000      -0.00430115       0.00414836      -0.00894674
C        3.62233090       2.12307676       3.57901061       0.00000000       0.00913083       0.00766361      -0.00438749
B        1.02654656       6.40651795       4.23389874       0.00000000      -0.00357039       0.00038817      -0.00064683
C       -0.14429879       8.54448230       3.78874455       0.00000000      -0.00237441      -0.00220106       0.00196076
C        7.28526180      -0.02747357       3.68371194       0.00000000      -0.00497167       0.00757627       0.00497738
C        6.05950851       2.10866511       3.48820423       0.00000000      -0.01071460       0.00690170       0.00931996
C        4.84428341       4.22419417       3.47613337       0.00000000      -0.00252316      -0.00960423      -0.00263927
C        3.65366809       6.35353810       4.07740571       0.00000000      -0.00049620       0.00164856       0.00043296
C        2.34585782       8.51697264       3.95263511       0.00000000       0.01050672       0.00532071      -0.00188312
C        9.74676614      -0.02457896       3.76617424       0.00000000       0.00368867      -0.00453530      -0.02428066
C        8.51545856       2.11387162       3.58431476       0.00000000       0.00426038      -0.00911847       0.00457440
C        7.26650339       4.26370866       3.46137879       0.00000000       0.00531311      -0.01113714      -0.00320416
C        6.02477536       6.38882313       3.57064746       0.00000000      -0.01885054       0.00314440      -0.00385686
C        4.80994959       8.51735577       3.79605922       0.00000000      -0.00809215       0.00980054      -0.01736669
C       -0.11006675       1.43044635       3.84689197       0.00000000      -0.00884298      -0.01021480       0.00007429
C       -1.40858661       3.54070987       3.77463986       0.00000000      -0.00054937       0.00850394       0.00796156
C       -2.64430257       5.69273541       3.58330374       0.00000000       0.01433834       0.00600236      -0.00100138
C       -3.84485280       7.83850846       3.56216404       0.00000000       0.00413016      -0.01218139      -0.01124006
C       -5.05714031       9.98061977       3.67918952       0.00000000       0.00377898      -0.00518244       0.01839422
C        2.37105880       1.46381547       3.73980707       0.00000000       0.01263720      -0.00052243      -0.00924988
B        1.04625747       3.59745733       4.31181077       0.00000000       0.01624100       0.00417887       0.00078839
C       -0.25468898       5.68474574       3.94951762       0.00000000      -0.00382386       0.00545710       0.01147291
C       -1.38527220       7.84315411       3.69790269       0.00000000      -0.00570796       0.00247990       0.00018875
C       -2.60075692       9.98275145       3.60857816       0.00000000      -0.00122431       0.00170301       0.02151728
C        4.82456345       1.41302629       3.54931342       0.00000000      -0.00274017       0.00472191      -0.01240668
O        3.68202273       3.47717993       3.37477893       0.00000000       0.00130004       0.00192537       0.00325289
C        1.09296652       7.86419431       3.98844829       0.00000000       0.00619614       0.00237202       0.00696396
C       -0.12886483       9.96085996       3.68060270       0.00000000      -0.00624560       0.00092576       0.00031040
C        7.28374966       1.39870449       3.56681413       0.00000000      -0.00932355       0.00838034       0.00791470
C        6.04698870       3.53402411       3.44116297       0.00000000      -0.00275750      -0.00246612       0.00479558
C        4.79239860       5.64826020       3.67529911       0.00000000      -0.01137011      -0.01526068       0.01349669
C        3.57796473       7.76026085       3.95968688       0.00000000       0.00755203      -0.00072393      -0.00225007
C        2.34992308       9.94142704       3.79762082       0.00000000       0.00374586       0.00737538      -0.00700552
C        9.74614118       1.40117661       3.69683399       0.00000000       0.00147698      -0.00761422       0.01651672
C        8.49227725       3.54372730       3.52222907       0.00000000       0.01479324      -0.00783986       0.00436734
C        7.24982237       5.68503866       3.48593478       0.00000000      -0.01163928      -0.00514227      -0.00775231
C        6.03378037       7.81753211       3.65340899       0.00000000      -0.00989004       0.01111054      -0.00080392
C        4.81211666       9.94868740       3.77923467       0.00000000      -0.00337104       0.00054570       0.01330904
Au       2.33904757       5.07439419       4.97993711       0.00000000      -0.01085277       0.00687292       0.08420429
O        5.44511516       5.54790126       7.18902633       1.00000000      -0.01616058       0.01261531      -0.16096602
O        6.02236215       4.90990142       6.30685095       1.00000000       0.02219244      -0.01213351       0.07841062
