51
Lattice="12.336457 0.0 0.0 -6.168228499999997 10.683685154694365 0.0 0.0 0.0 15.0" Properties=species:S:1:pos:R:3:initial_magmoms:R:1:forces:R:3 energy=-445.2799752002102 free_energy=-445.2799752002102 stress="-0.010634068115762571 3.3306396370074284e-05 1.7690912585503112e-05 3.3306396370074284e-05 -0.0030996641477518253 7.688943295625913e-07 1.7690912585503112e-05 7.688943295625913e-07 -8.007038166807723e-06" pbc="T T T"
C       -0.06874933       0.16780955       3.67657205       0.00000000       0.00143121      -0.00232652       0.01014114
C       -1.31860958       2.27123557       3.55624880       0.00000000       0.00360328      -0.00175629      -0.00131142
C       -2.55687054       4.42587622       3.43723983       0.00000000       0.00524240       0.00070143       0.00236196
C       -3.76776678       6.58102282       3.49429809       0.00000000      -0.00006938      -0.00330705       0.00634530
C       -4.99583070       8.72668785       3.64478732       0.00000000       0.00248501      -0.00198350      -0.00209180
C        2.40208314       0.20205183       3.73800638       0.00000000       0.00109471      -0.00031493       0.00309430
C        1.14829539       2.33108640       3.85874226       0.00000000       0.00402841       0.00148191       0.00094949
C       -0.15882725       4.39794474       3.78637758       0.00000000       0.00120958      -0.00193154      -0.00617516
C       -1.33810742       6.57540224       3.65763477       0.00000000      -0.00177116       0.00045697       0.00287305
C       -2.53920891       8.72874295       3.64083215       0.00000000      -0.00158840       0.00314609      -0.00424947
C        4.86849143       0.16815082       3.69140093       0.00000000       0.00458915       0.00143301       0.00196488
C        3.65798082       2.32528083       3.89139088       0.00000000      -0.00025887       0.00160196       0.00306086
B        1.09971707       6.52942002       4.13645803       0.00000000      -0.01126292       0.00311734       0.01515973
C       -0.07429172       8.70617205       3.79180053       0.00000000      -0.00376623      -0.00141695      -0.00299408
C        7.33686481       0.14224545       3.64114548       0.00000000       0.00289168       0.00120343      -0.00273553
C        6.11639278       2.26890396       3.57269413       0.00000000      -0.00074221       0.00232578      -0.00008025
C        4.96209223       4.39580993       3.82953140       0.00000000       0.00008154       0.00156105      -0.00144476
B        3.70407036       6.53305037       4.16226720       0.00000000      -0.00059220      -0.00484776       0.00400758
C        2.40057403       8.70635979       3.90555568       0.00000000      -0.00373799       0.00055905       0.00074787
C        9.79903530       0.14222786       3.63632404       0.00000000       0.00241210       0.00302661       0.00344656
C        8.56744695       2.27247115       3.45474976       0.00000000       0.00040766       0.00170408      -0.00320956
C        7.35676237       4.42534985       3.46367151       0.00000000       0.00275035      -0.00123537      -0.01360526
C        6.14057174       6.57374382       3.68763414       0.00000000       0.00180096       0.00241563       0.00232191
C        4.87624174       8.70639237       3.79940841       0.00000000      -0.00579743      -0.00400254      -0.00233845
C       -0.08398032       1.58605101       3.68463425       0.00000000       0.00387354      -0.00093267       0.01167940
C       -1.35165811       3.68903455       3.53784998       0.00000000       0.00313481      -0.00226110       0.00108929
C       -2.55563451       5.85713079       3.49008447       0.00000000       0.00159946      -0.00036559      -0.00189159
C       -3.76721321       8.01105389       3.58291502       0.00000000       0.00143668      -0.00256215       0.00632411
C       -4.99460805      10.15589173       3.68837938       0.00000000       0.00176774      -0.00267329       0.00209500
C        2.40221972       1.62067653       3.85292282       0.00000000       0.00190621      -0.00080977       0.00591095
C        1.01999042       3.70401008       4.04222430       0.00000000       0.00096104       0.00015370      -0.00019369
C       -0.17117832       5.82069698       3.83790344       0.00000000      -0.00355388      -0.00152893       0.00047927
C       -1.31388071       8.00506105       3.70170591       0.00000000      -0.00394962       0.00120579      -0.00569778
C       -2.53766264      10.15612902       3.70020745       0.00000000       0.00265808       0.00352923       0.00093633
C        4.88595821       1.58283212       3.70203338       0.00000000      -0.00052877       0.00203758      -0.00377223
C        3.78165283       3.69323580       4.06568646       0.00000000      -0.00299318       0.00326050      -0.00051072
C        1.16111209       8.01396219       3.95845352       0.00000000      -0.00462889      -0.00057068      -0.00440089
C       -0.07112412      10.12955642       3.69703026       0.00000000       0.00319852      -0.00117800       0.00147098
C        7.34500390       1.55717871       3.52521382       0.00000000      -0.00074787       0.00160681      -0.00707110
C        6.15370630       3.68866312       3.57624140       0.00000000       0.00055827       0.00208724      -0.00433079
C        4.97622713       5.81849295       3.88290825       0.00000000      -0.00032295       0.00270523      -0.01387204
C        3.64055008       8.01465838       3.96748529       0.00000000      -0.00687874      -0.00546314      -0.00064278
C        2.39952067      10.12045392       3.71935767       0.00000000       0.00306126       0.00150670      -0.00789013
C        9.79110266       1.55682421       3.51615387       0.00000000       0.00087835       0.00218450      -0.00249312
C        8.56774591       3.70265078       3.40509506       0.00000000       0.00514679       0.00122984      -0.00561600
C        7.35639639       5.85662147       3.51164050       0.00000000       0.00003097      -0.00201906      -0.00198602
C        6.11571049       8.00491147       3.71399960       0.00000000       0.00009250       0.00152022       0.00420684
C        4.86970201      10.12811484       3.69256654       0.00000000      -0.00072000      -0.00175412       0.01317361
Au       2.39877811       5.03135277       4.62609142       0.00000000      -0.00548628      -0.00357522      -0.00756852
O        3.45891826       0.90377690       6.54835487       1.00000000      -0.00807457      -0.01079809      -0.00303805
O        4.66427533       1.13548056       6.53153308       1.00000000       0.00313931       0.01185257       0.00737079
