52
Lattice="12.336457 0.0 0.0 -6.168228499999997 10.683685154694365 0.0 0.0 0.0 15.0" Properties=species:S:1:pos:R:3:forces:R:3 energy=-443.340630335122 free_energy=-443.340630335122 stress="-0.003812843867604452 -0.0012738440265041588 -1.7124794438869626e-05 -0.0012738440265041588 -0.0010550135243156857 -9.3154158292474e-06 -1.7124794438869626e-05 -9.3154158292474e-06 0.00011318215392855632" pbc="T T T"
C        0.12024523       0.04337659       3.76291871      -0.00538643       0.00263388       0.00139774
C       -1.12022152       2.16995903       3.49988401       0.00598348      -0.00624638       0.01198097
C       -2.36482038       4.31699383       3.55460046       0.01262107      -0.00875723      -0.01753716
C       -3.57389538       6.46420422       3.72659023      -0.02158881      -0.02033141      -0.00696044
C       -4.79975242       8.60040652       3.83989347       0.00643307      -0.00041646      -0.01523590
C        2.59076483       0.03805885       3.87003712      -0.02053187       0.00200320       0.00603596
C        1.37059125       2.11346063       3.46030099       0.01189257       0.00025037       0.01027598
C        0.04215510       4.34248941       3.24410589      -0.00992569      -0.00465318      -0.00845316
C       -1.12528326       6.45743990       3.69638051      -0.00484485      -0.00513521       0.00518486
C       -2.33315426       8.59040248       3.85944612       0.00497029       0.01142711       0.00765477
C        5.05909869       0.04506068       3.95908192      -0.00085350       0.00841258      -0.00134322
C        3.79688287       2.17645815       3.98561833       0.01135248      -0.01183856       0.00527467
B        1.25880177       6.40175438       4.17981097      -0.00459403       0.01062711      -0.02382344
C        0.12827355       8.58473799       3.98113622      -0.00175078       0.01168230       0.02244971
C        7.52747441       0.04129091       3.95126946       0.01852010      -0.00530111      -0.01059710
C        6.28283918       2.19001703       3.92354928       0.00429563       0.00526983       0.01735937
C        5.10717462       4.37204512       4.03278492      -0.01359576      -0.00103291       0.00364932
N        3.94621593       6.48901044       4.25912117       0.01363897       0.00768152      -0.00356026
C        2.60392481       8.57334689       4.10128497       0.00222769       0.00367820       0.01046226
C        9.99039882       0.03856000       3.84736042       0.02205862       0.01072345       0.00275626
C        8.75258092       2.17657696       3.73804380      -0.00845000       0.01506654       0.01002946
C        7.53188463       4.32694207       3.76787333      -0.00344104      -0.00683089       0.00707357
C        6.32211644       6.48682957       3.86512899      -0.00619590       0.00364363      -0.00201907
C        5.06980551       8.58979902       3.95350678       0.00026680      -0.00691164       0.00980467
C        0.11789481       1.46264614       3.56309529       0.00956339      -0.00173969      -0.00489584
C       -1.14003990       3.59025208       3.38632850       0.00852888      -0.01629597       0.00682607
C       -2.36018568       5.74409496       3.63074809      -0.01043456      -0.01298889       0.00413983
C       -3.56822386       7.88647053       3.80285643       0.00694826      -0.01042292       0.01097328
C       -4.80997921      10.02064333       3.83034150      -0.01611143       0.00030875      -0.00335496
C        2.57961891       1.46476713       3.81720665       0.01099159      -0.00632209      -0.00858103
S        1.49605233       3.62528251       2.64334954      -0.02085774       0.00807980       0.02061816
C        0.06736500       5.70928890       3.60655082      -0.00038890       0.00039408      -0.01867823
C       -1.10107569       7.87416724       3.86292209       0.00285426       0.00427756       0.00620841
C       -2.33762816      10.01330192       3.92053660      -0.01319067       0.01727415       0.00181228
C        5.04512874       1.48359177       3.97859903       0.01117909       0.00038514      -0.01185308
B        3.84294154       3.65055323       4.24735349      -0.01540063      -0.00834799       0.00196718
C        1.36763116       7.88900199       4.10234024      -0.00235008       0.01266214      -0.00962029
C        0.12393961      10.01736210       3.97593450       0.00539058       0.00805754      -0.00826639
C        7.52014412       1.46915139       3.87139498      -0.00086451      -0.00019179       0.00324422
C        6.29577474       3.62040173       3.89566587      -0.00777662       0.00261266       0.00393270
C        5.09851665       5.80008508       4.03345805       0.00248984       0.00110501       0.00703342
C        3.85564355       7.84135022       4.11878771      -0.00357635      -0.00304813      -0.00694020
C        2.59763591      10.00376222       3.97556229       0.02711141       0.00184781      -0.00472197
C        9.99174814       1.46380782       3.69333848      -0.00722379       0.01023677      -0.02652223
C        8.74873760       3.60268544       3.67562431       0.00769868       0.01008201       0.00240471
C        7.53605244       5.75202576       3.76788472      -0.02562037      -0.01403274      -0.00995410
C        6.30508295       7.89680353       3.87935081       0.00489974       0.00277755      -0.00260804
C        5.05517948      10.01159068       3.85751937       0.00771133      -0.00869485      -0.00605199
Au       2.51834808       5.05006636       5.11312586      -0.00179306      -0.02169257       0.01724023
O        1.31911465       3.65230825       6.07238163      -0.00977049       0.01917902      -0.00794985
O        0.08122815       4.30135178       6.41033379       0.02773463      -0.02460340       0.21298683
H        0.13593442       4.28773142       7.39504675      -0.01084458       0.01345627      -0.21124894
