52
Lattice="12.336457 0.0 0.0 -6.168228499999997 10.683685154694365 0.0 0.0 0.0 15.0" Properties=species:S:1:pos:R:3:forces:R:3 energy=-439.3679656840112 free_energy=-439.3679656840112 stress="-0.0021427278466588946 0.0013847551733144395 -6.032555302104841e-05 0.0013847551733144395 -0.008404064756691023 3.994735340034551e-05 -6.032555302104841e-05 3.994735340034551e-05 5.7188062390151587e-05" pbc="T T T"
C       -0.01676958       0.01217134       3.57698461       0.00098491      -0.00358284       0.00186430
C       -1.23982630       2.16242720       3.74676840       0.00796193       0.00741203       0.00497690
C       -2.47793261       4.29619529       3.71853418      -0.00500547       0.00409435       0.00095016
C       -3.71615025       6.42273239       3.57121877      -0.00269180      -0.00046940       0.00069524
C       -4.96529420       8.54467165       3.45392140      -0.00725184      -0.00186213       0.00346767
C        2.44459058      -0.02486143       3.69109747      -0.00237617       0.00780419       0.00745109
C        1.22140642       2.08440219       4.03971539       0.00063169       0.00043703      -0.00485641
C       -0.04210082       4.29074328       4.11763501       0.00727854       0.00426867       0.00056616
C       -1.25555565       6.43589088       3.83864965      -0.01142568      -0.00349795       0.00113292
C       -2.48283786       8.54943988       3.61894098      -0.00555007      -0.00561061      -0.00159876
C        4.91507096       0.00990746       3.68807917      -0.00286346       0.00183506       0.00306755
C        3.67473023       2.08495485       4.00249154      -0.00205924       0.00341929      -0.00291900
P        1.36958528       6.47351282       4.75400467       0.00447015      -0.00065149      -0.00328718
C       -0.01669939       8.58187159       3.73333633       0.00783951       0.00059370      -0.00092009
C        7.37709963       0.05374493       3.59961945       0.00110120      -0.00587407       0.00285072
C        6.14805077       2.16127043       3.77503617      -0.00001075      -0.00238822       0.00310540
C        4.93219446       4.30051546       3.83104200      -0.00406300      -0.00546367      -0.00911342
S        3.44245732       6.27459401       2.87233448      -0.00617756       0.01531775      -0.00511211
C        2.44744310       8.63877605       3.50864165      -0.00218516       0.00333549      -0.00012184
C        9.86181512       0.05399700       3.49653935      -0.00231930      -0.00304374       0.00074215
C        8.62379449       2.17209126       3.64461709      -0.00041812      -0.00000509      -0.00557574
C        7.39158885       4.29620803       3.65330565      -0.00212473       0.00371584       0.00970687
C        6.14003124       6.42228299       3.42243262       0.01476874      -0.00193445       0.00296084
C        4.90830407       8.57316859       3.32272578      -0.00537678      -0.00006282       0.00066937
C       -0.01255717       1.43157481       3.78448308       0.00436618      -0.00043201      -0.00025501
C       -1.24483265       3.57844795       3.84871283       0.00327322       0.00952900       0.00752578
C       -2.48341739       5.71697702       3.69994022      -0.01137310       0.00035805      -0.00093905
C       -3.72129564       7.84156784       3.53360554      -0.00963899      -0.00452162       0.00447665
C       -4.95935588       9.96726134       3.55880744      -0.00104221       0.00124878       0.00217739
C        2.44626990       1.38174047       3.93596523       0.00018509       0.00948120      -0.00842792
B        1.23312619       3.52972594       4.45210774       0.00141886      -0.00736508      -0.00293206
C       -0.06481878       5.70355468       4.12604241      -0.00732382       0.00246310       0.00089349
C       -1.24798584       7.85321603       3.74541682       0.00021445      -0.00287857      -0.00048141
C       -2.48472447       9.96868096       3.64923679      -0.00488851      -0.00036974       0.00162245
C        4.91644689       1.43339696       3.81223461      -0.00400042       0.00402154      -0.00661661
B        3.69240680       3.54731426       4.30031067       0.00093168      -0.00879663       0.00184236
C        1.24301036       7.92942323       3.80619131       0.00686752       0.00067760       0.00277228
C       -0.02017706      10.00774469       3.64384775       0.00030748       0.00231876      -0.00183144
C        7.38215872       1.46706253       3.66025833      -0.00068840      -0.00587969      -0.00577906
C        6.15757858       3.58079342       3.77523222      -0.00143615      -0.00296120      -0.00337059
C        4.94255522       5.66288234       3.45561522       0.01517121      -0.00283908      -0.00558201
C        3.65387535       7.93912918       3.27572289      -0.00574896       0.00570061       0.01561856
C        2.45039111      10.05148419       3.50378539      -0.00208627      -0.00239319       0.00566271
C        9.86312733       1.46836788       3.61030929       0.00456257      -0.00050628       0.00532003
C        8.62664743       3.58963160       3.66770644      -0.00475911       0.00393151      -0.00938319
C        7.38472904       5.71243542       3.54785868       0.01094501       0.00076605      -0.00138274
C        6.13459857       7.84116725       3.35465901      -0.00375346       0.00041466       0.00526202
C        4.91977029      10.00824998       3.44601207      -0.00103371      -0.00391644       0.00664229
Au       2.55812023       4.32455759       5.90710579       0.00573252      -0.00820220      -0.00931463
O        2.76489849       5.16729568       7.82912795       0.01032967       0.00274971       0.00095761
O        2.98069157       4.11355474       8.75662933       0.01304685       0.00433010      -0.00955289
H        3.87486255       4.33678994       9.08052540      -0.00271674      -0.01471586      -0.00562782
