51
Lattice="12.336457 0.0 0.0 -6.168228499999997 10.683685154694365 0.0 0.0 0.0 15.0" Properties=species:S:1:pos:R:3:initial_magmoms:R:1:forces:R:3 energy=-445.2231939639551 free_energy=-445.2231939639551 stress="-0.00953910425372688 0.00018220951882779043 1.0710038365529923e-05 0.00018220951882779043 -0.0035876367412204595 -8.275653520733196e-07 1.0710038365529923e-05 -8.275653520733196e-07 3.5758840933156834e-06" pbc="T T T"
C        0.12867554       0.14210119       3.67214481       0.00000000      -0.00476554       0.00025457       0.00907213
C       -1.11520968       2.24535836       3.55963321       0.00000000       0.00966921       0.00406973      -0.00793636
C       -2.34532802       4.39222683       3.42671306       0.00000000       0.01157642      -0.00263091      -0.00282505
C       -3.56429361       6.54579382       3.46395113       0.00000000       0.00469435      -0.01182343       0.00304582
C       -4.79997578       8.69102403       3.62007467       0.00000000      -0.00408484       0.00263689      -0.01009176
C        2.59102913       0.14313241       3.71963841       0.00000000      -0.00159027       0.00406409       0.00114290
C        1.34744644       2.30291459       3.85165607       0.00000000      -0.00046443      -0.00145135      -0.00166812
C        0.07255903       4.38153727       3.71382501       0.00000000       0.00282282       0.00163904      -0.00928557
C       -1.13164133       6.54968330       3.53489955       0.00000000       0.00601389       0.00280557       0.00935078
C       -2.34772916       8.68794419       3.57267611       0.00000000       0.00063800      -0.00027100      -0.00155945
C        5.06819400       0.11419809       3.70509288       0.00000000       0.00344053       0.00554941       0.01069059
C        3.83729671       2.21905668       3.94788520       0.00000000       0.00450267       0.00071098      -0.00239838
C        1.24738101       6.52073876       4.00812767       0.00000000      -0.01282816       0.00316752       0.00695225
C        0.11876750       8.65530195       3.72616286       0.00000000       0.00357139      -0.00129065      -0.01957290
C        7.53377476       0.10179677       3.68788544       0.00000000      -0.00657787       0.00056024      -0.01023310
C        6.31446405       2.23801938       3.70075312       0.00000000      -0.00698665       0.00827340       0.00789834
C        5.19056196       4.40497708       3.93429569       0.00000000      -0.00099138      -0.00733299       0.00127531
B        3.91127249       6.53362455       4.20040258       0.00000000       0.00551341      -0.00428189      -0.00211989
C        2.59180253       8.65420928       3.89885080       0.00000000      -0.00117603       0.00334405       0.00200698
C        9.99418870       0.11024426       3.67042589       0.00000000       0.00951268       0.00207933       0.00020598
C        8.76623333       2.24088495       3.52218000       0.00000000      -0.00574483      -0.00384279      -0.00225212
C        7.56393853       4.39205452       3.53164539       0.00000000      -0.00165938       0.00095708       0.00404078
C        6.35110150       6.55221213       3.71758652       0.00000000      -0.00766336       0.00327604      -0.00594931
C        5.07858827       8.68568770       3.80531908       0.00000000      -0.00439859      -0.00370894      -0.00118794
C        0.11682104       1.56022069       3.67556192       0.00000000       0.00140050       0.00016045       0.00213603
C       -1.13241143       3.66342954       3.51653969       0.00000000       0.01112620       0.00103430      -0.00591429
C       -2.34567660       5.82364302       3.43433159       0.00000000       0.01344190      -0.00527239       0.00918057
C       -3.57224639       7.97466653       3.53396639       0.00000000      -0.00192364      -0.00554110      -0.00220189
C       -4.80554997      10.11480736       3.66405777       0.00000000      -0.00654933       0.00534596       0.00370587
C        2.58865049       1.56302639       3.86124513       0.00000000       0.00519850       0.00335736      -0.00237864
C        1.24464528       3.69140825       3.98592970       0.00000000      -0.01097999      -0.01084547      -0.00647795
C        0.07380564       5.83020294       3.72092837       0.00000000      -0.00357304      -0.00274022       0.00669137
C       -1.11553839       7.96958030       3.59536586       0.00000000       0.00298244       0.00120565       0.00343532
C       -2.34412531      10.10695602       3.66755652       0.00000000       0.00205098       0.00410879       0.00331751
C        5.07785842       1.53223034       3.78866865       0.00000000       0.00303416       0.00440131       0.00981971
B        3.91168893       3.67902940       4.17861050       0.00000000       0.00799442      -0.00502185       0.00581594
C        1.35116365       7.91269733       3.89197047       0.00000000      -0.00313833      -0.00382213      -0.00050610
C        0.13049718      10.07650539       3.70326461       0.00000000      -0.00185968      -0.00174487      -0.00952326
C        7.53819250       1.52543723       3.61615193       0.00000000      -0.01523305       0.00242113      -0.00126366
C        6.35064202       3.66387976       3.70224901       0.00000000      -0.00233192       0.00157265      -0.00110241
C        5.19067473       5.81091403       3.94498698       0.00000000      -0.00176391      -0.00711840      -0.00438892
C        3.83974225       7.99605912       3.97601552       0.00000000      -0.00494474      -0.00307131       0.00514029
C        2.59390680      10.07315252       3.74139391       0.00000000       0.00234300       0.00782221       0.00020501
C        9.99128568       1.52813969       3.56092428       0.00000000       0.00646214       0.00186214      -0.00373245
C        8.77223793       3.67059854       3.45510471       0.00000000       0.00122507       0.00088317       0.00246049
C        7.56355049       5.82415259       3.53657577       0.00000000      -0.00292439       0.00027006       0.00449273
C        6.31385505       7.97797780       3.71728063       0.00000000      -0.00491902       0.00325806      -0.01004490
C        5.06769858      10.10347927       3.70457039       0.00000000       0.00399395      -0.00587065       0.01111863
Au       2.54633343       5.10078394       4.62641532       0.00000000      -0.00122771       0.00554065       0.00573055
O       -0.57876812       2.44612960       6.49089623       1.00000000      -0.00497838       0.00043622      -0.00414220
O       -1.06203771       1.31751244       6.44247961       1.00000000       0.00206987       0.00061429      -0.00017524
