52
Lattice="12.336457 0.0 0.0 -6.168228499999997 10.683685154694365 0.0 0.0 0.0 15.0" Properties=species:S:1:pos:R:3:forces:R:3 energy=-446.3519394654296 free_energy=-446.3519394654296 stress="-0.00296918252901765 -0.003474811911313457 1.3562632295454259e-05 -0.003474811911313457 0.0012449356654270416 -1.1706285454700096e-05 1.3562632295454259e-05 -1.1706285454700096e-05 -1.1224137504092911e-05" pbc="T T T"
C        0.08315663       0.06816621       3.70928594      -0.00211940       0.00662309       0.00059544
C       -1.17410643       2.18289185       3.58225376       0.00280375       0.00136903      -0.00617157
C       -2.38588403       4.33797889       3.54473471       0.00242612       0.00509435      -0.01386423
C       -3.58987337       6.49191986       3.60161712      -0.00204603       0.00120556       0.00538176
C       -4.82177720       8.63968862       3.69365454      -0.00713858       0.00671793      -0.00847961
C        2.54715123       0.10961330       3.74280344       0.00701690      -0.00013696      -0.00322408
C        1.26435778       2.20630371       3.64173278       0.00179830       0.00303161       0.00570360
C        0.04804573       4.27276422       3.49961038      -0.00637263       0.00015480       0.00374713
C       -1.12166512       6.45613119       3.62928510       0.00298204      -0.00361031       0.00127265
C       -2.36187112       8.62760819       3.68892124       0.00022296      -0.00918274      -0.00038383
C        5.01246163       0.08918083       3.83341855       0.00647710      -0.00000380      -0.00221268
C        3.74447687       2.23504566       4.00979281      -0.00278622       0.00139126       0.00178002
B        1.28797449       6.42617248       4.13384789       0.00848055       0.00900521      -0.00958272
C        0.09194777       8.61499110       3.85242879      -0.00280723      -0.00274894       0.00569102
C        7.48084492       0.07128531       3.85536882       0.00434383      -0.00814130       0.00044086
C        6.23777898       2.21954970       3.87617501      -0.00057471      -0.00136066      -0.00333704
C        5.10624754       4.39481092       4.05748748      -0.00149593      -0.00394900      -0.01418314
C        3.89124856       6.49481444       4.27376505      -0.00548727       0.00318628       0.00268889
C        2.55613723       8.60662224       4.03233182       0.00296709       0.00168532       0.00307020
C        9.94560241       0.05660067       3.79360131      -0.00199788      -0.00380347      -0.00053571
C        8.70568384       2.20149920       3.69957462      -0.00100833      -0.00100396       0.00107367
C        7.50873821       4.35676552       3.70621273      -0.00034440      -0.00058567      -0.01441987
C        6.30362835       6.51733545       3.78967765      -0.00504353      -0.00634620      -0.00907643
C        5.03943115       8.61417735       3.88096879       0.00201573      -0.00090286       0.00275584
C        0.06426528       1.48896767       3.63532164       0.00325421       0.00605476       0.00038298
C       -1.16745865       3.59877269       3.49969204      -0.00245003       0.00002394      -0.00982598
C       -2.36855544       5.76175115       3.55706664       0.00165781       0.00405774      -0.00321938
C       -3.59185208       7.92047957       3.64270809      -0.00838409       0.00144670       0.00930950
C       -4.83999371      10.06368604       3.70668583      -0.00163948       0.00947697       0.00081977
C        2.51564383       1.54580136       3.80785614       0.00174852      -0.00068110       0.00422435
O        1.22232153       3.55481781       3.42857238      -0.00751199      -0.00184268       0.00090562
C        0.07344000       5.68246997       3.67066440       0.00153998       0.00159351       0.00367198
C       -1.12643699       7.89385587       3.72179370      -0.00133711      -0.00851030       0.00881629
C       -2.38291309      10.06294922       3.75945865       0.00874666      -0.00643817      -0.00141038
C        4.99047211       1.52719554       3.92036995      -0.00168272       0.00224387       0.00080525
B        3.84558893       3.69749301       4.34856896       0.00370261      -0.00047077       0.00503671
C        1.32732786       7.91759106       4.00786343      -0.00046294       0.00878617       0.01256401
C        0.07846092      10.05167004       3.84761072       0.00454831      -0.00383503       0.01264187
C        7.47229602       1.49748764       3.80553391      -0.00186410      -0.00691137      -0.01383591
C        6.27533653       3.64650483       3.86451218       0.00267276      -0.00216653       0.00130213
C        5.08983216       5.81489173       4.02825350      -0.00517057      -0.00207066       0.00041629
C        3.80426329       7.87395914       4.07472492       0.00061659       0.00342763      -0.00341683
C        2.54949440      10.03327928       3.89359281       0.00199308      -0.00471398       0.01137560
C        9.93921827       1.48099375       3.67957866       0.00156710      -0.00290239       0.00241451
C        8.71925186       3.62955877       3.63178495       0.00167593       0.00302435      -0.00248478
C        7.51973498       5.78387268       3.67357659       0.00001232      -0.00142725       0.00321516
C        6.28252465       7.93143923       3.77744747      -0.00086748      -0.00380265      -0.00521625
C        5.01934033      10.03158704       3.78803921      -0.00038516      -0.00032520       0.00254863
Au       2.59726074       5.19229724       5.18209602      -0.00003920       0.00734126       0.00284282
O        1.25924535       3.85938790       6.06991542       0.00895871      -0.00560202       0.00948473
O        1.15558230       4.21133333       7.46617432      -0.00264832       0.00601888       0.00284544
H        1.50789645       3.40416622       7.89408832      -0.01056360       0.00051574      -0.00494429
