52
Lattice="12.336457 0.0 0.0 -6.168228499999997 10.683685154694365 0.0 0.0 0.0 15.0" Properties=species:S:1:pos:R:3:forces:R:3 energy=-438.5628077464343 free_energy=-438.5628077464343 stress="0.000549263748960534 0.0002279350717575551 2.216824677191631e-05 0.0002279350717575551 -0.010869470026693435 -3.513533298843332e-05 2.216824677191631e-05 -3.513533298843332e-05 -1.4035743657452396e-06" pbc="T T T"
C       -0.01423482      -0.06772906       3.67147662       0.00327203      -0.00315359      -0.00101851
C       -1.23342061       2.09859800       3.56489442       0.00516702      -0.00386825      -0.00476336
C       -2.46625164       4.23129280       3.61292260       0.00374293      -0.00086198      -0.00627916
C       -3.70427682       6.35314974       3.64032683      -0.00439218       0.00113687       0.00118655
C       -4.95525995       8.46981949       3.64767902      -0.00546191      -0.00372488      -0.00714280
C        2.44660092      -0.12857933       3.93755276      -0.01043646       0.00298323       0.00155475
C        1.26016731       1.98611995       3.58903052       0.00751856       0.00104783      -0.00789385
C       -0.01298935       4.26178955       3.37509938       0.00549700      -0.00231298      -0.00958723
C       -1.21685893       6.36392281       3.70134166       0.01197591      -0.00402576       0.00263398
C       -2.47175045       8.46940508       3.86589553       0.00074146       0.00542045       0.01277587
C        4.92030507      -0.06177871       4.09674653      -0.00330267       0.00573235      -0.00358780
C        3.64356514       1.98749996       4.24055619       0.00578034       0.00961984      -0.00712192
B        1.39773991       6.35033874       3.83792134      -0.01492772      -0.00171324      -0.00220233
C       -0.00617640       8.51572648       3.95539613       0.00373791      -0.00211572       0.00293392
C        7.38405225      -0.00111783       3.99135286      -0.00009713       0.00822772       0.00805575
C        6.14518826       2.10964828       4.05988465      -0.00527299      -0.00479965      -0.00155254
C        4.95022514       4.27603921       3.81166035       0.00869623      -0.00044253       0.00523258
P        3.29119830       6.25035025       2.95784649      -0.00143670       0.00719714       0.01003573
C        2.44882933       8.59398858       3.77865062      -0.00551911      -0.00186032      -0.00546590
C        9.86480429      -0.00575720       3.75026791       0.00662232      -0.00182548       0.00425343
C        8.62626603       2.11441797       3.81320087      -0.00448965       0.00057730      -0.00346573
C        7.39224186       4.23381650       3.73315682      -0.00415448      -0.00836340      -0.00866724
C        6.15285632       6.36148701       3.45159076      -0.00118885      -0.00000348       0.00205048
C        4.90991195       8.51347520       3.52107180       0.00048856      -0.00402566      -0.00168033
C       -0.00485988       1.35822058       3.59295252       0.00840362      -0.00240396       0.00684714
C       -1.22954547       3.51819135       3.49837909       0.00920822      -0.00182475      -0.00251897
C       -2.46254259       5.65015515       3.64817856       0.00276054      -0.00121167       0.00206612
C       -3.70977150       7.76832487       3.70961854      -0.00154411       0.00428474       0.00806371
C       -4.95696229       9.88018940       3.74988869      -0.00551672      -0.00611963       0.00129719
C        2.43961299       1.27740553       3.97077599       0.00822306       0.00521214      -0.01333109
P        1.54785990       3.55533392       2.83887079      -0.01494207       0.01311860      -0.00198355
C        0.02507986       5.65000230       3.59185182       0.01093495      -0.00170760      -0.00112214
C       -1.23341767       7.77688232       3.86392045       0.00512337      -0.00057614       0.00858089
C       -2.47439870       9.88068216       3.99915788      -0.00813398       0.00761654       0.00092891
C        4.91327059       1.36825199       4.17467528      -0.00034034       0.00222956      -0.00122531
P        3.38358849       3.70809635       4.40124917       0.00135219      -0.00454641       0.00659496
C        1.24111279       7.86867562       3.87241556      -0.00092169      -0.01169270       0.00859078
C       -0.01180452       9.94705485       4.03850683      -0.00017428       0.00334273      -0.00668931
C        7.38337835       1.41540877       3.97483057      -0.00412117       0.00596822       0.00901039
C        6.15672935       3.52477558       3.89293779       0.00033552      -0.00995282      -0.00475005
C        4.93655324       5.61852357       3.40892682       0.00563389      -0.00407097      -0.00679101
C        3.64439340       7.89001917       3.48067024      -0.00288380      -0.00081799       0.00549391
C        2.45716099      10.00432288       3.86870086       0.00030696       0.00098602       0.00564404
C        9.86761427       1.41053671       3.71682781      -0.00105413       0.00025768      -0.00287194
C        8.63108535       3.52880705       3.72585161      -0.00169715      -0.00199972      -0.00925791
C        7.39112447       5.64850054       3.58886376      -0.00682113      -0.00413893       0.00809368
C        6.14694189       7.78127376       3.49238586      -0.00395086      -0.00309334       0.00282044
C        4.91799045       9.93789509       3.64798181       0.00576110      -0.00585998      -0.00553833
Au       2.28898055       5.43927585       5.68717381       0.00082781       0.00471045       0.00173448
O        2.65600546       4.94883565       7.68143719       0.00319318       0.00230310      -0.00279384
O        2.57024090       6.15514416       8.40352182      -0.00600366       0.00952120       0.01307130
H        3.43936040       6.17284671       8.85188853      -0.00651976       0.00161981      -0.01024880
