52
Lattice="12.336457 0.0 0.0 -6.168228499999997 10.683685154694365 0.0 0.0 0.0 15.0" Properties=species:S:1:pos:R:3:forces:R:3 energy=-440.9710030818254 free_energy=-440.9710030818254 stress="-0.00047579625720207773 0.0017399841283472221 -1.5974052362549148e-05 0.0017399841283472221 -0.006291976807372777 -1.272394377772807e-06 -1.5974052362549148e-05 -1.272394377772807e-06 5.762194239228226e-06" pbc="T T T"
C       -0.02478045       0.10640089       3.74390309       0.00469020       0.00153650       0.00075276
C       -1.24194368       2.26276777       3.55972512       0.00210842       0.00571341      -0.01031458
C       -2.49428924       4.39640959       3.61500402      -0.00572543      -0.00687980       0.00291899
C       -3.72870343       6.52375300       3.73639505       0.00907689       0.00023200      -0.00435343
C       -4.97214933       8.64455223       3.76143466      -0.00079146       0.00614502      -0.00676609
C        2.43983543       0.09056006       3.93111209       0.00484084       0.00204977       0.00229881
C        1.24452459       2.17721031       3.57098069      -0.00311636      -0.00499845       0.00790598
C       -0.07527796       4.42783160       3.26352005       0.00611598      -0.00606185       0.00025095
C       -1.25208115       6.53297332       3.68232748       0.00604839      -0.00377996      -0.00023463
C       -2.49390041       8.65127981       3.87772065      -0.00099214       0.00349211      -0.00103942
C        4.90578033       0.11189164       4.04667918      -0.00126331      -0.00270627      -0.00633261
C        3.65680854       2.20752612       4.26108756      -0.00504647       0.00256544       0.00184189
B        1.31515968       6.49246646       3.90222600      -0.00171261       0.00208406      -0.00041716
C       -0.03041362       8.67828041       3.95271846       0.00572894      -0.00366072      -0.00883427
C        7.37402382       0.14939273       3.99141010      -0.00860523       0.00428719      -0.00026578
C        6.14820909       2.26100940       4.12985150      -0.00249546      -0.00017968      -0.00689154
C        4.96494795       4.40339139       4.20944310       0.00019632      -0.00095304       0.00546745
P        3.32736045       6.34695022       3.18155870       0.00041720       0.00974877      -0.00173626
C        2.43130479       8.73123204       3.86693123      -0.00278037       0.00313652      -0.00095757
C        9.85489364       0.14588496       3.80421534      -0.00480328       0.00115392      -0.00115788
C        8.61883641       2.26991380       3.84115222       0.00021407       0.00022204      -0.00576320
C        7.38910755       4.39329856       3.88418592      -0.00395737      -0.00125773      -0.00269289
C        6.12803310       6.50745772       3.72149120       0.00156661      -0.00536421      -0.00203719
C        4.89490070       8.66095791       3.68362860      -0.00194123       0.00057942      -0.00381410
C       -0.01384588       1.53662265       3.62067507       0.00021746       0.00053582       0.00297528
C       -1.26289320       3.67715620       3.44453145       0.00111614       0.00293720       0.01141934
C       -2.49365306       5.81758646       3.66502533       0.00570869      -0.00813922       0.00726609
C       -3.73169239       7.94334201       3.78718646      -0.00068063       0.00428350       0.00283235
C       -4.96357377      10.06956642       3.80819997       0.00631778       0.00577616       0.00796102
C        2.45257066       1.51959122       3.96209819      -0.00402923      -0.00269886       0.00238869
S        1.39220197       3.67071765       2.74157340      -0.00485301      -0.00518889      -0.00770895
C       -0.02273241       5.80931798       3.54301348       0.00499286      -0.00503326      -0.00048181
C       -1.26004641       7.95130249       3.85675053       0.00186217      -0.00128188       0.01473892
C       -2.49236138      10.07134572       3.97687151       0.00093647       0.00133328      -0.00644638
C        4.89741920       1.54126346       4.15695863      -0.00498314      -0.00094069      -0.00093170
B        3.77160325       3.61331452       4.85195646       0.00055834      -0.00084197      -0.00910331
C        1.21260668       8.01636663       3.92982715       0.00491998      -0.00304375      -0.00277041
C       -0.02840939      10.10915031       4.01293859      -0.00186014      -0.00302240      -0.00154865
C        7.37802736       1.56676634       3.99624642      -0.00037755       0.00426378       0.00076566
C        6.16581529       3.68523147       4.10717209      -0.00219667      -0.00146843      -0.00220798
C        4.92121963       5.73303860       3.78330940      -0.00424097      -0.00509303      -0.00780998
C        3.63641620       8.01535151       3.64900790      -0.00251589       0.00365826       0.01125936
C        2.44540504      10.14836220       3.91056093      -0.00909310       0.00282601       0.00658491
C        9.86149151       1.56713990       3.73688614       0.00416086       0.00323176       0.00127481
C        8.61678967       3.68585603       3.77948013      -0.00772838      -0.00325643       0.00816235
C        7.37400824       5.80998441       3.77448268       0.00780914       0.00041572       0.00577196
C        6.12862630       7.93361172       3.68312695      -0.00163667      -0.00121639       0.00235277
C        4.90718017      10.09375354       3.74516104       0.00079385       0.00218050      -0.00223758
Au       2.24570964       5.24212044       5.36929497      -0.00618740       0.00203962      -0.00024333
O        3.49827793       3.80872214       6.33244300       0.00105980       0.00396734      -0.00340861
O        2.66356087       2.64283640       6.78636646      -0.00029321       0.00270192      -0.00311054
H        3.14634836       2.45546009       7.62006117       0.01244933      -0.00603015       0.00442748
