51
Lattice="12.336457 0.0 0.0 -6.168228499999997 10.683685154694365 0.0 0.0 0.0 15.0" Properties=species:S:1:pos:R:3:initial_magmoms:R:1:forces:R:3 energy=-438.2659554643296 free_energy=-438.2659554643296 stress="-0.0024431207491018843 -0.0023168954345798086 9.012257260251399e-06 -0.0023168954345798086 -0.003910349213631168 2.2080722396019675e-06 9.012257260251399e-06 2.2080722396019675e-06 -3.612812651186307e-05" pbc="T T T"
C        0.10132642      -0.02984873       3.68760299       0.00000000       0.00022489      -0.00011746      -0.00058653
C       -1.13960242       2.12163009       3.74984570       0.00000000       0.00076734      -0.00065480       0.00089984
C       -2.36977095       4.26069313       3.66865882       0.00000000      -0.00048536      -0.00039211       0.00003019
C       -3.57210975       6.40160720       3.58654756       0.00000000      -0.00030674       0.00013653      -0.00011364
C       -4.80668364       8.53545314       3.60421674       0.00000000      -0.00094946      -0.00035956       0.00019469
C        2.58335109      -0.04577081       3.70461338       0.00000000      -0.00195943      -0.00027072       0.00082801
C        1.33859317       2.06094346       3.92210884       0.00000000      -0.00019184       0.00086449       0.00062811
C        0.04518421       4.28946335       4.08174852       0.00000000       0.00027530      -0.00078189      -0.00031405
C       -1.12389012       6.39438901       3.90099388       0.00000000       0.00077882      -0.00043140       0.00156824
C       -2.33637776       8.52477025       3.70224435       0.00000000       0.00012117      -0.00084305       0.00153331
C        5.04558803      -0.01285171       3.57305009       0.00000000      -0.00040759       0.00059611       0.00203083
C        3.76638905       2.06720440       3.47225100       0.00000000      -0.00072090       0.00145561      -0.00337612
B        1.28284210       6.49738162       4.66382888       0.00000000      -0.00160541       0.00221147       0.00001173
C        0.13125649       8.54314321       3.79985196       0.00000000       0.00215756       0.00014156      -0.00080369
C        7.50824711      -0.00836260       3.53057225       0.00000000       0.00071943      -0.00050429       0.00101074
C        6.25561787       2.14245257       3.36429706       0.00000000       0.00113637       0.00014070       0.00004061
C        5.09616260       4.35319791       3.16490747       0.00000000       0.00000199      -0.00008832       0.00205406
N        3.88048793       6.43214872       3.36997015       0.00000000      -0.00310411      -0.00261763       0.00255711
C        2.57173964       8.50834579       3.67270789       0.00000000      -0.00095853      -0.00003514      -0.00164457
C        9.96922782      -0.01770679       3.57191838       0.00000000       0.00002473      -0.00149639       0.00031040
C        8.73507081       2.12898835       3.50537744       0.00000000      -0.00061879      -0.00043111      -0.00150672
C        7.51870371       4.27724968       3.39997353       0.00000000      -0.00016272       0.00093635      -0.00122513
C        6.31936261       6.43833353       3.38636700       0.00000000       0.00147597       0.00117856       0.00061919
C        5.05457981       8.53138523       3.53339689       0.00000000      -0.00010025       0.00055714      -0.00163505
C        0.09590759       1.39621021       3.80458264       0.00000000       0.00119401      -0.00009389       0.00074333
C       -1.14563116       3.54550923       3.82211101       0.00000000       0.00033682      -0.00043984       0.00044173
C       -2.35626690       5.68313875       3.70532972       0.00000000      -0.00015638      -0.00019146      -0.00083308
C       -3.57176888       7.82106029       3.63444288       0.00000000      -0.00074572      -0.00012336      -0.00146681
C       -4.82600404       9.94679947       3.68308029       0.00000000      -0.00147203      -0.00065487      -0.00067763
C        2.56569990       1.37411449       3.74468024       0.00000000      -0.00005473       0.00029301       0.00099924
B        1.31490493       3.49256070       4.32748023       0.00000000      -0.00173418       0.00047530      -0.00060566
C        0.06201071       5.67895111       4.15119402       0.00000000       0.00119339      -0.00028090      -0.00062592
C       -1.11009901       7.82271880       3.82598108       0.00000000       0.00227726      -0.00017170      -0.00248715
C       -2.34436052       9.94781445       3.65819315       0.00000000      -0.00142915      -0.00037050       0.00099761
C        5.02710186       1.42314471       3.44234620       0.00000000       0.00060326       0.00121945      -0.00003763
S        3.53610106       3.68655535       2.92714665       0.00000000      -0.00062822      -0.00087746      -0.00041298
C        1.36239434       7.86601013       3.94824585       0.00000000       0.00043150      -0.00042948       0.00068055
C        0.11414096       9.96730154       3.60747830       0.00000000       0.00073932       0.00022277      -0.00164875
C        7.49215029       1.42658574       3.44646801       0.00000000       0.00023905      -0.00079385       0.00153871
C        6.26504840       3.57729789       3.28649159       0.00000000       0.00084877       0.00031841       0.00028411
C        5.06490856       5.77337728       3.26189879       0.00000000       0.00101975       0.00135919      -0.00308156
C        3.83416994       7.76657522       3.52361878       0.00000000      -0.00071565       0.00194883       0.00033663
C        2.57369607       9.94574483       3.56345247       0.00000000      -0.00020094      -0.00118510      -0.00029882
C        9.96779386       1.41165264       3.59862471       0.00000000      -0.00016109      -0.00103341       0.00013291
C        8.73914623       3.55311647       3.51154941       0.00000000      -0.00112267       0.00003440      -0.00086962
C        7.53173177       5.69804218       3.44278991       0.00000000       0.00017997       0.00068599       0.00126699
C        6.29848901       7.84371264       3.50618195       0.00000000      -0.00017941       0.00028005       0.00043837
C        5.03678063       9.94975681       3.60166983       0.00000000       0.00052257      -0.00037117       0.00072033
Au       2.86945891       4.41090011       5.29219831       0.00000000       0.04676779       0.01605785      -0.13835095
O       -2.28327680       4.38951720       9.54315994       1.00000000       0.00000136      -0.00000508      -0.00003852
O        1.97569139       6.24909986       5.79012960       1.00000000      -0.04386710      -0.01506781       0.13974301
