52
Lattice="12.336457 0.0 0.0 -6.168228499999997 10.683685154694365 0.0 0.0 0.0 15.0" Properties=species:S:1:pos:R:3:forces:R:3 energy=-440.9293833391196 free_energy=-440.9293833391196 stress="0.0005325220013701872 -0.0005638902842490249 8.47983751758567e-06 -0.0005638902842490249 -0.006080002716074095 1.2661153488959044e-05 8.47983751758567e-06 1.2661153488959044e-05 6.552989948652659e-06" pbc="T T T"
C        0.14180842       0.05797273       3.97487666      -0.00730828      -0.00104009      -0.00161822
C       -1.09379268       2.21111046       4.03279983      -0.00081614      -0.01230034       0.00211200
C       -2.32426864       4.34435340       3.81123376       0.00390647       0.00995812      -0.00794951
C       -3.55006406       6.47297696       3.69697718      -0.00005622      -0.00211984       0.01226950
C       -4.80114272       8.59482094       3.84189000       0.00555878       0.00573451      -0.00260370
C        2.60494543       0.04418417       3.91354959      -0.00534342       0.00257140       0.00440271
C        1.38097173       2.15781249       4.24303113      -0.00084688       0.01586448       0.00050996
C        0.08370605       4.34833075       4.31118755      -0.00888575       0.01132072      -0.01027863
C       -1.06427831       6.46059313       3.84096206      -0.00567572       0.01194723      -0.00789371
C       -2.32085166       8.59683672       3.80343116       0.00056636      -0.00563006      -0.00159310
C        5.06775869       0.06660539       3.73848353       0.00328488      -0.00423140      -0.00257843
C        3.79837736       2.13283385       3.52483635      -0.00646837      -0.01348801      -0.00649592
B        1.51458759       6.46093594       3.93454593       0.01041590       0.00272247      -0.00153404
C        0.13984132       8.62615296       3.83405282      -0.00250877      -0.00337643      -0.00032524
C        7.52740970       0.10539571       3.76647100       0.00434767      -0.00152930       0.00441614
C        6.29605559       2.20706429       3.46102622       0.00446793       0.00186305      -0.00380533
C        5.14651525       4.35190449       3.11548526       0.00084953      -0.00062243      -0.00615074
P        3.52214534       6.26317135       4.01864098       0.00565782      -0.00938473      -0.00213826
C        2.59182564       8.70194473       3.96195077      -0.00654009      -0.00019159       0.00809356
C       10.01473088       0.10035623       3.90588894      -0.00176065      -0.00092465      -0.00442410
C        8.77746010       2.22090465       3.71720910       0.00373510       0.00578456      -0.00270765
C        7.56017957       4.34480368       3.49319673       0.00489627      -0.00095774       0.00478809
C        6.30834289       6.47774253       3.60162669       0.00395150      -0.00397642       0.01256788
C        5.07228474       8.62032670       3.93592489      -0.00100841      -0.00722984       0.00982264
C        0.15291658       1.48767908       4.08866783       0.00228101      -0.00502763       0.00035684
C       -1.10357440       3.63684536       4.05572400      -0.00735410      -0.00219722       0.00905784
C       -2.31218612       5.76302795       3.77023647       0.00055451       0.00818494       0.00295092
C       -3.55837144       7.89079975       3.77826404       0.00259199      -0.00305826       0.00124405
C       -4.79800501      10.01740261       3.93660182      -0.00437140       0.00583006      -0.00396995
C        2.59062925       1.47831278       3.94340789      -0.00718174       0.00407735       0.00504548
B        1.20697391       3.51554580       4.98556553       0.00184380      -0.01007102      -0.01469145
C        0.16464938       5.71212453       3.99907616      -0.00525108       0.01584493      -0.00269873
C       -1.08280833       7.88738220       3.80953231      -0.00169568       0.00334623       0.00182853
C       -2.32787095      10.02465405       3.82011794      -0.00132562      -0.00427592      -0.00467474
C        5.05950593       1.49134409       3.56642120       0.00056124       0.00000436      -0.00396324
S        3.64431959       3.61072098       2.65528857       0.00192189      -0.00124423       0.00585576
C        1.38503265       7.96544964       3.90473316      -0.00314826       0.00054703      -0.00124524
C        0.13369911      10.05778508       3.77577688       0.00309091      -0.00622516       0.00000995
C        7.52891504       1.51911192       3.63949536       0.00694770      -0.00037980      -0.00253173
C        6.33058133       3.61697115       3.31285454       0.00296179       0.00172810      -0.00919439
C        5.09592161       5.72716669       3.41233173       0.00131127      -0.00021159       0.00507230
C        3.81319440       7.98510217       4.03423402      -0.00707440      -0.00397142      -0.00155438
C        2.60069780      10.10917687       3.87949035       0.00018631      -0.00026868       0.00927986
C       10.01517002       1.51810281       3.87705010      -0.00307344      -0.00126891      -0.00178152
C        8.78568362       3.63672907       3.66172421       0.00753013       0.00764954      -0.00364564
C        7.55136882       5.76693271       3.57598415       0.00237201      -0.00565071       0.00248916
C        6.29853552       7.88970783       3.81104083       0.00763993      -0.00017670       0.00565973
C        5.07436883      10.05138168       3.94670248      -0.00693953      -0.00502840      -0.00435689
Au       2.74532803       4.93884375       5.71178231      -0.00522936       0.01075809       0.00957433
O        1.37663024       3.46368568       6.49929359       0.00677331       0.00670527       0.00407811
O        0.18833591       4.16110242       7.09588520       0.00351245      -0.00030306       0.00232760
H        0.04238059       3.54315844       7.84288695      -0.00385515      -0.01608084      -0.00740846
