52
Lattice="12.336457 0.0 0.0 -6.168228499999997 10.683685154694365 0.0 0.0 0.0 15.0" Properties=species:S:1:pos:R:3:forces:R:3 energy=-445.2109999026929 free_energy=-445.2109999026929 stress="-0.008266975421726882 0.001465964456781819 -1.0072873149782963e-05 0.001465964456781819 -0.0014177082072015827 -3.369248065936166e-05 -1.0072873149782963e-05 -3.369248065936166e-05 -2.052666864344015e-05" pbc="T T T"
C        0.00423540      -0.00330741       3.77663119       0.00432884      -0.00829429      -0.00399437
C       -1.24108863       2.12018449       3.57167020      -0.00207247      -0.00298083       0.01103672
C       -2.47745014       4.27099465       3.82375829       0.00781540      -0.00105583      -0.00581420
C       -3.69037382       6.41538957       4.03406682       0.00054667      -0.00395325      -0.00753599
C       -4.92868102       8.55923756       3.98890432      -0.00529797       0.00361626       0.00159557
C        2.46795500       0.02644169       3.75148513      -0.00191961      -0.00299198      -0.00742825
C        1.21839484       2.03753679       3.18793978       0.00125057      -0.00454532      -0.00303856
C       -0.19604044       4.31110347       3.04974122      -0.00840280       0.00900035      -0.00618625
C       -1.28478059       6.43007791       3.65414331       0.00244985      -0.00330818      -0.00129880
C       -2.47759318       8.56672300       3.88459332       0.00455170       0.00277631      -0.00155855
C        4.94064666       0.00322359       3.80717612      -0.01045215       0.01268554       0.00918898
C        3.72430369       2.18037426       3.60247498       0.00629455      -0.00795543       0.00620985
C        1.11688999       6.40690642       3.33327258      -0.00440886      -0.00372748       0.00573509
C       -0.01416063       8.53524782       3.71546752      -0.00127794      -0.00016460      -0.01473063
C        7.41185748      -0.02891854       3.83936876      -0.00549332       0.00490597      -0.00226647
C        6.19625362       2.10174542       3.94482836       0.00049256       0.00392872      -0.00841445
C        5.01918578       4.22560668       3.92070121       0.00369100       0.00676250      -0.00345848
B        3.77790952       6.37450090       3.77479154       0.00251695       0.00487576       0.00262704
C        2.46359118       8.51527148       3.71746042       0.00065568      -0.00633167       0.00741245
C        9.87374029      -0.02376051       3.82164378       0.01087171       0.00015793      -0.01291848
C        8.65276904       2.11312859       3.92010681      -0.00404321       0.00759979      -0.00656356
C        7.44210593       4.25431675       4.10700005       0.00562040      -0.00846442      -0.00777582
C        6.21321889       6.40520623       4.09291014      -0.00165538       0.00501100       0.00910903
C        4.94650906       8.54280602       3.91916552      -0.00325085      -0.00777932      -0.00226883
C       -0.00939392       1.40686249       3.52076617      -0.00123764      -0.00777302       0.00128499
C       -1.27983956       3.55420647       3.49705946       0.00568890       0.00109583       0.01229804
C       -2.48011670       5.69885782       3.85774691       0.00615475      -0.00636675       0.00047293
C       -3.69848848       7.84654524       3.99042162      -0.00062625       0.00469786      -0.00157849
C       -4.92782479       9.98496892       3.84703338       0.00252443      -0.00162589       0.00113548
C        2.46520073       1.44200329       3.50046299       0.00232393      -0.00621822       0.00297482
S        1.04768863       3.44911661       2.17422031      -0.00735062      -0.00759878      -0.00400086
C       -0.09831216       5.72326674       3.30153959      -0.00473104       0.00449928      -0.01172918
C       -1.25274963       7.84846678       3.76595543       0.00480641      -0.00364254      -0.00022619
C       -2.46962323       9.98977653       3.82764397      -0.00322680       0.00474008       0.00330165
C        4.95248573       1.42471384       3.79534207       0.00286287       0.00445509       0.00556151
C        3.83720611       3.56002965       3.58530757       0.01230653      -0.00489019      -0.00286157
C        1.21898172       7.77997159       3.58739144      -0.00015432      -0.00621126       0.00048885
C        0.00302891       9.95455288       3.80361177      -0.01354373       0.00507387      -0.00436101
C        7.42672912       1.38964806       3.92884225      -0.00265769       0.00726871       0.00026769
C        6.23038263       3.51486781       4.05429396       0.00235196       0.00143546      -0.00615753
C        5.04421120       5.64378811       3.99110874      -0.00380859       0.01163387       0.00557075
C        3.70454787       7.85442746       3.80860799      -0.00315906      -0.00616411       0.00540087
C        2.46991553       9.93851248       3.80158482       0.00401501      -0.00040021       0.00157111
C        9.88437218       1.40780757       3.78974724      -0.00658726       0.00579235      -0.00236639
C        8.65803791       3.54076797       3.99136299       0.00924722       0.00023718      -0.00030000
C        7.44051967       5.68716276       4.12490684      -0.00169962      -0.00689448       0.00720679
C        6.18157709       7.83784505       4.02217014      -0.00485459       0.00142958       0.00463626
C        4.94208146       9.96393573       3.85757055       0.00729963      -0.01098600      -0.00158149
Au       2.50948292       4.98878029       3.13010651      -0.00905533       0.00517834       0.01186738
O        2.50157168       5.28490525       6.62172499       0.00104569      -0.00233019       0.01219388
O        2.35647295       5.00581107       7.93844988       0.00651745       0.01375154      -0.00260701
H        3.26025499       4.95011156       8.32281423      -0.00726357       0.00004505       0.00387369
