52
Lattice="12.336457 0.0 0.0 -6.168228499999997 10.683685154694365 0.0 0.0 0.0 15.0" Properties=species:S:1:pos:R:3:initial_magmoms:R:1:forces:R:3 energy=-448.644574765466 free_energy=-448.644574765466 stress="-0.0036318886606555786 0.005701958990608627 -2.493347682903016e-05 0.005701958990608627 -0.0002186242000239233 0.00010614170478466044 -2.493347682903016e-05 0.00010614170478466044 -8.534481101321042e-05" pbc="T T T"
C        0.03004888      -0.04198623       3.66022192       0.00000000       0.01443518       0.00702714      -0.01360139
C       -1.16985914       2.10591338       3.56878132       0.00000000      -0.01056786      -0.00174317       0.01111694
C       -2.39564440       4.23139729       3.59146546       0.00000000      -0.01182823       0.00138564      -0.00301056
C       -3.66517246       6.35786626       3.70636769       0.00000000       0.00465442       0.00254445      -0.01114639
C       -4.93500507       8.48989000       3.73584785       0.00000000       0.00440774      -0.02048023      -0.00384927
C        2.48739124      -0.03479696       3.75847525       0.00000000      -0.00814267      -0.00551770      -0.01589631
C        1.28428347       2.14033322       3.76786180       0.00000000       0.01641051      -0.00598892      -0.01417973
C        0.07635575       4.28891024       3.56972514       0.00000000       0.01902678      -0.01390551      -0.00396564
C       -1.21872305       6.38695500       3.50830371       0.00000000      -0.00856656      -0.00306374       0.01623075
C       -2.45859231       8.50682413       3.63766653       0.00000000      -0.00487274       0.00906099      -0.03050973
C        4.96839657      -0.05306246       3.68729423       0.00000000       0.00575562      -0.00112537      -0.01742254
C        3.76708490       2.06608078       3.93537399       0.00000000      -0.01141639       0.01357019      -0.00191468
B        2.60241467       4.27588764       4.15781341       0.00000000      -0.01829190      -0.00127449       0.01863824
O        1.10117378       6.45171964       3.11091552       0.00000000      -0.00798512       0.01504315      -0.01910407
C       -0.00167059       8.50937967       3.44403247       0.00000000      -0.00129133       0.00020086       0.00135332
C        7.44200454      -0.06229214       3.52030560       0.00000000      -0.00028092       0.00660553      -0.00928289
C        6.25415276       2.04144017       3.79827210       0.00000000      -0.00696712       0.00067647       0.00689183
C        5.08035657       4.13495476       4.10075394       0.00000000      -0.00204025       0.01983871       0.00833540
S        3.46901715       6.09145616       3.99279631       0.00000000      -0.00027524      -0.01496949       0.02472175
C        2.44846696       8.47909308       3.40184964       0.00000000       0.00504767       0.01281039       0.00618183
C        9.91070216      -0.05803303       3.51289908       0.00000000      -0.00272480      -0.01589245      -0.01158465
C        8.70681310       2.07654733       3.59973593       0.00000000      -0.00631037       0.00150177      -0.00808694
C        7.49776559       4.20077973       3.81208476       0.00000000      -0.00741677       0.01009850      -0.00616542
C        6.21686999       6.33548355       3.90395163       0.00000000       0.00936404       0.01066561      -0.00334057
C        4.92778556       8.46319941       3.66552003       0.00000000       0.00154892      -0.00426410       0.00966957
C        0.05041062       1.39360246       3.64994753       0.00000000       0.00753637       0.01340518      -0.00042533
C       -1.15899886       3.54137723       3.54954126       0.00000000      -0.00217438       0.00001804       0.01005874
C       -2.43031772       5.65162533       3.60861306       0.00000000      -0.00880760      -0.00221717      -0.01159841
C       -3.69237574       7.78576942       3.70039291       0.00000000       0.00528934      -0.00346507       0.00406425
C       -4.91632625       9.92556300       3.71755560       0.00000000       0.00182540      -0.01940020       0.01968966
C        2.50335223       1.39295854       3.83854565       0.00000000       0.00175720      -0.00426718      -0.01405467
C        1.28710151       3.58332956       3.77936265       0.00000000       0.01794281      -0.01332912       0.00936245
C       -0.00253304       5.70978579       3.43483662       0.00000000      -0.00640763      -0.00597149       0.00058033
C       -1.23701213       7.80494258       3.51707674       0.00000000      -0.00341818      -0.00169896       0.00699407
C       -2.45058675       9.93284727       3.69752263       0.00000000      -0.00423504       0.00653974       0.01620278
C        5.00328768       1.34988531       3.81811713       0.00000000      -0.00868863       0.00100021      -0.00334031
C        3.84529865       3.45991169       4.09134935       0.00000000      -0.00731295       0.01935068       0.01630630
C        1.18806069       7.81192443       3.32591120       0.00000000       0.00266742       0.01633073       0.00044309
C        0.02971156       9.92840069       3.54812715       0.00000000       0.00998432      -0.00281369      -0.01290439
C        7.47364418       1.35320501       3.62970713       0.00000000      -0.00223308       0.00381229       0.01091683
C        6.30098531       3.45048655       3.92808443       0.00000000      -0.00738910       0.00916118      -0.00167743
C        5.07704495       5.53795890       4.08460373       0.00000000       0.01313348       0.01854983      -0.00074883
C        3.66664257       7.79765595       3.61273482       0.00000000       0.00543691      -0.00482617       0.00744973
C        2.49517284       9.90975409       3.44488233       0.00000000      -0.00650487       0.00086567      -0.00096892
C        9.93281750       1.37481572       3.54038966       0.00000000      -0.01222282      -0.01547342      -0.00085284
C        8.71881545       3.50021799       3.66183748       0.00000000      -0.01008168       0.00413838       0.00406635
C        7.46446093       5.62714967       3.82061298       0.00000000       0.00572612       0.01146861      -0.00036767
C        6.16939150       7.76240720       3.77855547       0.00000000       0.00256679      -0.00512351       0.00528900
C        4.96210097       9.91093480       3.59440471       0.00000000       0.01005868      -0.00139009      -0.00625506
Au       2.42438388       5.71437708       6.14458653       0.00000000       0.02972795       0.00784564      -0.04575349
O        1.59877679       6.02939139       8.10854381       1.00000000       0.02305004      -0.02162217      -0.02698937
O        1.33983636       7.28325289       8.04879172       1.00000000      -0.02889949      -0.03369218       0.08443430
