52
Lattice="12.336457 0.0 0.0 -6.168228499999997 10.683685154694365 0.0 0.0 0.0 15.0" Properties=species:S:1:pos:R:3:forces:R:3 energy=-444.712038792594 free_energy=-444.712038792594 stress="-0.005249554100143456 -0.002241651024444183 3.208127290170922e-05 -0.002241651024444183 -0.001738126155623341 -1.6149670700461495e-05 3.208127290170922e-05 -1.6149670700461495e-05 -6.804432649975068e-06" pbc="T T T"
C        0.02387721      -0.12017272       3.80564770      -0.00655515       0.00245350       0.00284107
C       -1.22528187       2.00773827       3.93157141       0.01217693       0.00458026      -0.00939885
C       -2.48780586       4.14817484       4.11958007      -0.00465773       0.00069387      -0.00736858
C       -3.67527499       6.30129329       4.02776112      -0.00593083      -0.00306618       0.00774871
C       -4.89049223       8.44259870       3.88336711       0.00191290      -0.00096441      -0.00197973
C        2.50678847      -0.12331084       3.73481237      -0.00053950      -0.00008773       0.01088176
C        1.25382474       1.99477559       3.64493806       0.00738095      -0.00068617       0.00322959
C       -0.08221128       4.17384502       4.23272704       0.00061267      -0.00004674      -0.00242440
C       -1.23639207       6.29732376       4.30573292       0.00115243       0.00298203       0.00176960
C       -2.42426176       8.43374592       4.01073669      -0.00087834       0.00000214       0.00589722
C        4.96877626      -0.12385230       3.72968982       0.01490092       0.00170866      -0.00188450
C        3.72688967       1.93574203       3.22552764      -0.00051984       0.00993364       0.00354865
B        1.22833233       6.36207579       4.80592587       0.00247357       0.00875421       0.00705580
C        0.04985383       8.43340199       4.08577055       0.00163949      -0.00389201      -0.01251648
C        7.42826641      -0.12461398       3.78010346      -0.00032115       0.00011243      -0.00597770
C        6.19247202       2.02281915       3.52319857      -0.00215162      -0.00126308       0.00060275
C        5.08844680       4.24022090       3.17558510      -0.00155807      -0.00965494       0.00112680
N        3.85488384       6.34238661       3.45878127       0.00251838      -0.00356316       0.00567098
C        2.49925664       8.39941910       3.87473157      -0.00549343       0.00592690      -0.00485835
C        9.88925803      -0.12846246       3.79982499       0.00401766      -0.00212204       0.00698346
C        8.64715343       2.01461345       3.83650805      -0.00070863      -0.00509255       0.00059306
C        7.42825765       4.16597485       3.78399789      -0.01191413       0.00490500       0.00314807
C        6.23823001       6.32665996       3.71412565      -0.00122990       0.00759651      -0.00370896
C        4.97627827       8.42812022       3.75661350       0.00673752      -0.00353316       0.01223450
C        0.01497453       1.30357254       3.80616259       0.00688601       0.00286488       0.00254490
C       -1.26546870       3.42136391       4.12185953       0.00011901       0.00066468       0.00000732
C       -2.47278137       5.57596825       4.17507739      -0.00192586       0.00215298      -0.00311824
C       -3.66152235       7.72673544       3.98979070      -0.00119065      -0.00555189       0.00357309
C       -4.89983920       9.86168153       3.82074830      -0.00843509      -0.00013221       0.00293205
C        2.49961711       1.29324801       3.52435086       0.00400058       0.00238204       0.00465260
B        1.13128867       3.46050548       3.73171259      -0.00424006      -0.00769348      -0.00924035
C       -0.06533523       5.55759476       4.44226709       0.00443781      -0.00472067       0.00016190
C       -1.20029722       7.72775527       4.16794240      -0.00014962       0.00326247       0.00378314
C       -2.42893731       9.85230868       3.82518248       0.00937005       0.00312436      -0.00041366
C        4.96695216       1.29600699       3.47281877       0.00255320       0.00499598       0.00117556
S        3.75161698       3.46064508       2.38128400      -0.00832759      -0.01019030      -0.01227717
C        1.29495103       7.77023808       4.20654711      -0.00221793      -0.00298905      -0.01572712
C        0.03234844       9.85455882       3.85506425       0.01003262      -0.00794729      -0.01430213
C        7.41392083       1.31001162       3.70797062      -0.00423951      -0.00280481      -0.00497399
C        6.21084867       3.46230373       3.49670401      -0.00250987      -0.00462248      -0.00458138
C        5.03752675       5.64298710       3.42617346       0.00620410      -0.00396382      -0.00276043
C        3.76363353       7.68486135       3.69900946       0.00102742       0.00308050       0.00760965
C        2.49512473       9.83528247       3.79760035      -0.00205884       0.00603573       0.00239889
C        9.88075926       1.29636280       3.86657649       0.01099381      -0.00014605      -0.00841864
C        8.63662170       3.43818513       3.92792234      -0.00887533       0.00142174      -0.00607491
C        7.44151682       5.58899680       3.85155480      -0.00988827       0.00465331       0.00551264
C        6.21594091       7.73813566       3.79679885       0.00567160       0.00480731       0.00565070
C        4.95944082       9.84993502       3.80042555       0.00063400      -0.00640087       0.00719967
Au       2.22892033       5.06463773       3.25404455       0.00334556      -0.00140515       0.00868593
O        1.79619241       6.02363949       6.08195851      -0.00464713       0.00854414      -0.00133553
O        2.45672519       7.25232131       6.57019211      -0.00803019      -0.00918257       0.00039638
H        3.09062372       6.83062142       7.18512470      -0.01160493       0.00408352       0.00372468
