53
Lattice="12.336457 0.0 0.0 -6.168228499999997 10.683685154694365 0.0 0.0 0.0 15.0" Properties=species:S:1:pos:R:3:forces:R:3 energy=-457.61668912370345 free_energy=-457.61668912370345 stress="0.0015132838683132087 0.0032796342597227724 -3.240507242567164e-05 0.0032796342597227724 -0.005627622991212796 -7.438314774012265e-05 -3.240507242567164e-05 -7.438314774012265e-05 1.1645660615474377e-05" pbc="T T T"
C       -0.00444045      -0.01046735       3.80160106      -0.00826291      -0.00436325      -0.00316011
C       -1.21022687       2.15208904       3.74917756       0.00237115       0.00199441       0.00386067
C       -2.43130672       4.28419859       3.64872724       0.00399368       0.00682952       0.01742406
C       -3.69555955       6.40275724       3.64672353      -0.01005339       0.00024059       0.01155320
C       -4.95797251       8.52645497       3.74560063      -0.00910768       0.00230839       0.01272921
C        2.46074220      -0.01885996       3.70487763       0.00852603      -0.00769692       0.00131965
C        1.24693525       2.12627672       3.86799396      -0.00058172      -0.00135857      -0.00274698
C        0.04228991       4.29004291       3.84773166       0.00166092      -0.00317077      -0.00393366
C       -1.19062088       6.41646383       3.67003309      -0.00149917       0.00708437      -0.00370301
C       -2.47804733       8.53846680       3.61752034       0.00455938      -0.00354292       0.00307012
C        4.93608815      -0.00898696       3.53976675      -0.00057589      -0.00096952       0.00283796
C        3.72010771       2.09610272       3.68647480       0.00012264      -0.00259101       0.01401728
B        2.55933844       4.27217865       4.23086408       0.00594563       0.00059347       0.00398996
C        1.31360142       6.48880705       3.76625479      -0.00483595      -0.00628376       0.00721372
C       -0.01491973       8.56611237       3.57639210       0.00482838       0.00352547      -0.00368312
C        7.40683597       0.02045283       3.54523479      -0.00781294      -0.00349964       0.00050748
C        6.19171145       2.12323100       3.49637879      -0.00001664       0.00306706       0.00551509
C        4.97967050       4.22136275       3.66631006      -0.00293961      -0.00277479       0.00683644
P        3.17845415       6.14113938       4.20916354      -0.00179631       0.00757876      -0.01291967
C        2.44770563       8.61782456       3.76899041       0.00123835       0.00687447      -0.00615171
C        9.88290314       0.02449158       3.72165723       0.00446620      -0.00374285      -0.00278850
C        8.66191047       2.15063484       3.57301946       0.00801679       0.00063747      -0.00668905
C        7.43192132       4.27361583       3.55571784      -0.00537433       0.00238944       0.00442081
C        6.13068694       6.38666456       3.74142779      -0.00010209      -0.00641515       0.00507931
C        4.90049740       8.53134210       3.89249193       0.00325837      -0.00721016       0.00408448
C        0.00787325       1.41827915       3.81035308      -0.00362543      -0.00104104      -0.00489289
C       -1.19890333       3.57863640       3.74208454       0.00567065       0.00105749      -0.00416158
C       -2.43510841       5.70664428       3.65019425      -0.00238643       0.00592354       0.00037983
C       -3.71301353       7.82467042       3.67154266      -0.00542467       0.00112400      -0.00871596
C       -4.94513677       9.95154851       3.76149586      -0.00146914       0.00164662       0.00028903
C        2.47247525       1.39804882       3.76789157       0.00159770      -0.00763207       0.00240949
C        1.23981010       3.55091531       3.97557296       0.00648413       0.00047765       0.00200165
C        0.08522772       5.72669473       3.77113090      -0.01020138      -0.00487750      -0.01078564
C       -1.23408795       7.83559355       3.60470314       0.00715242       0.00716290      -0.00758901
C       -2.47263612       9.95876990       3.61045667       0.00807105      -0.00649026      -0.00169194
C        4.95543594       1.40171731       3.54441123      -0.00082289       0.00256136      -0.00745130
C        3.77703078       3.49170515       3.79304819      -0.00099209      -0.00134984       0.00934544
C        1.22449905       7.88486961       3.67929141       0.00436214      -0.00551421      -0.01614129
C        0.00184103       9.98111699       3.52895241      -0.00679676      -0.00099405       0.00238988
C        7.42430021       1.43235716       3.51329877       0.00075582      -0.00045413      -0.00264989
C        6.21349064       3.54017105       3.52459971      -0.00504239       0.00253515      -0.00032840
C        4.91483608       5.62900804       3.78428529       0.00977890      -0.00759845      -0.01242266
C        3.62297982       7.88028252       3.97879278       0.00154307       0.00857922       0.00219809
C        2.47255100      10.02066860       3.66075490      -0.00209933       0.00519900       0.00088802
C        9.89194286       1.44498215       3.67327969       0.00781575      -0.00058558      -0.00570303
C        8.67055622       3.57138874       3.57517883      -0.00056007       0.00515476       0.00119651
C        7.40005351       5.69305596       3.63891281      -0.00847279      -0.00331818       0.00866288
C        6.13791797       7.81653524       3.81337797      -0.00581338      -0.00650601      -0.00272814
C        4.92628545       9.96637524       3.81613690      -0.00196212      -0.00965123      -0.00342093
Au       2.80170502       5.35339043       6.37916004      -0.01001616      -0.00875313       0.00724411
O        2.53330976       4.76344379       8.37838378       0.00907919       0.01680792       0.00094663
O        2.62775973       5.95361973       9.12337663       0.00101628       0.01470755      -0.01168269
H        3.37000469       5.73766812       9.72063371       0.00632907       0.00232441       0.00373015
