53
Lattice="12.336457 0.0 0.0 -6.168228499999997 10.683685154694365 0.0 0.0 0.0 15.0" Properties=species:S:1:pos:R:3:forces:R:3 energy=-456.96836398633735 free_energy=-456.96836398633735 stress="-0.0020963753291177397 0.004079103101388187 3.1734473225541095e-05 0.004079103101388187 -0.00179023713060248 -5.772892169796067e-05 3.1734473225541095e-05 -5.772892169796067e-05 -1.877516940574694e-06" pbc="T T T"
C       -0.00773298       0.00573635       3.79151465      -0.00327215       0.00252512       0.00024833
C       -1.21563970       2.15437700       3.72442570       0.00493344       0.00713041      -0.00608243
C       -2.43851746       4.28703323       3.62759955       0.00073593       0.00213880      -0.00972136
C       -3.70172586       6.41575396       3.64479472       0.00024649      -0.00339349       0.00554849
C       -4.96105477       8.54591823       3.76020217       0.00176164      -0.00167687       0.00159013
C        2.45378702       0.01187793       3.69666292       0.00541905      -0.00935719       0.00307116
C        1.24608436       2.16939427       3.84130825       0.00072276       0.00653390       0.00227722
C        0.02900599       4.31220592       3.80040643      -0.00593333      -0.00128153       0.00572225
C       -1.23110620       6.43787459       3.62485905       0.00813985      -0.00098910       0.00987403
C       -2.49215842       8.56070224       3.60560343       0.00422144      -0.00276775      -0.00033004
C        4.92907849       0.00530273       3.53562841       0.00341668      -0.00029740      -0.00606272
C        3.71649327       2.12780329       3.66709346      -0.00442544      -0.00257846       0.00942345
B        2.57021770       4.35141794       4.18180939      -0.00614373      -0.01047818       0.00078292
N        1.18569982       6.48391785       3.72375857       0.00191529      -0.01335930       0.00008374
C       -0.03039567       8.56212048       3.55944368      -0.00561316       0.00197207      -0.00246043
C        7.40658184       0.00251055       3.53307132      -0.00665281      -0.00158785      -0.01443561
C        6.19731273       2.11901424       3.48868973      -0.00161126       0.00232054       0.00909968
C        5.00269662       4.21818431       3.70370686       0.00093440      -0.00001666      -0.00757286
P        3.38984490       6.14508086       4.41303942       0.00111370       0.00944052      -0.01131520
C        2.43467759       8.56718831       3.75318155      -0.00874951       0.00286396       0.01056711
C        9.87459365       0.00634559       3.69799193      -0.00232579       0.00249898      -0.00080716
C        8.66184872       2.14010227       3.55402733       0.00352210      -0.00485940       0.00502586
C        7.44000517       4.27095345       3.56590272       0.00395708      -0.00204621       0.00093476
C        6.16696887       6.39498250       3.80938866       0.00327834      -0.00344602      -0.00284714
C        4.89943627       8.52943123       3.90086990       0.00965611       0.00419734      -0.00403558
C        0.00806707       1.43917814       3.79065357       0.00184151       0.00653208      -0.00356244
C       -1.20410901       3.58680736       3.70841802      -0.00005295       0.00511520      -0.00415134
C       -2.45468510       5.71256115       3.62413866       0.00579536       0.00042597      -0.00152326
C       -3.72243398       7.84194556       3.67133296       0.00335811      -0.00310455      -0.00028302
C       -4.94836138       9.97470392       3.75993912      -0.00073294      -0.00270083       0.00272883
C        2.46711299       1.43507017       3.74611403      -0.00318071      -0.00694691       0.00416782
C        1.24535706       3.60893498       3.93748461      -0.00495214       0.00523940       0.00097738
C        0.02982639       5.76180734       3.71742880      -0.00099072      -0.00956497       0.01701675
C       -1.25594196       7.85289172       3.57719746       0.00190962       0.00000633      -0.00885127
C       -2.48329560       9.98408843       3.60592970       0.00880347      -0.00410424      -0.01051907
C        4.95166883       1.41634659       3.53598604      -0.00318774       0.00183119      -0.00011004
C        3.77649796       3.52581436       3.78029502       0.00088555      -0.00077299       0.01504558
C        1.18751614       7.84060417       3.66335731      -0.01015402      -0.01005810       0.00853641
C       -0.00572487       9.97972248       3.52175275      -0.00353945       0.00041794      -0.00018953
C        7.42687854       1.41932475       3.50042780      -0.00250975      -0.00156016      -0.00179402
C        6.22653891       3.53471538       3.53111403       0.00360821       0.00114530       0.00482935
C        4.98620337       5.61786955       3.90395616       0.00475447      -0.00400714       0.00143123
C        3.62407576       7.84795834       3.97995144       0.00729663       0.01329626      -0.00959048
C        2.46464192       9.98109869       3.63958825      -0.00743084       0.00283810       0.00080631
C        9.88862663       1.43326590       3.64892037       0.00683305       0.00311316       0.00372660
C        8.67126236       3.56570825       3.56472402       0.00124368      -0.00364778      -0.00284740
C        7.41449283       5.69422255       3.66519468      -0.00154058      -0.00310317      -0.00916145
C        6.14206353       7.82576195       3.85127703       0.00412339      -0.00234639      -0.00495690
C        4.92418634       9.96577642       3.80300885      -0.00220914       0.00421337       0.00263021
Au       2.76268636       5.34622209       6.49578992      -0.01036769       0.01296843      -0.00851197
O        2.25906478       4.75318819       8.43470628      -0.01748625      -0.00064403      -0.00587895
O        2.76947431       5.78053856       9.25687969       0.00838034       0.00270980       0.01486890
H        3.33996008       5.26277531       9.85820774       0.00025440       0.00922247      -0.00341281
