51
Lattice="12.336457 0.0 0.0 -6.168228499999997 10.683685154694365 0.0 0.0 0.0 15.0" Properties=species:S:1:pos:R:3:initial_magmoms:R:1:forces:R:3 energy=-442.23205172100955 free_energy=-442.23205172100955 stress="-0.003103581403515648 -0.003228233618867549 4.1496850889432885e-06 -0.003228233618867549 0.0014673156207272316 1.2517940760526936e-05 4.1496850889432885e-06 1.2517940760526936e-05 -2.3354245179110925e-05" pbc="T T T"
C       -0.13930279      -0.14205037       3.62472971       0.00000000      -0.00260873      -0.00652243       0.00785822
C       -1.39854171       1.97495029       3.52479610       0.00000000       0.00651630      -0.00505138      -0.00896527
C       -2.61145891       4.13200212       3.46890521       0.00000000       0.00301390       0.00038435       0.00943366
C       -3.81503759       6.28539590       3.50916455       0.00000000      -0.00088503       0.00136124      -0.00332757
C       -5.05063775       8.43160775       3.58501648       0.00000000       0.00435347       0.00250507       0.00654604
C        2.32085031      -0.09872568       3.69871681       0.00000000      -0.00184714      -0.00263972       0.00884868
C        1.03876119       1.99504328       3.66485784       0.00000000       0.00002190      -0.00158565      -0.00165696
C       -0.18323013       4.07182511       3.52104266       0.00000000       0.00261006       0.00439004       0.00942955
C       -1.35058960       6.25092877       3.59873202       0.00000000       0.00324643      -0.00385037       0.00141355
C       -2.58912505       8.42078641       3.63486234       0.00000000      -0.00218654       0.00461889       0.00720751
C        4.78603429      -0.11665349       3.79324729       0.00000000       0.00391260       0.00614377       0.00457614
C        3.52356802       2.03484898       3.99036038       0.00000000      -0.00656615      -0.00515993      -0.00559977
B        1.06780567       6.22321831       4.11960196       0.00000000       0.00281413       0.00353684       0.00576373
C       -0.13559770       8.40939459       3.81824921       0.00000000      -0.00623734       0.00027641       0.00189163
C        7.25736693      -0.13829051       3.78371215       0.00000000       0.00183405       0.00121489       0.00075222
C        6.01573281       2.01097804       3.79829354       0.00000000      -0.00343973      -0.00483388       0.00398742
C        4.88304416       4.18640914       3.94655238       0.00000000       0.00504347      -0.00086451       0.00235183
C        3.67358021       6.28800141       4.16084180       0.00000000       0.00660809      -0.00057300       0.00143473
C        2.33471056       8.39700391       3.94074459       0.00000000      -0.00071728      -0.00290365       0.00987577
C        9.72223841      -0.15528363       3.69141841       0.00000000      -0.01065948       0.00130655       0.00346245
C        8.48091873       1.99142317       3.60458873       0.00000000      -0.00323659       0.00418361       0.00686903
C        7.28375560       4.14811381       3.59461778       0.00000000      -0.00430628      -0.00329865      -0.00568577
C        6.07816716       6.31009974       3.64555776       0.00000000       0.00891234       0.00832255       0.00609767
C        4.81561411       8.40524050       3.74346329       0.00000000       0.00271085       0.00429213      -0.00629172
C       -0.16110323       1.27983925       3.59337482       0.00000000       0.00498333      -0.00720032      -0.00048742
C       -1.39379285       3.39057137       3.45607154       0.00000000       0.00469733      -0.00054230       0.00693014
C       -2.59366433       5.55576156       3.49473346       0.00000000       0.00116491      -0.00056319      -0.01562255
C       -3.81954814       7.71463762       3.55318802       0.00000000       0.00072020       0.00336892       0.01075516
C       -5.06476162       9.85627600       3.62596342       0.00000000      -0.00060585      -0.00140946      -0.00258603
C        2.29429608       1.33995575       3.80395125       0.00000000      -0.00327636      -0.00495791      -0.00234466
O        0.99638939       3.35273374       3.50131187       0.00000000      -0.00406013      -0.00240754      -0.01063910
C       -0.15462776       5.47923873       3.67135018       0.00000000       0.00988980       0.00405622       0.00012409
C       -1.35465556       7.68813156       3.68772975       0.00000000      -0.00542408      -0.00288370       0.00433747
C       -2.60909976       9.85623602       3.71561135       0.00000000       0.00279107       0.00612303      -0.00293664
C        4.76708135       1.32248415       3.87618928       0.00000000      -0.00327035       0.00043836       0.00407115
B        3.61620323       3.50998428       4.31104632       0.00000000      -0.00193735       0.00084901      -0.00807057
C        1.10161780       7.71363580       3.96635020       0.00000000      -0.00437573       0.00064300      -0.00688693
C       -0.14752202       9.84484016       3.80159605       0.00000000       0.00295682       0.00241850      -0.00132592
C        7.24864024       1.28747875       3.71848341       0.00000000      -0.00118843       0.00113758       0.00358489
C        6.05236645       3.43668427       3.76253713       0.00000000      -0.00329506      -0.00602958      -0.01260704
C        4.86857906       5.60512995       3.89686128       0.00000000       0.00679824       0.00340625      -0.00388701
C        3.58343911       7.66728721       3.95639245       0.00000000       0.00292454       0.00280360      -0.00980038
C        2.32588446       9.82341830       3.80492358       0.00000000      -0.00533832      -0.00540842      -0.00112177
C        9.71411470       1.27015342       3.59267553       0.00000000      -0.00350456       0.00157357      -0.00316659
C        8.49451537       3.42049748       3.53286890       0.00000000      -0.00172882       0.00276262       0.00202221
C        7.29404305       5.57586100       3.55210915       0.00000000       0.00022395      -0.00150885      -0.01214098
C        6.05609117       7.72239132       3.63628286       0.00000000       0.00683170       0.00646112      -0.00721390
C        4.79599737       9.81869655       3.67658614       0.00000000      -0.00847998       0.00096224      -0.01055874
Au       2.39593412       5.00599293       5.08983438       0.00000000      -0.00713263      -0.00096859      -0.01183988
O        5.49583225       7.69861742       6.59166379       1.00000000       0.01204643      -0.00266655      -0.01552178
O        6.08556144       8.76816939       6.45713648       1.00000000      -0.01131797      -0.00571077       0.04066005
