52
Lattice="12.336457 0.0 0.0 -6.168228499999997 10.683685154694365 0.0 0.0 0.0 15.0" Properties=species:S:1:pos:R:3:forces:R:3 energy=-448.6916746682901 free_energy=-448.6916746682901 stress="-0.007061422811477857 0.00016233058034816926 -0.00012284813685847667 0.00016233058034816926 -0.0027029302631513914 -3.7812548563484415e-05 -0.00012284813685847667 -3.7812548563484415e-05 0.00010178746461355369" pbc="T T T"
C        0.03698907       0.02899995       3.75729254       0.01964681       0.00718264      -0.00364836
C       -1.20169910       2.14166155       3.62035227      -0.02338087      -0.02565441       0.00022842
C       -2.43041907       4.28452309       3.45514838       0.00169246       0.01112090      -0.00153403
C       -3.65397967       6.43583714       3.48858293      -0.01355031      -0.00278202       0.00361176
C       -4.89213711       8.57892027       3.66761338      -0.03601174      -0.00778889      -0.01091654
C        2.50035770       0.03009205       3.80627375      -0.00031810       0.00713025      -0.01107139
C        1.26492259       2.19637406       3.91020319       0.01230805       0.01820131       0.01892943
C        0.00573691       4.27703894       3.70608013       0.00285921      -0.00763150       0.00228295
C       -1.21141730       6.44196216       3.55151060      -0.00914516      -0.00897530       0.01158149
C       -2.43802885       8.57677756       3.63539407       0.01489695       0.00368186       0.00311366
C        4.97612530       0.00686266       3.78396375      -0.00954037       0.01957867      -0.00974931
C        3.74401510       2.11780139       3.99417129      -0.01472789      -0.01896735       0.00099770
C        1.17672762       6.41022010       4.03161866      -0.02185564       0.00570885      -0.00768947
C        0.02962391       8.54873063       3.77840859       0.02294638      -0.02737863       0.00671780
C        7.44130840      -0.00048044       3.75828418      -0.00670962      -0.00617101      -0.02333707
C        6.21749695       2.13595968       3.73277937       0.01233169      -0.00967553       0.00495373
C        5.07487357       4.29928040       3.87777887      -0.00204391       0.01618846       0.00133618
B        3.78121083       6.40170017       4.19040795       0.05019026       0.01799442      -0.00522482
C        2.50149951       8.55012789       3.95654408      -0.00389625      -0.00619944      -0.01226010
C        9.90272745       0.00502253       3.74475338       0.00712209       0.00051943      -0.00403763
C        8.67441478       2.13533703       3.57770612      -0.00251288       0.04459775      -0.00162213
C        7.46806713       4.28568532       3.53166826      -0.00130493      -0.01264108       0.01453284
C        6.24339277       6.44152902       3.68531272       0.02383492      -0.00816703       0.00127621
C        4.98251667       8.56953734       3.84765462      -0.02966047      -0.01157947      -0.01568541
C        0.03108968       1.45252277       3.75403401       0.00430410       0.00543241       0.00413223
C       -1.21094852       3.56163883       3.53370190      -0.01104529      -0.01713756       0.02646772
C       -2.42963014       5.71648142       3.45875101      -0.01208345      -0.00041408       0.00317103
C       -3.66291184       7.86369692       3.57658787      -0.00496954       0.00263478       0.01493554
C       -4.89657259      10.00219578       3.74730266       0.01568327      -0.00816463      -0.00783704
C        2.50122761       1.45021829       3.93599900      -0.01479791      -0.01048016       0.00334150
C        1.17562791       3.59032657       4.01171304       0.01822194       0.02205667      -0.01942708
C        0.00477919       5.72615213       3.71536629       0.00083195       0.00385662       0.01330627
C       -1.20371342       7.86082602       3.64269735       0.02563148      -0.01045663      -0.02056333
C       -2.43417321       9.99497887       3.75052282       0.00328090       0.01710249      -0.01312019
C        4.98277155       1.42965145       3.84498955      -0.00600220       0.00949473      -0.00745824
B        3.79413905       3.59204879       4.18488679      -0.00581150      -0.01228564       0.01915674
C        1.26418892       7.80585633       3.93496112       0.01523930      -0.00684258       0.01869476
C        0.03912670       9.97177622       3.77165931      -0.01785821      -0.02351737       0.00346310
C        7.44337074       1.42214672       3.67256691       0.02252569       0.00464333      -0.00458785
C        6.24762407       3.56026826       3.68635020      -0.00970671      -0.00030120      -0.00134056
C        5.06973450       5.70214148       3.87789705       0.01394895       0.01670801       0.00926642
C        3.74291255       7.88009277       4.00744384      -0.02361600      -0.00044154      -0.00779485
C        2.50096124       9.97116200       3.81323223       0.00254564      -0.01317075       0.01134610
C        9.90126935       1.42319786       3.62535683      -0.03532407       0.01788722       0.00139453
C        8.68273102       3.56366985       3.48997763       0.00626545       0.03090535      -0.01881665
C        7.46648739       5.71702052       3.53263332      -0.00696979      -0.02977115      -0.00918902
C        6.21776437       7.86608158       3.72920198      -0.03132245      -0.02202765       0.02087619
C        4.97503427       9.99207719       3.77720262       0.00385209       0.00015584      -0.00684449
Au       2.43727198       4.99366097       4.84099883      -0.03647347      -0.00098551       0.07151310
O        1.49114102       4.17062657       6.65766512       0.09634781       0.03453690       0.00213329
O        1.82178603       4.91758725       7.78692857       0.10805214       0.00922984      -0.11970768
H        2.80424288       4.93312875       7.76592679      -0.11392078      -0.01694063       0.05070255
