52
Lattice="12.336457 0.0 0.0 -6.168228499999997 10.683685154694365 0.0 0.0 0.0 15.0" Properties=species:S:1:pos:R:3:forces:R:3 energy=-448.55990283814003 free_energy=-448.55990283814003 stress="-0.009099013310083642 0.001348977656572342 4.626209397600192e-05 0.001348977656572342 -0.0030055033488807256 3.94855024126244e-06 4.626209397600192e-05 3.94855024126244e-06 6.508413954163079e-05" pbc="T T T"
C        0.00172917      -0.00466910       3.66827504       0.00414575       0.00213412       0.01187271
C       -1.23624107       2.12227172       3.61156442      -0.00154436      -0.00676054      -0.00004092
C       -2.48421353       4.27053165       3.44012135      -0.00327328      -0.00067915       0.00999477
C       -3.70048730       6.41720498       3.43463377       0.00706466      -0.00256668      -0.00432910
C       -4.93099834       8.55653023       3.57593569      -0.00457366      -0.00175553       0.00276823
C        2.47299069       0.01584891       3.73325089       0.00178865       0.00031428       0.00230697
C        1.23404290       2.10315900       3.88080496       0.00622797       0.00969294       0.00605591
C       -0.09834973       4.30200671       3.75757823       0.00291851      -0.00376351      -0.00521709
C       -1.27008804       6.43538415       3.57594855      -0.00046774       0.00202951       0.00284774
C       -2.47761976       8.56604423       3.58738790      -0.00159585      -0.00085008       0.00450854
C        4.93983618       0.00404409       3.72423261      -0.00443472       0.00307761      -0.00602249
C        3.71716943       2.17704692       3.92017384      -0.00718907       0.00037733      -0.00781996
C        1.13637512       6.39248900       4.04896680      -0.00632720       0.00332043      -0.00157743
C       -0.01104975       8.53448473       3.76229390       0.00685615      -0.00574989      -0.00898809
C        7.40940662      -0.02547001       3.68476409      -0.00352743       0.00055757       0.00026122
C        6.19001061       2.10819300       3.63972166       0.00570215      -0.01037329      -0.00315926
C        5.00466536       4.23507399       3.79539284      -0.00125254       0.00726855      -0.00690223
B        3.78596874       6.38510572       4.06345462      -0.00472491      -0.00846954      -0.00755772
C        2.46550659       8.52418422       3.87840483       0.00410183      -0.00062904      -0.00259455
C        9.86955486      -0.02137792       3.65566194      -0.00072844       0.00585890       0.00517790
C        8.64219597       2.11247760       3.50920148       0.00416662       0.00981430       0.00345873
C        7.42107346       4.25781582       3.45577132      -0.00112071       0.00053516       0.00407590
C        6.20443437       6.40722121       3.59120035       0.01158703       0.00440099       0.00101168
C        4.94594400       8.54293362       3.72823357      -0.00849808      -0.00542864      -0.00369794
C       -0.00410547       1.41727196       3.71753036       0.00615607       0.00208351       0.00216988
C       -1.26325225       3.55209628       3.57297697      -0.00382809      -0.00564776       0.00620967
C       -2.48011020       5.70175237       3.44643895       0.00486939      -0.00329563       0.00164766
C       -3.70116235       7.84659615       3.51323963      -0.00050463      -0.00426175       0.00154082
C       -4.92826914       9.98070602       3.65841073       0.00759195      -0.00366728       0.00327589
C        2.47564882       1.43552696       3.87785361      -0.00377725      -0.00202970       0.00013071
B        1.15568784       3.57590412       4.05174623       0.01107641       0.00564260       0.00392572
C       -0.06256339       5.72410514       3.77703130       0.00002709       0.00079057       0.00490950
C       -1.24875630       7.85156224       3.63112030       0.00329929       0.00375374       0.00610897
C       -2.46787840       9.98492006       3.68554344      -0.00058373       0.00026650       0.00395789
C        4.95213230       1.42500241       3.76636549      -0.00351066       0.00074225      -0.00078933
C        3.80502278       3.56585851       4.05818446      -0.00286004       0.00444223       0.00239261
C        1.22386139       7.78213768       3.91548887       0.00798663      -0.00007105      -0.00514002
C        0.00187710       9.95554416       3.72344595      -0.00590908      -0.00659443      -0.00594187
C        7.41856276       1.39357921       3.58909213       0.01347657      -0.00159032       0.00387915
C        6.21175385       3.52442048       3.59117597      -0.00019863      -0.00336943      -0.00300738
C        5.03998909       5.65688476       3.77747447       0.00444575       0.01057447      -0.00613294
C        3.70750339       7.85708026       3.88971599      -0.00537226      -0.00953388       0.00661346
C        2.46830905       9.94340310       3.73042132      -0.00090108       0.00193134       0.01395652
C        9.87256185       1.40250623       3.56828595      -0.00440865       0.00916352      -0.00099816
C        8.64113607       3.54204599       3.43091484      -0.00223421       0.00596154      -0.00042056
C        7.42504502       5.68898260       3.45336546       0.00350266      -0.00182735       0.00144174
C        6.17796577       7.83732810       3.62515328      -0.00599537      -0.00030369      -0.00025341
C        4.93981163       9.96438915       3.67165581      -0.00439831       0.00109418      -0.00259669
Au       2.46895557       4.98046738       4.67081796      -0.00238179      -0.00609358      -0.01091412
O        1.99080289       5.08597773       7.56162249      -0.01694875       0.00077637      -0.00434369
O        2.49877047       4.96245413       8.81689776       0.00557665      -0.00263630      -0.00052063
H        3.47751103       4.97198891       8.72284394      -0.00949727       0.00134351      -0.01753490
