52
Lattice="12.336457 0.0 0.0 -6.168228499999997 10.683685154694365 0.0 0.0 0.0 15.0" Properties=species:S:1:pos:R:3:forces:R:3 energy=-445.2558108257547 free_energy=-445.2558108257547 stress="-0.008277773116268683 -0.0006282627350754102 4.225684497767963e-05 -0.0006282627350754102 -0.0010003738919923144 1.8139584967345237e-05 4.225684497767963e-05 1.8139584967345237e-05 2.8620213768356695e-06" pbc="T T T"
C       -0.00011818       0.00670157       3.87901798       0.01092654       0.00699308       0.00410206
C       -1.25368735       2.10516843       4.09448587      -0.00668827      -0.00156332       0.01415122
C       -2.49897586       4.26252267       4.20072212      -0.00826636       0.00574266      -0.01037878
C       -3.70895488       6.41851659       4.03258097      -0.00494789       0.00668122       0.00406270
C       -4.93287053       8.56025237       3.81432358       0.00235130      -0.00243085       0.00262091
C        2.46970775       0.04453718       3.78450245      -0.00079817      -0.00442172       0.00629953
C        1.21016920       2.16786540       3.74265656       0.00088755      -0.00078381       0.00153306
C       -0.09131365       4.23330909       3.91482339       0.00053197      -0.00464114       0.00898318
C       -1.27589091       6.41360394       3.97720862      -0.00426356       0.00293195       0.01137069
C       -2.47038258       8.56413972       3.89857808      -0.00072653       0.00817363       0.00201214
C        4.93733194       0.00685326       3.80327792      -0.00421584      -0.00319808       0.00498391
C        3.72323434       2.17919289       3.55972952      -0.00328584      -0.00197806      -0.00036684
B        1.12615793       6.36338735       3.44250850       0.00701782       0.00191600       0.00040735
C       -0.00214880       8.53874864       3.73822022      -0.00029730      -0.00952596       0.00162376
C        7.40615457      -0.02292399       3.87429572      -0.00224156      -0.00166077      -0.00136432
C        6.18517204       2.11605494       3.84136311       0.00817901      -0.00860531       0.01262042
C        5.04867949       4.23898193       3.35820464       0.00107822       0.00504295      -0.00397552
S        3.89035962       6.49087506       2.24971456       0.00113528      -0.00338710       0.01094932
C        2.48198517       8.54300130       3.50525506       0.00342695       0.00504445      -0.00375254
C        9.86640805      -0.02398025       3.91431275       0.00193903       0.00449223      -0.00281293
C        8.62859499       2.11006124       4.10246873       0.01199439       0.00095222      -0.00055217
C        7.41690757       4.26517096       3.97212547      -0.00086787      -0.00711624      -0.00293615
C        6.22056287       6.40959941       3.58048817       0.00279008       0.00425123      -0.01211467
C        4.95651323       8.55685255       3.56465631      -0.00603529       0.00278452       0.00797684
C       -0.01746242       1.42246957       3.93535886      -0.00073377       0.00719656       0.00664461
C       -1.28749761       3.52320350       4.15742937      -0.01052525      -0.00064650       0.00031667
C       -2.49770296       5.69558828       4.12562168      -0.00792470       0.00583418      -0.00145733
C       -3.70102973       7.84660471       3.92768900       0.00362156       0.00662896      -0.00085312
C       -4.92867709       9.99590504       3.82451861       0.00663428      -0.00465510      -0.00173224
C        2.46808063       1.46853785       3.67073749      -0.00353342      -0.00607150      -0.00106959
C        1.07160851       3.54138765       3.60286553       0.00359267       0.00029636      -0.00594763
C       -0.10996494       5.65204684       3.83400948      -0.00146722      -0.00075421      -0.00577555
C       -1.24181192       7.84077925       3.87149682      -0.00466109       0.00222056       0.00893232
C       -2.46970453       9.99289890       3.81955867      -0.00375267       0.00190733      -0.00251039
C        4.95254426       1.42690873       3.73602950       0.00126245      -0.00453461       0.00290719
C        3.84961853       3.54117147       3.28559263       0.00641231      -0.00157776      -0.01533972
C        1.23360276       7.84529037       3.52793011       0.00862566       0.00073052      -0.00062192
C       -0.00001813       9.96453570       3.81042713      -0.00506558      -0.01026530      -0.00060615
C        7.40800389       1.39643118       3.97280132       0.01649275      -0.00099413      -0.00033959
C        6.22333788       3.53563646       3.75578975      -0.00230568      -0.00447832       0.00453643
C        5.13619079       5.65072429       3.13140168      -0.00376908       0.00825511      -0.00143912
C        3.73427441       7.92195044       3.23510244      -0.00354051      -0.00020400      -0.01327928
C        2.47334078       9.95051681       3.79316671       0.00016544       0.00616681      -0.00991414
C        9.85444560       1.39099560       4.08408127       0.00035633      -0.00217641       0.00114935
C        8.62328524       3.54152974       4.14946284       0.00095084      -0.00256727      -0.01175031
C        7.41691596       5.69315630       3.91229980      -0.00077436      -0.00378558      -0.00693550
C        6.18996604       7.84430884       3.62689353      -0.00178445       0.00324002      -0.01008317
C        4.93763812       9.96700134       3.82120814       0.00578972       0.00780217       0.00634660
Au       2.38713821       4.85751633       2.92543068       0.00572614      -0.00227964       0.00390590
O        2.13457087       4.73627902       6.54940330      -0.00944425      -0.00368889       0.00453584
O        2.32320607       4.97274051       7.86874597      -0.00234939      -0.00970794      -0.00510545
H        3.29025730       4.90928558       8.04164549      -0.00762243       0.00241475       0.00004210
