51
Lattice="12.336457 0.0 0.0 -6.168228499999997 10.683685154694365 0.0 0.0 0.0 15.0" Properties=species:S:1:pos:R:3:initial_magmoms:R:1:forces:R:3 energy=-442.78812681590597 free_energy=-442.78812681590597 stress="-0.0013763901090749872 4.584222568398955e-05 -2.577415992045082e-05 4.584222568398955e-05 0.009733642472580168 2.2450541775748955e-05 -2.577415992045082e-05 2.2450541775748955e-05 0.00017989255114266115" pbc="T T T"
C       -0.05818577       0.07725845       3.78939948       0.00000000      -0.01343864      -0.06548136       0.02077979
C       -1.31413640       2.17134059       3.84130133       0.00000000      -0.00988335       0.02297525      -0.04309795
C       -2.56268219       4.31600519       3.73400731       0.00000000      -0.02909432      -0.00298265      -0.04957136
C       -3.78163382       6.46495242       3.61458269       0.00000000       0.01042656       0.02656637       0.03045443
C       -5.00364741       8.61728885       3.65596106       0.00000000       0.02123957      -0.00918387      -0.00024831
C        2.41011100       0.11525787       3.77499892       0.00000000       0.01002632       0.05889642      -0.05473458
C        1.17835942       2.27843844       4.01566801       0.00000000      -0.01057262       0.00032896      -0.00291410
C       -0.12853024       4.31544978       4.07047858       0.00000000       0.01912962      -0.02453285       0.00750354
C       -1.33987562       6.47099473       3.81089002       0.00000000       0.00256241      -0.00274207      -0.01752531
C       -2.54479391       8.61914199       3.70155740       0.00000000      -0.01641975       0.01477434       0.05877900
C        4.87358627       0.05250398       3.71349540       0.00000000      -0.01420835      -0.02479848       0.00038682
C        3.67463445       2.21883891       3.63665843       0.00000000       0.03581045       0.00869483      -0.02498063
C        1.04075721       6.44121931       4.34707465       0.00000000      -0.00752897      -0.01022791      -0.03256304
C       -0.06560748       8.56396402       3.86525945       0.00000000      -0.00167154       0.02687809      -0.04364458
C        7.34652012       0.00470724       3.74212307       0.00000000       0.02737140      -0.01615212       0.01318950
C        6.10891055       2.17181445       3.58338365       0.00000000       0.00307269       0.00749958       0.04072356
C        4.89329496       4.31638766       3.41295841       0.00000000      -0.00862336      -0.00824469       0.00873001
O        3.73248601       6.48736851       3.41797152       0.00000000       0.00137701       0.04102592      -0.01594514
C        2.43180654       8.50299799       3.84209991       0.00000000      -0.00058588      -0.02250322       0.00685676
C        9.80126978       0.01189357       3.76645429       0.00000000      -0.01970031      -0.00264401      -0.01603754
C        8.56532875       2.16325129       3.70039652       0.00000000      -0.00778080      -0.04085898      -0.01658198
C        7.32553129       4.31606949       3.57161451       0.00000000       0.04321043       0.02614888      -0.01966591
C        6.09934119       6.45161214       3.51208803       0.00000000      -0.00994675      -0.00632575       0.00840019
C        4.88063411       8.58246968       3.68405727       0.00000000      -0.00106076       0.00551187      -0.04656826
C       -0.05906845       1.50551135       3.88718997       0.00000000      -0.02510007      -0.04418084       0.02902187
C       -1.34088323       3.59358299       3.84495296       0.00000000      -0.01227568       0.02558704       0.00541682
C       -2.56217570       5.74727756       3.70195570       0.00000000      -0.01091115       0.00210480       0.01798622
C       -3.77170550       7.90075134       3.63918271       0.00000000       0.00698153      -0.00121070       0.04513368
C       -4.99075902      10.05925702       3.74833178       0.00000000       0.03015102      -0.00748200       0.00851234
C        2.43354337       1.55823930       3.83178041       0.00000000       0.01776042       0.06083717      -0.02275343
C        1.05533311       3.63748645       4.32486986       0.00000000       0.02026227      -0.03054337       0.07338324
C       -0.13402901       5.75392443       4.06585616       0.00000000      -0.00215316      -0.03546015      -0.00239317
C       -1.31459118       7.89257751       3.78736916       0.00000000      -0.01622340       0.01145474       0.00152445
C       -2.53685866      10.05137233       3.73126123       0.00000000      -0.02966355       0.01148797      -0.02416487
C        4.87686644       1.48044186       3.63212195       0.00000000       0.01402515      -0.01475009       0.00506736
O        3.72312726       3.57363138       3.40509707       0.00000000      -0.01596184      -0.01804981       0.03640797
C        1.17023540       7.79514069       4.00929824       0.00000000      -0.01634520      -0.01266350       0.01247809
C       -0.06046412       9.99161205       3.76700481       0.00000000       0.01670280       0.02950466      -0.01641152
C        7.33362738       1.44587292       3.66774762       0.00000000      -0.00455598      -0.02487269      -0.00592464
C        6.09695625       3.60572509       3.51199940       0.00000000       0.02151871       0.02855295      -0.00024114
C        4.90130768       5.74117918       3.40955683       0.00000000      -0.01792238       0.00532080       0.03766933
C        3.67885913       7.84688737       3.66880244       0.00000000       0.01635285       0.01099033      -0.00337177
C        2.41217489       9.94731471       3.77444818       0.00000000       0.01509979      -0.02170887       0.04072276
C        9.79202139       1.44491568       3.76723188       0.00000000      -0.00214298      -0.00283733      -0.00580129
C        8.55499726       3.59604513       3.66626002       0.00000000      -0.00187568      -0.03852563      -0.02472825
C        7.32743126       5.73771034       3.55672790       0.00000000       0.02376978       0.04038539       0.00126174
C        6.11110465       7.88657473       3.60661849       0.00000000       0.00020735       0.00170973       0.00002608
C        4.87535262      10.01598606       3.75516576       0.00000000      -0.03713341      -0.01992175       0.00076524
Au       2.24298814       5.08237671       5.25013262       0.00000000      -0.07235410       0.03881553       0.23893547
O        4.22590527       3.12476935       5.98240343       1.00000000      -0.03759623       0.11487574       0.04317891
O        3.88494904       4.29418499       6.38387402       1.00000000       0.09567209      -0.11204267      -0.30342639
