51
Lattice="12.336457 0.0 0.0 -6.168228499999997 10.683685154694365 0.0 0.0 0.0 15.0" Properties=species:S:1:pos:R:3:initial_magmoms:R:1:forces:R:3 energy=-437.30194325070113 free_energy=-437.30194325070113 stress="-0.001818902999691493 -0.0020806894984212215 -6.511145762283888e-06 -0.0020806894984212215 -0.002943823388753883 -7.179894576137521e-06 -6.511145762283888e-06 -7.179894576137521e-06 -5.3585123661376486e-06" pbc="T T T"
C       -0.05520434       0.01257375       3.60240723       0.00000000       0.00032923       0.00128833       0.00279875
C       -1.29433247       2.15577966       3.52807676       0.00000000      -0.00587502      -0.00001660       0.01535550
C       -2.52985360       4.29388776       3.62713859       0.00000000       0.00686598       0.00163726       0.00095601
C       -3.74742048       6.43148372       3.61706791       0.00000000      -0.00123300       0.00409861       0.00395781
C       -4.98071131       8.56281800       3.61080777       0.00000000       0.00022379       0.00592243       0.00611877
C        2.41276469      -0.02732891       3.77978671       0.00000000       0.00359899       0.00424358       0.00343854
C        1.20031859       2.08506721       3.47463234       0.00000000      -0.00171830      -0.00502301      -0.00180337
C       -0.07195996       4.34276665       3.60397338       0.00000000       0.00158210      -0.00320326      -0.00015759
C       -1.30403528       6.44082185       3.82391337       0.00000000      -0.00048638      -0.00135836       0.00466376
C       -2.51502715       8.56008713       3.79966278       0.00000000       0.00296168      -0.00257519       0.00568453
C        4.88709790       0.00917833       3.90187765       0.00000000      -0.00543642      -0.00162757       0.00351108
C        3.60994262       2.08962724       3.99625450       0.00000000       0.00645397       0.00403781       0.00564380
C        1.08408667       6.43525176       4.36192944       0.00000000       0.00167820      -0.00428319       0.00468082
C       -0.03890740       8.54865642       3.94799120       0.00000000      -0.00051418       0.00058843       0.00007548
C        7.35281925       0.01129593       3.83181420       0.00000000      -0.00062412      -0.00064616       0.00228082
C        6.09597355       2.17899150       3.79451628       0.00000000       0.00013179      -0.00269624       0.01430030
C        4.88735659       4.41532630       3.58461287       0.00000000       0.00155165      -0.00276025       0.00211213
O        3.74509029       6.52424582       3.40623572       0.00000000      -0.00749709      -0.00873049       0.00170501
C        2.44986988       8.52115095       3.86431698       0.00000000       0.00022611       0.00564630      -0.00457251
C        9.80802253       0.01025926       3.67168128       0.00000000       0.00763844       0.00625628      -0.00441141
C        8.56959050       2.15594034       3.65987409       0.00000000      -0.00428295       0.00028720       0.00969306
C        7.33714167       4.30289110       3.57970947       0.00000000       0.00399169      -0.00009542       0.00105380
C        6.14563191       6.46655900       3.42254757       0.00000000      -0.00398724       0.00356808      -0.00086465
C        4.89660555       8.57691434       3.59212415       0.00000000      -0.00473798      -0.00277918       0.00640677
C       -0.05731129       1.43652940       3.52060883       0.00000000      -0.00651308      -0.00099929      -0.00883242
C       -1.28274489       3.58922306       3.57115165       0.00000000       0.00180222      -0.00171043      -0.00682437
C       -2.52444625       5.71754713       3.68671673       0.00000000       0.00089519       0.00256184      -0.01287785
C       -3.74233819       7.85246616       3.66912045       0.00000000       0.00094908       0.00447474       0.00798885
C       -4.99048459       9.97732501       3.66548814       0.00000000       0.00387723       0.00634756      -0.00366661
C        2.40250868       1.38235946       3.77575650       0.00000000       0.00694510       0.00429808      -0.00500392
P        1.42863376       3.72460963       2.85452040       0.00000000       0.00202077      -0.00800428      -0.00040353
C       -0.06128797       5.74055438       3.91603560       0.00000000      -0.00334825      -0.00567807       0.00898711
C       -1.28144327       7.85337012       3.87655195       0.00000000       0.00323301      -0.00105308      -0.00560607
C       -2.51163578       9.97323298       3.85008399       0.00000000      -0.00126151      -0.00336073      -0.00600217
C        4.87292660       1.44603078       3.92215924       0.00000000       0.00063996      -0.00280270      -0.00325342
P        3.33081829       3.81435213       4.15768927       0.00000000      -0.00225846       0.00184091      -0.00291529
C        1.20137545       7.79360937       4.05895598       0.00000000       0.00052700       0.00046729      -0.01033922
C       -0.04451060       9.97886937       3.89688849       0.00000000      -0.00442293       0.00010628       0.00318052
C        7.33348459       1.44901546       3.76073758       0.00000000      -0.00307632      -0.00291752       0.00353673
C        6.08453348       3.61585051       3.64858385       0.00000000       0.00212121      -0.00386795      -0.00914139
C        4.92868404       5.80702697       3.40914544       0.00000000      -0.00340220      -0.00387181      -0.00127482
C        3.69271438       7.87207732       3.64392567       0.00000000      -0.00685560      -0.00549018      -0.00325714
C        2.42144841       9.95777302       3.78922232       0.00000000       0.00645103       0.00761587      -0.00180898
C        9.80861801       1.44443918       3.61784758       0.00000000      -0.00578225       0.00385402      -0.00424900
C        8.57259334       3.58235600       3.61772185       0.00000000       0.00587092       0.00005071      -0.00615659
C        7.36097064       5.72244339       3.51879386       0.00000000      -0.00163959       0.00219442      -0.00222705
C        6.13317018       7.87416428       3.51505969       0.00000000      -0.00132928       0.00478506      -0.00930581
C        4.87692155       9.99692376       3.62661893       0.00000000       0.00330368      -0.00184252       0.00532433
Au       2.32031503       5.31213773       5.62578376       0.00000000      -0.00038063      -0.00068996      -0.01246295
O        3.56124975       4.31226072       7.95198510       1.00000000       0.00424285       0.00199571       0.01479288
O        3.73936104       4.20678182       6.66907906       1.00000000      -0.00345010      -0.00008335      -0.01082900
