51
Lattice="12.336457 0.0 0.0 -6.168228499999997 10.683685154694365 0.0 0.0 0.0 15.0" Properties=species:S:1:pos:R:3:initial_magmoms:R:1:forces:R:3 energy=-433.6760706074935 free_energy=-433.6760706074935 stress="-0.002149004730457456 -0.0010438606168201793 -1.2382302656058773e-05 -0.0010438606168201793 -0.005900547802667562 -1.4544159225308073e-06 -1.2382302656058773e-05 -1.4544159225308073e-06 6.154840871240576e-05" pbc="T T T"
C       -0.00897725      -0.09034638       3.98191922       0.00000000       0.00725116       0.00089181       0.00292466
C       -1.24112230       2.06816758       3.86285576       0.00000000       0.00414869       0.00185882      -0.00444609
C       -2.49308529       4.19455915       3.58623038       0.00000000      -0.01012994       0.00554056      -0.00220575
C       -3.71763379       6.33031028       3.62972373       0.00000000       0.00053315       0.00038885      -0.00025927
C       -4.93485630       8.45612120       3.85553057       0.00000000      -0.00330151       0.00597216      -0.00526427
C        2.46925502      -0.13646948       3.87368642       0.00000000       0.00075709       0.00186881       0.00655208
C        1.25446222       1.99356486       4.03571308       0.00000000      -0.00062925      -0.00024527      -0.00316123
C       -0.05887568       4.22828589       3.40328986       0.00000000      -0.00250764       0.00083884       0.00272331
C       -1.27618838       6.34205896       3.27143920       0.00000000       0.01251145       0.00023486       0.00501742
C       -2.46217407       8.44651847       3.60961553       0.00000000       0.00257725      -0.00610377      -0.00116649
C        4.92773212      -0.09480584       3.67097464       0.00000000      -0.00480226      -0.00454575       0.00023933
C        3.66484970       1.97044322       3.58414424       0.00000000      -0.00219097      -0.00079603       0.00452117
S        1.39441010       6.32657761       2.56287963       0.00000000      -0.01117762      -0.00040977       0.00084755
C       -0.00340558       8.47222801       3.46619355       0.00000000       0.00540978      -0.00155930       0.00171989
C        7.38822054      -0.06913590       3.72830448       0.00000000       0.00105174      -0.00073968       0.00162590
C        6.14133330       2.06966244       3.60450851       0.00000000       0.00149529       0.00268914       0.01411055
C        4.93683089       4.25664438       3.58195947       0.00000000      -0.00083352      -0.00295672      -0.00310308
C        3.73003290       6.35388200       4.22508008       0.00000000      -0.00404933       0.00336586      -0.00758350
C        2.45470401       8.48069690       3.78853190       0.00000000      -0.00511919      -0.00766936       0.00770206
C        9.85747766      -0.06709178       3.92077968       0.00000000       0.00424116      -0.00121822       0.00130200
C        8.61862087       2.06503122       3.74835597       0.00000000       0.00227554       0.00657723       0.00523836
C        7.38041503       4.20254044       3.67213991       0.00000000      -0.00460714       0.00099937      -0.00595751
C        6.16685796       6.34612124       3.83494262       0.00000000      -0.00195389      -0.00497666       0.00495754
C        4.92665148       8.46673692       3.97020367       0.00000000       0.00070692       0.00127916      -0.00138296
C       -0.00806292       1.34349691       3.99006505       0.00000000       0.00389528      -0.00203988      -0.00038120
C       -1.25652488       3.47914935       3.63162960       0.00000000      -0.00764256       0.00529575      -0.00353908
C       -2.49899697       5.61621487       3.48216053       0.00000000       0.00475282       0.00642363      -0.00640707
C       -3.70654202       7.74661132       3.69557800       0.00000000      -0.00366325       0.00007766      -0.00817732
C       -4.94451687       9.86811218       3.92750885       0.00000000       0.00336917       0.00482025       0.00713028
C        2.46972507       1.27926046       3.88307383       0.00000000      -0.00291604       0.00000729      -0.00362393
P        1.45370165       3.71927793       4.14018778       0.00000000       0.00146000      -0.00936097       0.00756282
C       -0.10174040       5.59653951       3.07066754       0.00000000       0.00627678       0.00008150       0.00026732
C       -1.23727363       7.75481687       3.40248282       0.00000000       0.00986266      -0.00510388       0.00293611
C       -2.46389714       9.86284712       3.72411331       0.00000000      -0.00384499      -0.00585835       0.00324317
C        4.91967388       1.33992898       3.61858042       0.00000000      -0.00104502       0.00000299      -0.00831989
S        3.47881846       3.57556006       2.92349925       0.00000000      -0.00435537       0.00348760      -0.00148704
C        1.26156126       7.83879723       3.37660216       0.00000000      -0.00038603      -0.00311862      -0.00995719
C       -0.00432631       9.89298971       3.63680599       0.00000000      -0.00155839      -0.00148316       0.01414591
C        7.37622962       1.36167949       3.70343126       0.00000000       0.00326190       0.00332978       0.00144704
C        6.13033811       3.49756658       3.61326697       0.00000000      -0.00021095      -0.00104022       0.00034418
C        4.90627551       5.65325503       3.87817011       0.00000000      -0.00605209      -0.00451317       0.00112454
C        3.68267767       7.72764751       3.98844509       0.00000000      -0.00094762      -0.00253248      -0.00332664
C        2.45402067       9.90500958       3.83753646       0.00000000       0.00169614      -0.00458563      -0.00367496
C        9.85892339       1.35741748       3.85771028       0.00000000       0.00568767       0.00251035      -0.00252026
C        8.61339128       3.48612867       3.67615600       0.00000000      -0.00751708       0.00459805      -0.00723830
C        7.38572453       5.62326930       3.71313627       0.00000000      -0.00053300      -0.00045637       0.00050847
C        6.16347547       7.75986739       3.91060659       0.00000000      -0.00190605      -0.00009850      -0.00377574
C        4.92220093       9.89323007       3.96702360       0.00000000       0.00698793       0.00257766      -0.00133137
Au       2.39488179       5.30026177       5.52727064       0.00000000      -0.00125669       0.00717563       0.05120353
O        2.20103136       7.01875152       7.88697129       1.00000000       0.00193343      -0.00206371      -0.05017777
O        3.16302971       6.66651642       7.13187018       1.00000000       0.00299443       0.00058186      -0.00092727
