52
Lattice="12.336457 0.0 0.0 -6.168228499999997 10.683685154694365 0.0 0.0 0.0 15.0" Properties=species:S:1:pos:R:3:forces:R:3 energy=-438.6533666100272 free_energy=-438.6533666100272 stress="-0.0007825606294802172 -0.0004448405525495402 -8.062439737160219e-07 -0.0004448405525495402 -0.0027020980789647284 -1.64769396837444e-07 -8.062439737160219e-07 -1.64769396837444e-07 1.8976991381556894e-05" pbc="T T T"
C        0.17736964      -0.02556341       3.84593931       0.00541260       0.00015244      -0.00337263
C       -1.05737705       2.11554417       3.63468841       0.00054314       0.00177139      -0.00239508
C       -2.31657389       4.25609329       3.64696224       0.00446974       0.00221959      -0.00053107
C       -3.53301281       6.39331756       3.80753752       0.00205219       0.00016372       0.00317585
C       -4.74757948       8.52582791       3.90502951      -0.00478751      -0.00956086       0.00016239
C        2.64870528      -0.04000763       3.91953031      -0.01056175       0.00148449      -0.01025367
C        1.43329245       2.04454863       3.59403885       0.00265538      -0.01104636      -0.01418792
C        0.05569223       4.26905008       3.10805753      -0.00167820       0.00036405      -0.00028466
C       -1.09712753       6.40948049       3.40589381       0.00295341      -0.00414173       0.00132431
C       -2.27563704       8.52136954       3.76131374       0.00632247       0.00857505      -0.00318381
C        5.11570204      -0.02036867       3.97417578      -0.00130398      -0.00139990       0.00280220
C        3.85673223       2.07928414       4.28482724       0.00620779      -0.00875262      -0.00037158
S        1.53962081       6.42786004       2.59623194      -0.00554205       0.00529567       0.00534089
C        0.17939233       8.54546019       3.63038017       0.00355474       0.00482779      -0.00114244
C        7.57954353      -0.00996350       3.94889309       0.00328211       0.00254620       0.00788934
C        6.34818045       2.12449675       4.20299140      -0.00715196       0.00125596      -0.00417470
C        5.18307288       4.30176477       4.58640433      -0.00421414      -0.00623668      -0.00679334
C        3.93789747       6.46699598       4.57944381       0.00060101      -0.00564027      -0.00761482
C        2.64416214       8.53156792       3.90084159       0.00238053      -0.00822883       0.00344517
C       10.05308444      -0.01120166       3.91829766       0.00200211      -0.00451235       0.00123605
C        8.81264167       2.12527055       3.91559722      -0.00073597       0.00409318       0.00601254
C        7.58419449       4.26304461       4.05344443      -0.00087676       0.00089676       0.00333176
C        6.36271813       6.41218428       4.13610281      -0.00400289      -0.00189634       0.00060097
C        5.11794821       8.52502859       4.03386803      -0.00099535       0.00938458       0.00032561
C        0.17638067       1.39869752       3.67996305       0.00170181      -0.00012360       0.00154463
C       -1.09007167       3.53045597       3.46497013       0.00015521       0.00158982      -0.00476624
C       -2.31786284       5.68140536       3.61780416       0.00326105      -0.00080679       0.00337227
C       -3.51931744       7.81430436       3.81921493       0.00421711       0.00078624       0.00360600
C       -4.75557918       9.94390824       3.87879041      -0.00543889      -0.00798076       0.00744336
C        2.64379395       1.37841405       3.96378508      -0.00170498      -0.00012106       0.00925764
S        1.59485984       3.54042454       2.77485097      -0.00689720       0.00308228       0.00375292
C        0.04228602       5.66904480       3.05377316      -0.00008414      -0.00007660      -0.00429655
C       -1.05232018       7.82453222       3.56993566       0.00678059      -0.00061653       0.00211747
C       -2.27791233       9.94075547       3.90009090      -0.00664591       0.01038638      -0.00275968
C        5.11234601       1.40312852       4.17933551      -0.00124146      -0.00689033       0.00128071
P        3.82503269       3.50098095       5.32063910       0.00355391      -0.00636479      -0.00805662
C        1.43924088       7.90259486       3.48390250       0.00100881       0.00486062      -0.00489571
C        0.17977259       9.95981365       3.87451841       0.00311572       0.00710553      -0.00949945
C        7.57828457       1.41693566       4.03307325      -0.00599631       0.00728741       0.00239893
C        6.36237350       3.55419282       4.29079669      -0.00446094      -0.00144198       0.00282441
C        5.13514754       5.73094395       4.45087473       0.00003280      -0.00389352       0.00901956
C        3.87876925       7.79406211       4.13777714       0.00489306       0.00144895       0.00430520
C        2.64646525       9.95929016       3.93817414       0.00142772      -0.00779534       0.00117195
C       10.05422586       1.41462846       3.82470788       0.00143046      -0.00215871       0.00823734
C        8.80311394       3.54894749       3.87508140       0.00340525       0.00466669       0.00574916
C        7.58109984       5.68661780       3.99911817       0.00043674       0.00116389       0.00770048
C        6.35488997       7.82073884       4.02039335      -0.00868604      -0.00232096      -0.00142962
C        5.11260476       9.95005705       3.92187619       0.00649628       0.00707184      -0.00445273
Au       2.35435049       5.60840125       5.49967796       0.00445934      -0.00539952      -0.00970151
O        0.60259431       4.80540393       6.15787285      -0.00495102      -0.00573065      -0.01694998
O       -0.30719493       5.90477812       6.31532626      -0.00431183       0.01364134       0.00963968
H       -0.74411699       5.63614542       7.15118967       0.00345622       0.00701518       0.00204501
