52
Lattice="12.336457 0.0 0.0 -6.168228499999997 10.683685154694365 0.0 0.0 0.0 15.0" Properties=species:S:1:pos:R:3:forces:R:3 energy=-447.0108614281632 free_energy=-447.0108614281632 stress="-0.0005231299885352276 -9.438152740316265e-05 1.62940139844617e-05 -9.438152740316265e-05 0.010700154369664115 -4.413854146824389e-05 1.62940139844617e-05 -4.413854146824389e-05 2.1760989671530807e-07" pbc="T T T"
C       -0.06749359      -0.04105139       3.84542747      -0.00666237      -0.00389887       0.00189902
C       -1.32287020       2.05755994       3.90186288      -0.00745411      -0.00661525      -0.00325477
C       -2.57118153       4.20316936       3.80777979       0.00299241      -0.00885491      -0.00883822
C       -3.78799673       6.35593764       3.71133770      -0.00056035      -0.00189503       0.00094943
C       -5.01074059       8.50566462       3.72234966       0.00316996       0.00184981       0.00628022
C        2.40420352       0.00873101       3.83198744       0.00020313      -0.01154414       0.00793413
C        1.16344199       2.16083158       4.09562547      -0.00078064      -0.00382395       0.00214680
C       -0.14482441       4.19992071       4.18867423       0.00198383      -0.00194844      -0.00029381
C       -1.35121655       6.35713900       3.93944986       0.01015968       0.00561007      -0.01335164
C       -2.55192083       8.50836446       3.81593116      -0.00171730      -0.00322484       0.00153024
C        4.86624620      -0.06324892       3.79405206       0.00026893       0.00043413       0.00429730
C        3.66986520       2.10737104       3.68957576       0.00902274       0.00316606       0.00374417
C        1.04855054       6.31595367       4.42254071      -0.00629109      -0.00033294      -0.00305505
C       -0.06781097       8.44738072       3.96283613      -0.00578431       0.00419650      -0.00335040
C        7.34058108      -0.11234339       3.81325493      -0.00596590       0.00615345      -0.00484182
C        6.10462745       2.06188275       3.63729543       0.01010805       0.00131917       0.00487670
C        4.89392567       4.20607492       3.41081954       0.00468295       0.00503275       0.00384448
O        3.71981201       6.37785000       3.41368431       0.00285720      -0.00941200       0.00400237
C        2.42642806       8.38408716       3.89869294       0.00066303      -0.00194553      -0.00458094
C        9.79276781      -0.10616182       3.81614182       0.00205885       0.00833499      -0.00459015
C        8.55882291       2.04697803       3.73864089      -0.00558945      -0.00180926       0.00907047
C        7.32247454       4.20853868       3.60561438      -0.00496622       0.00093169      -0.00336927
C        6.09297988       6.33997424       3.53927399      -0.00453978       0.00700802      -0.00016918
C        4.87050649       8.46622123       3.70785049       0.00850918      -0.00556923      -0.00198784
C       -0.07160083       1.38814305       3.95486949      -0.00831476      -0.00710604       0.00622834
C       -1.34869273       3.48098714       3.93380519       0.00432030      -0.00800040      -0.00055691
C       -2.57200345       5.63517499       3.81151488       0.00972626      -0.00119014      -0.01093788
C       -3.77819362       7.79024493       3.74278546      -0.00020502      -0.00204908       0.00246277
C       -4.99655457       9.94818034       3.80812560      -0.00263201      -0.00419730      -0.00260330
C        2.42355268       1.45469210       3.89757919       0.00354129      -0.00713608      -0.00098209
C        1.03922826       3.51402898       4.45154182       0.00295413      -0.00274248       0.01027192
C       -0.13983977       5.63939134       4.18395525       0.00112420      -0.00172870      -0.00319688
C       -1.32289059       7.78045130       3.90871808       0.00037667       0.00741776      -0.00606908
C       -2.54417535       9.94217406       3.81096217       0.00246124      -0.00781640       0.00023874
C        4.87182958       1.36809778       3.69904189       0.01060636       0.00321502       0.00925341
O        3.72304258       3.46121732       3.41391345       0.00184453       0.00875910       0.01145154
C        1.16903345       7.67032824       4.09790352      -0.00727590       0.00109540       0.00617762
C       -0.06645376       9.87547357       3.85062105      -0.00547082       0.00166991      -0.00390025
C        7.32687959       1.33062316       3.72035525       0.00112814       0.00014547       0.00345342
C        6.09192615       3.49765305       3.53678290       0.00056949       0.00062180      -0.00045208
C        4.88877491       5.63211864       3.41089323       0.00080817       0.00081339       0.00691250
C        3.66896896       7.72597342       3.68315269       0.00638737      -0.00600624      -0.00981657
C        2.40427957       9.82503601       3.84123047      -0.00118163       0.00775048      -0.00481615
C        9.78439383       1.32792817       3.81390014      -0.00722088       0.00646773      -0.00158011
C        8.54846240       3.48244315       3.70697134      -0.00408892      -0.00630133      -0.00025121
C        7.32223469       5.63077893       3.60700769      -0.01165490       0.00234801      -0.00309793
C        6.10399898       7.77369385       3.64402453       0.00851173       0.00299488      -0.00684751
C        4.86667678       9.89671455       3.79813277      -0.00271326      -0.00313298       0.00035412
Au       2.25046685       4.86033526       5.32545043      -0.00191412       0.00312142      -0.00781568
O        3.76729994       6.03832453       5.97134374      -0.00579577       0.00989059       0.00642810
O        3.53259597       6.28114629       7.38544860      -0.00631388       0.00161338      -0.00485803
H        4.27883470       5.78290260       7.78060881       0.00405356       0.01632058       0.00565693
