52
Lattice="12.336457 0.0 0.0 -6.168228499999997 10.683685154694365 0.0 0.0 0.0 15.0" Properties=species:S:1:pos:R:3:forces:R:3 energy=-441.60803828672056 free_energy=-441.60803828672056 stress="-0.001915597926776377 -0.0018943792077339382 6.146747814377125e-05 -0.0018943792077339382 -0.0027754498382982443 2.8077679994284926e-05 6.146747814377125e-05 2.8077679994284926e-05 -1.2215356547753964e-05" pbc="T T T"
C        0.06588364      -0.12054917       3.70741763       0.00111072       0.00596886      -0.00996271
C       -1.17383648       2.02205108       3.63074733      -0.00617277      -0.00302404       0.00032345
C       -2.41279762       4.16001957       3.71232093       0.01103137       0.00342552       0.00084096
C       -3.62942558       6.29817358       3.69953339      -0.00117933      -0.00461155      -0.00622803
C       -4.86092152       8.42978525       3.70011863       0.00032214      -0.00234853       0.00007085
C        2.53401063      -0.15993163       3.89885879      -0.01006746      -0.00176420       0.00520226
C        1.32254982       1.95503337       3.61513667      -0.00048102       0.00235641       0.00141115
C        0.04024054       4.20854329       3.69318398      -0.00129881       0.00349600      -0.00272975
C       -1.18720985       6.30557826       3.90590350       0.00155118       0.00396027      -0.00565942
C       -2.39377227       8.42502063       3.89338542      -0.00627573       0.00718534       0.00564353
C        5.00918445      -0.12690675       3.99747309       0.00104485      -0.00028393      -0.00785577
C        3.73697795       1.95829236       4.12186107       0.00051684      -0.00290762       0.00415083
C        1.22829631       6.29954822       4.36312582       0.00510224       0.00285440       0.00446139
C        0.08430408       8.41383645       4.00401400      -0.00558953      -0.00415009      -0.00684718
C        7.47315298      -0.12399277       3.89741364       0.00410724      -0.00141587       0.00449100
C        6.21623381       2.04370217       3.87501921       0.00555477       0.00220390       0.00064933
C        5.00022280       4.27579338       3.62248844       0.00712279       0.00131159       0.00429312
O        3.86463268       6.39054074       3.42487728      -0.00458259      -0.00342732       0.00771039
C        2.57032096       8.39096756       3.88283826      -0.00077445      -0.00291860      -0.00508628
C        9.92908157      -0.12278479       3.74015949       0.00463271      -0.00279636       0.00904530
C        8.68896601       2.02173975       3.74011423       0.00261939       0.00207853      -0.00660985
C        7.45421473       4.16881000       3.64508470       0.01139420      -0.00474326       0.00247262
C        6.26565939       6.33270031       3.46704581      -0.00260974       0.00061619       0.00757521
C        5.01596814       8.44261382       3.64795074      -0.00065373       0.00199315      -0.01385878
C        0.06367660       1.30386151       3.63828622      -0.00242008       0.00463597       0.00052764
C       -1.16655056       3.45468388       3.66734967       0.00142235      -0.00183176      -0.00987745
C       -2.40685081       5.58362584       3.77125322       0.00411202       0.00223017      -0.00039247
C       -3.62271889       7.71876441       3.76051332      -0.00070442      -0.00292450       0.00186848
C       -4.86929598       9.84410081       3.77242495      -0.00555249      -0.00174152      -0.00134551
C        2.52271459       1.24755418       3.91344524      -0.00370160      -0.00389121       0.00219238
P        1.55918451       3.59184988       2.99777583       0.00404576       0.00550889       0.00200059
C        0.05447169       5.60841397       3.97681617       0.00171062       0.00450234       0.00006039
C       -1.16092763       7.71893987       3.95524638      -0.00826638       0.00344787      -0.00430107
C       -2.39007259       9.83791016       3.95216904      -0.00633598       0.00589030       0.00558385
C        4.99958940       1.30842856       4.02408697       0.00327029       0.00001052      -0.00068040
P        3.47573419       3.68325298       4.27881811      -0.00049986       0.00309944      -0.00059500
C        1.32664930       7.65998067       4.07875362      -0.00231227       0.00033399      -0.00512661
C        0.07674369       9.84220841       3.96939908       0.00214059      -0.00406680       0.00343758
C        7.45388858       1.31373035       3.83673266       0.00342171       0.00171794      -0.00250464
C        6.20308735       3.47921225       3.70703665       0.00992593       0.00040065       0.00288704
C        5.04718503       5.67248933       3.44030464      -0.00139431       0.00166687       0.00823148
C        3.81174483       7.73966822       3.66437636      -0.00087817      -0.00206063       0.00102624
C        2.54155479       9.82355780       3.83858273       0.00435821      -0.00295589       0.00129658
C        9.92864014       1.31118142       3.70191000      -0.00331117      -0.00375394       0.00378907
C        8.68967875       3.44864995       3.69626114       0.01466805       0.00137674      -0.00605745
C        7.47976730       5.58897930       3.58314735      -0.00160927      -0.00543230      -0.00523079
C        6.25446608       7.74036313       3.57763936      -0.00015316       0.00166868      -0.00510017
C        4.99765471       9.86287781       3.70427554       0.00489121       0.00276675       0.00071303
Au       2.51014993       5.23330547       5.69664871      -0.01166278      -0.00032238       0.01098637
O        2.28199853       6.84496408       7.01916574      -0.00219049      -0.00357034      -0.00299218
O        0.97342534       6.73665726       7.55714676      -0.00474546      -0.00320058       0.01240729
H        1.18761721       6.68728471       8.51189659      -0.01465412      -0.00656401      -0.00630787
