51
Lattice="12.336457 0.0 0.0 -6.168228499999997 10.683685154694365 0.0 0.0 0.0 15.0" Properties=species:S:1:pos:R:3:initial_magmoms:R:1:forces:R:3 energy=-436.39651876119643 free_energy=-436.39651876119643 stress="-0.0008747171062350706 -0.0011599114560890988 1.1388416220043567e-05 -0.0011599114560890988 -0.002035960867563899 6.070084988385352e-06 1.1388416220043567e-05 6.070084988385352e-06 -3.083426014342629e-05" pbc="T T T"
C       -0.07423237      -0.05572558       3.84337155       0.00000000      -0.00233467       0.00096285       0.00121872
C       -1.30253214       2.09889019       3.91880363       0.00000000      -0.00096405       0.00419115       0.00170501
C       -2.53548012       4.23502067       3.73667931       0.00000000      -0.00211666      -0.00221815       0.00247992
C       -3.76313848       6.36898831       3.62835087       0.00000000       0.00049582      -0.00568657       0.00029775
C       -5.00469498       8.49824988       3.69295138       0.00000000      -0.00214426       0.00275001      -0.00198800
C        2.40309216      -0.08508208       3.73117082       0.00000000      -0.00091611      -0.00298599       0.00698114
C        1.19373489       2.01699944       4.06879912       0.00000000       0.00838493      -0.00660756       0.00403904
C       -0.10095848       4.30651202       4.03234765       0.00000000      -0.00076789       0.00259562      -0.00116576
C       -1.31792603       6.39190408       3.69313582       0.00000000       0.00249135       0.00028292       0.00061168
C       -2.53291477       8.50008035       3.61924835       0.00000000       0.00279200       0.00425217      -0.00267386
C        4.87019095      -0.04811358       3.56257706       0.00000000       0.00315668      -0.00033547       0.00553416
C        3.59420997       2.03655708       3.50642037       0.00000000       0.00038896      -0.00603947       0.00327349
N        1.10749593       6.39582637       3.94414103       0.00000000      -0.00570025       0.00589001       0.00003410
C       -0.05896918       8.49391001       3.63168196       0.00000000       0.00380262      -0.00044132       0.00319045
C        7.34017104      -0.05179703       3.61028261       0.00000000       0.00083096      -0.00039195       0.00041784
C        6.08531059       2.11287647       3.48374002       0.00000000      -0.00475662       0.00533162       0.00742328
C        4.89676387       4.33621552       3.35388527       0.00000000       0.00047319      -0.00450722       0.00821049
O        3.71096150       6.41952001       3.41519729       0.00000000       0.00804031       0.00767012      -0.00185518
C        2.42092286       8.45151909       3.66411956       0.00000000      -0.00208578      -0.00012063       0.00216484
C        9.79368178      -0.05268581       3.74275502       0.00000000       0.00342437      -0.00365997       0.00579831
C        8.56430923       2.09651132       3.67059994       0.00000000      -0.00478315      -0.00220188       0.00637737
C        7.33110189       4.24024506       3.56259205       0.00000000       0.00470740       0.00080793       0.00304471
C        6.12304079       6.39455458       3.57553319       0.00000000      -0.00300343       0.00271078       0.00032611
C        4.86410370       8.49863618       3.68559225       0.00000000      -0.00305776       0.00184779       0.00065846
C       -0.07074454       1.37132443       3.97888257       0.00000000       0.00269873       0.00134003      -0.00088310
C       -1.29116007       3.53726707       3.90228151       0.00000000      -0.00263720       0.00414675       0.00184520
C       -2.53177479       5.65812519       3.67557600       0.00000000       0.00287639      -0.00379353      -0.00159397
C       -3.76517786       7.78934279       3.64264949       0.00000000       0.00076894      -0.00182588      -0.00543612
C       -5.00847220       9.91380800       3.76993346       0.00000000      -0.00402315       0.00274225      -0.00325533
C        2.40347717       1.32607133       3.79744686       0.00000000       0.00622787      -0.00841074       0.00757615
P        1.40415189       3.65386931       4.62458744       0.00000000       0.00401033       0.00410392      -0.00311689
C       -0.06551824       5.73366013       3.87928458       0.00000000      -0.00012387       0.00098717      -0.00065065
C       -1.30166053       7.79733679       3.62571607       0.00000000       0.00394828       0.00163191       0.00252402
C       -2.52613037       9.91694200       3.62385416       0.00000000       0.00000176       0.00479990      -0.00745668
C        4.85444384       1.39137555       3.49172032       0.00000000      -0.00042559      -0.00132268      -0.00747851
S        3.32170854       3.69009135       3.04739099       0.00000000      -0.01009799      -0.00378242      -0.00477097
C        1.16096531       7.73041013       3.73227182       0.00000000      -0.00015535       0.00045609      -0.00345395
C       -0.05848338       9.91952084       3.58535847       0.00000000       0.00339362      -0.00219941      -0.00421240
C        7.32303858       1.38868381       3.58191053       0.00000000      -0.00738924       0.00159080      -0.01102690
C        6.07823228       3.54886057       3.46154738       0.00000000       0.00447111       0.00371802      -0.00064832
C        4.91665778       5.73548697       3.44495881       0.00000000       0.00071004      -0.00199330      -0.00117288
C        3.66502608       7.78854359       3.60316101       0.00000000      -0.00115949       0.00350795       0.00463995
C        2.40422904       9.89015787       3.66948273       0.00000000       0.00314891      -0.00183694      -0.00673927
C        9.80043628       1.38599047       3.78197054       0.00000000       0.00019924      -0.00070827      -0.00268307
C        8.56970200       3.52224479       3.65494485       0.00000000       0.00054283      -0.00274578       0.00085753
C        7.34535239       5.65574788       3.58954750       0.00000000      -0.00345209       0.00045708      -0.00197575
C        6.10708734       7.80454123       3.66189290       0.00000000      -0.00448163       0.00409521      -0.00398806
C        4.85616630       9.92565095       3.76870069       0.00000000       0.00100880      -0.00243235       0.00140396
Au       2.38786475       4.28611271       6.57701476       0.00000000      -0.00053171      -0.00797671      -0.05240890
O        3.32267797       4.88036893       8.42287443       1.00000000      -0.01203474      -0.00275538      -0.00347171
O        4.36636528       5.55306959       8.10790780       1.00000000       0.00614723       0.00410951       0.05147254
