51
Lattice="12.336457 0.0 0.0 -6.168228499999997 10.683685154694365 0.0 0.0 0.0 15.0" Properties=species:S:1:pos:R:3:initial_magmoms:R:1:forces:R:3 energy=-438.04285564969865 free_energy=-438.04285564969865 stress="-2.5570252687584338e-05 -0.0017571857728266595 5.1135918905969775e-06 -0.0017571857728266595 0.005814501635393451 -7.290579987632504e-06 5.1135918905969775e-06 -7.290579987632504e-06 -2.812083328070938e-05" pbc="T T T"
C       -0.16393628       0.10093922       3.54486775       0.00000000       0.00023850      -0.00121847      -0.00132766
C       -1.40999593       2.23053543       3.54482631       0.00000000      -0.00012923       0.00081674      -0.00002671
C       -2.62813885       4.36722855       3.53622867       0.00000000       0.00054748      -0.00048441       0.00181910
C       -3.84760548       6.50842444       3.52758051       0.00000000      -0.00116658       0.00035316      -0.00054954
C       -5.08167111       8.65685855       3.51765387       0.00000000       0.00142416      -0.00009065      -0.00103437
C        2.29413692       0.12386811       3.57262183       0.00000000       0.00172736      -0.00077026       0.00169537
C        1.02740831       2.26152929       3.60903281       0.00000000      -0.00218154      -0.00076484       0.00299176
C       -0.18647092       4.36746841       3.50569936       0.00000000       0.00026698      -0.00126727       0.00059296
C       -1.37790443       6.48282483       3.49710439       0.00000000       0.00067784      -0.00066982       0.00231326
C       -2.61343990       8.64218324       3.52554585       0.00000000      -0.00053818       0.00061106       0.00180814
C        4.77373327       0.08969948       3.67997915       0.00000000      -0.00011232      -0.00092475       0.00089838
C        3.50992940       2.19820411       3.97927969       0.00000000       0.00016185      -0.00015014      -0.00193103
O        1.01559617       6.49529819       3.50993187       0.00000000       0.00150602      -0.00017972      -0.00041129
C       -0.15091892       8.60943326       3.58475271       0.00000000      -0.00270218       0.00083704       0.00038524
C        7.24005862       0.06485081       3.67125213       0.00000000      -0.00085845      -0.00068910      -0.00007677
C        6.00035797       2.23188155       3.82793413       0.00000000       0.00040878      -0.00088735       0.00147330
C        4.83536180       4.44136916       4.06542789       0.00000000       0.00102940       0.00126738       0.00068056
N        3.63342310       6.53057366       3.98501142       0.00000000       0.00012526      -0.00014274      -0.00108168
C        2.28794341       8.55810197       3.66225790       0.00000000       0.00038045      -0.00005042      -0.00083370
C        9.69150306       0.06389664       3.60839577       0.00000000       0.00033802       0.00099099      -0.00095390
C        8.46282539       2.21893009       3.63695040       0.00000000       0.00098673      -0.00084803      -0.00032554
C        7.24933085       4.37111985       3.68063427       0.00000000       0.00046513       0.00061371       0.00042939
C        6.04502903       6.53575496       3.65980440       0.00000000      -0.00192788       0.00118997      -0.00044947
C        4.77768104       8.62950539       3.61831869       0.00000000       0.00103668      -0.00034355      -0.00193922
C       -0.17007625       1.53694725       3.55069716       0.00000000      -0.00172421      -0.00072524      -0.00101212
C       -1.39334146       3.66172993       3.51994717       0.00000000       0.00010488      -0.00035554       0.00120727
C       -2.61816915       5.78184089       3.51082297       0.00000000      -0.00028193      -0.00031540       0.00042954
C       -3.85066087       7.93605012       3.50860227       0.00000000       0.00044134       0.00031822      -0.00081961
C       -5.09582363      10.08611869       3.52400487       0.00000000       0.00156959      -0.00033728       0.00073276
C        2.26719583       1.55340730       3.69784416       0.00000000      -0.00049112      -0.00025629       0.00053619
O        0.99882985       3.64699914       3.53286332       0.00000000       0.00015821      -0.00044065      -0.00096636
C       -0.16963511       5.77954910       3.49700839       0.00000000       0.00122172      -0.00117595      -0.00073142
C       -1.38622496       7.91384829       3.52716916       0.00000000      -0.00198019       0.00003875       0.00172413
C       -2.63159303      10.07788430       3.58629362       0.00000000       0.00090712      -0.00035638      -0.00118333
C        4.76444812       1.51827447       3.84035213       0.00000000       0.00025540      -0.00184843      -0.00046166
P        3.43950946       3.73825889       4.76834088       0.00000000      -0.00044954       0.00260768      -0.00049074
C        1.04893377       7.87388726       3.59300346       0.00000000      -0.00104512       0.00127449       0.00017192
C       -0.15721296      10.04699199       3.64858520       0.00000000      -0.00138285       0.00037935      -0.00227372
C        7.22999442       1.50732505       3.70949728       0.00000000       0.00022610      -0.00081534      -0.00111844
C        6.01164522       3.67019921       3.85740910       0.00000000       0.00008852       0.00037053      -0.00135530
C        4.79990198       5.87696565       3.89615987       0.00000000      -0.00048315       0.00033651      -0.00229766
C        3.56162401       7.85728145       3.74667033       0.00000000       0.00152480      -0.00035031      -0.00141757
C        2.29459008      10.00110819       3.64488292       0.00000000       0.00003113       0.00063463      -0.00024543
C        9.69961879       1.50513888       3.58833990       0.00000000       0.00118955       0.00048744      -0.00031645
C        8.46903034       3.65003196       3.61010841       0.00000000       0.00083002      -0.00080958       0.00022491
C        7.25738843       5.79959546       3.61251577       0.00000000      -0.00182080       0.00148129       0.00142083
C        6.02762102       7.94438182       3.57926703       0.00000000       0.00092225       0.00070076      -0.00020603
C        4.76643235      10.05294410       3.57700120       0.00000000      -0.00002462      -0.00048755      -0.00053844
Au       2.84988949       3.93293507       6.94131087       0.00000000       0.00127387       0.00095194      -0.02030129
O        7.15270128       1.82241970       9.23783162       1.00000000      -0.00042593       0.00062526       0.00038350
O        6.19450541       2.29750654       8.61805724       1.00000000      -0.00233932       0.00086857       0.02475796
