52
Lattice="12.336457 0.0 0.0 -6.168228499999997 10.683685154694365 0.0 0.0 0.0 15.0" Properties=species:S:1:pos:R:3:forces:R:3 energy=-442.2653245602189 free_energy=-442.2653245602189 stress="-0.005106448494233205 0.004753114089452079 -2.115170605815109e-05 0.004753114089452079 -0.002291713469654508 -1.854897858236829e-05 -2.115170605815109e-05 -1.854897858236829e-05 3.6103707909705065e-06" pbc="T T T"
C       -0.07319348       0.04213155       3.70572596      -0.00970885       0.00542964       0.00245753
C       -1.28019107       2.19869363       3.76693651       0.00630626       0.00521817      -0.00848251
C       -2.54976034       4.33236809       3.91235245      -0.00538231      -0.00119615       0.01278199
C       -3.80725134       6.45763453       3.82598923       0.00775008      -0.00146310       0.01237658
C       -5.03595599       8.58356779       3.70223954       0.00288292      -0.00386272       0.01030840
C        2.39336723       0.05471624       3.70103756       0.00454862      -0.00477028       0.00085058
C        1.18446673       2.14015625       3.44585309       0.00713268      -0.00684798      -0.00120512
C       -0.14400868       4.42022749       3.74104716      -0.00837157      -0.00642806       0.00788050
C       -1.36675962       6.49335139       4.05015658      -0.00695649       0.00048917      -0.00305266
C       -2.57474191       8.60814344       3.92046406       0.00299865       0.00195016       0.00413214
C        4.86073895       0.04693058       3.86804168       0.00679703      -0.00177387       0.00715157
C        3.68760608       2.19150528       3.47176570      -0.00769202      -0.00329236      -0.00500026
N        1.02479565       6.51244833       4.31598103      -0.00277018       0.00573325       0.00737681
C       -0.10565263       8.60392249       4.08511629      -0.00431567       0.00405543       0.00051803
C        7.33918658       0.03478888       4.00442948       0.00149219      -0.00245650      -0.01180793
C        6.13716298       2.15099593       3.74386111      -0.01168986      -0.00225380       0.00598881
C        4.92941003       4.21132389       3.30139688       0.00299251       0.00838643       0.00654669
P        3.34515157       6.30933866       2.92776210      -0.00482680      -0.00677238       0.00911405
C        2.37703649       8.57748090       3.97348060       0.00159859       0.00355467      -0.00049793
C        9.80781891       0.03894455       3.89183467      -0.00029804      -0.00242369      -0.00522822
C        8.58874868       2.17586857       3.90192892       0.00967631      -0.00538307      -0.00445733
C        7.34951974       4.30248663       3.71685790       0.00283055       0.00561870      -0.00379229
C        6.08544086       6.42518189       3.49598368      -0.00130525      -0.00495450       0.00197142
C        4.83969541       8.57556440       3.65460560      -0.00042545      -0.00466797      -0.00265819
C       -0.05770370       1.48257239       3.64956606       0.00405482       0.00774628      -0.00463509
C       -1.30265928       3.63043346       3.83060360      -0.01167271      -0.00206798      -0.00197294
C       -2.57630175       5.75425669       3.94350520       0.00329705      -0.00318373       0.00163246
C       -3.80536039       7.88463496       3.81560971       0.00697167      -0.00371845       0.00671881
C       -5.01586564      10.01657778       3.70239168      -0.00567699       0.00257902      -0.00165876
C        2.41890443       1.46864001       3.53291953      -0.00063736      -0.00665111       0.00067173
S        1.25534957       3.79742877       2.98004026      -0.00033735       0.00472786       0.01070241
C       -0.13586394       5.80993471       4.06312987      -0.00692231      -0.00205878       0.00623502
C       -1.34932498       7.90985129       4.05290023      -0.00486483       0.00353447      -0.00247279
C       -2.55165208      10.02724004       3.83920807       0.01091930      -0.00197926      -0.01242201
C        4.89333640       1.45596789       3.70855771      -0.00930766      -0.00527308      -0.00624746
N        3.77555236       3.51069555       3.22608765      -0.00430936       0.00863419      -0.00172258
C        1.11425041       7.87055287       4.13759527       0.00019559       0.00786313      -0.00410482
C       -0.07656830      10.02061391       4.00370889       0.00315513       0.00030098       0.00302041
C        7.35800817       1.45278258       3.90883834      -0.00043376      -0.00394799      -0.01263298
C        6.15574089       3.55325341       3.57863184       0.00066862       0.00127757      -0.00337739
C        4.92796279       5.65325192       3.24707750      -0.01151389       0.00132632       0.00350691
C        3.58013276       7.89462441       3.64370487       0.00084857       0.00023366      -0.00714296
C        2.39941201      10.00435185       4.00006326       0.00004834       0.00050183      -0.01124454
C        9.82827869       1.47327224       3.87952408       0.01337363      -0.00284406      -0.00720831
C        8.57622549       3.60054294       3.86438987       0.00211471      -0.00102672      -0.00252419
C        7.32438299       5.72782844       3.67616007       0.00399610       0.00343378       0.00583359
C        6.06988450       7.86100339       3.59186855       0.00459741      -0.00660533      -0.00111534
C        4.85881452      10.00831785       3.76832608      -0.00684518      -0.00224191      -0.00242124
Au       2.51293423       5.36506161       5.31061928       0.01009913       0.00321022      -0.00017573
O        3.89671441       4.09344721       6.06096519       0.00237395       0.01673213      -0.00378629
O        3.53087536       3.99040740       7.43892713      -0.00261726       0.00263410       0.00017634
H        4.35860643       4.27371564       7.87939619       0.00516077      -0.00502636       0.00509503
