51
Lattice="12.336457 0.0 0.0 -6.168228499999997 10.683685154694365 0.0 0.0 0.0 15.0" Properties=species:S:1:pos:R:3:initial_magmoms:R:1:forces:R:3 energy=-439.3207638807308 free_energy=-439.3207638807308 stress="-0.00043122513631415997 0.0033185343640328704 2.7454070911735964e-07 0.0033185343640328704 0.004882475377319565 1.1013425523089988e-05 2.7454070911735964e-07 1.1013425523089988e-05 -1.2187213375259385e-05" pbc="T T T"
C       -0.03246988       0.00612593       3.68307416       0.00000000      -0.00153110       0.00232276       0.00038434
C       -1.25407338       2.14173826       3.78385690       0.00000000       0.00015800       0.00115494      -0.00023592
C       -2.47716209       4.27339981       3.75639120       0.00000000      -0.00207642       0.00156530       0.00350390
C       -3.73223840       6.40564892       3.66813159       0.00000000      -0.00467408      -0.00043376      -0.00492633
C       -4.98833131       8.54523759       3.59534011       0.00000000       0.00135887      -0.00246216       0.00316584
C        2.42481608       0.04983267       3.71547097       0.00000000      -0.00253073      -0.00119017       0.00437199
C        1.19239427       2.19926684       3.92673553       0.00000000      -0.00102151       0.00230987      -0.00431857
C       -0.00962105       4.28032957       4.00909958       0.00000000      -0.00401952       0.00089532      -0.00081766
C       -1.26832258       6.40965075       3.85115135       0.00000000       0.00291945      -0.00279128       0.00435089
C       -2.51351601       8.55426495       3.74210815       0.00000000       0.00175627       0.00156135       0.00611186
C        4.89426064       0.00603630       3.75269787       0.00000000       0.00950831      -0.00582664      -0.00334598
C        3.69285071       2.19783393       3.60125052       0.00000000       0.00191732       0.00225221      -0.00079301
O        1.09517026       6.45567176       4.01319790       0.00000000       0.00258197       0.00144977       0.00284974
C       -0.04882390       8.53359402       3.81963678       0.00000000      -0.00350150      -0.00159581       0.00072923
C        7.37284982      -0.02717858       3.78879532       0.00000000       0.00506271       0.00656473      -0.00011606
C        6.16473834       2.10618559       3.68135071       0.00000000      -0.00540551       0.00061742       0.00029944
C        4.94245936       4.18018141       3.36805550       0.00000000       0.00348897       0.00289505       0.00085513
S        3.49342951       6.24628895       2.72307858       0.00000000       0.00130705      -0.00410158      -0.00759176
C        2.39730552       8.49750900       3.67593898       0.00000000      -0.00325740       0.00060101       0.00187282
C        9.83531453      -0.02392199       3.72109876       0.00000000       0.00306605      -0.00153660      -0.00040533
C        8.62210721       2.12101203       3.74382410       0.00000000       0.00104039      -0.00035727       0.00143074
C        7.39890774       4.25515387       3.61463073       0.00000000      -0.00167123      -0.00198339       0.00585137
C        6.14242407       6.38307313       3.41889530       0.00000000      -0.00527504      -0.00053231       0.00040494
C        4.87755231       8.52168894       3.47949562       0.00000000       0.00492460       0.00102244      -0.00640317
C       -0.02452216       1.43872057       3.77943631       0.00000000       0.00014191       0.00261653      -0.00038144
C       -1.24323442       3.57294023       3.82066360       0.00000000      -0.00273846       0.00122403       0.00155192
C       -2.49642017       5.69172494       3.76345612       0.00000000      -0.00139124       0.00149653       0.00109422
C       -3.74947879       7.83553136       3.66637057       0.00000000       0.00191238       0.00030445      -0.00095635
C       -4.97387695       9.98604060       3.66526844       0.00000000      -0.00432140      -0.00146700      -0.00191298
C        2.43340574       1.48790927       3.75742701       0.00000000      -0.00002005       0.00156990      -0.00490124
N        1.11342637       3.52950921       4.29178887       0.00000000      -0.00894654      -0.00171933       0.00525443
C       -0.06318336       5.71556876       3.96452081       0.00000000       0.00415009       0.00038413       0.00212043
C       -1.28838716       7.83676263       3.81384137       0.00000000      -0.00122215      -0.00299730      -0.00206435
C       -2.51531133       9.99219223       3.73223708       0.00000000       0.00376860       0.00123581      -0.00237280
C        4.91491789       1.42567307       3.68672083       0.00000000       0.00007061      -0.00538397      -0.00911880
N        3.75505985       3.53318833       3.39060961       0.00000000       0.00332973       0.00385495       0.00292962
C        1.14353781       7.82045171       3.80079000       0.00000000      -0.00516500       0.00046517       0.00170831
C       -0.03605820       9.96615986       3.79173552       0.00000000       0.01030195      -0.00236955      -0.00508896
C        7.39085213       1.39958978       3.74943173       0.00000000      -0.00276049       0.00651853       0.00400606
C        6.18691574       3.51590991       3.56889953       0.00000000      -0.00123943      -0.00012036       0.00230219
C        4.98280740       5.60786660       3.22852867       0.00000000      -0.00252117       0.00046869      -0.00307475
C        3.62825009       7.84677263       3.37068262       0.00000000       0.00099167       0.00235308      -0.00006363
C        2.42797391       9.93133071       3.75425510       0.00000000       0.00140003       0.00290288      -0.00546956
C        9.85093347       1.41244937       3.75573978       0.00000000       0.00232741      -0.00204521      -0.00109384
C        8.62915509       3.54670259       3.70761107       0.00000000      -0.00010572      -0.00113572       0.00362532
C        7.38608095       5.67991960       3.56998226       0.00000000      -0.00667238      -0.00152462      -0.00334667
C        6.11835976       7.81756312       3.46665946       0.00000000       0.00329938      -0.00242348      -0.00089554
C        4.89562544       9.95888315       3.63568606       0.00000000       0.00331572      -0.00033342       0.00278373
Au       2.33821426       4.22722759       5.89193215       0.00000000      -0.00543972      -0.00104908       0.01419440
O        3.07889151       4.34315716       8.46765419       1.00000000       0.00416256      -0.00248507       0.00940582
O        3.49311105       4.90995575       7.37849254       1.00000000      -0.00075423      -0.00274180      -0.01746397
