52
Lattice="12.336457 0.0 0.0 -6.168228499999997 10.683685154694365 0.0 0.0 0.0 15.0" Properties=species:S:1:pos:R:3:forces:R:3 energy=-448.49371414795473 free_energy=-448.49371414795473 stress="-0.0008243675392876667 0.00032875059157195336 -1.1446101512778001e-05 0.00032875059157195336 0.00826435899772382 -1.9157015698559656e-05 -1.1446101512778001e-05 -1.9157015698559656e-05 1.3857475365713814e-05" pbc="T T T"
C       -0.07244541       0.06279290       3.71262266      -0.00363487      -0.01332152       0.00609498
C       -1.32168884       2.17378456       3.72829874      -0.00667430       0.00599770       0.00764943
C       -2.55424111       4.31711303       3.63716560      -0.00283401      -0.00616361       0.00262219
C       -3.78014407       6.46426255       3.56290922       0.00341788       0.00863161      -0.00032134
C       -5.00756027       8.61502293       3.61238416       0.00214816      -0.00101773      -0.00027230
C        2.39377544       0.11982024       3.70953556       0.00118854      -0.00039302       0.00269527
C        1.13720668       2.26652023       3.85962300      -0.01144338       0.00128451      -0.01466536
C       -0.09436928       4.29832733       3.90793390      -0.00072451       0.00224920      -0.00710762
C       -1.32735633       6.45926286       3.73832390      -0.00107678      -0.00297443       0.00468372
C       -2.55025657       8.61291151       3.68076611       0.00245511       0.00392543       0.00397915
C        4.85511381       0.05438351       3.72583780      -0.00220067      -0.00768463      -0.00941378
C        3.66223625       2.21373115       3.63949535       0.00480860       0.00615627       0.00494739
N        0.99069685       6.48126042       4.29769009      -0.00044524      -0.00817376      -0.01320281
C       -0.08495807       8.57582621       3.84113937      -0.00427308      -0.00115825      -0.00819277
C        7.33008891       0.01113335       3.76910419       0.00288203       0.00247241       0.01526123
C        6.09984616       2.17199036       3.61817126       0.00503613       0.00120599       0.01082920
C        4.88716128       4.29695508       3.48661330       0.00215583       0.00641292       0.00007309
N        3.73803753       6.43965261       3.88338594       0.00437346      -0.00247952       0.00523038
C        2.38838733       8.51168019       3.91914832      -0.00009394      -0.00717538       0.00091825
C        9.78581729       0.00913482       3.75934730       0.00112702       0.00782057      -0.01467918
C        8.55606213       2.16474633       3.66551134       0.00146915      -0.00684697      -0.00866707
C        7.32666789       4.31690468       3.53371357       0.00763811       0.00017979       0.00257072
C        6.09580655       6.45180266       3.50512467      -0.00220825       0.00255664      -0.00114769
C        4.86243424       8.57483766       3.69253684      -0.00280425      -0.00619513       0.00102663
C       -0.07612256       1.49117129       3.76098662      -0.01217389      -0.00634471      -0.00712015
C       -1.33107341       3.59933353       3.72807279      -0.00340150       0.00499360       0.00901072
C       -2.55576754       5.74382598       3.62333738      -0.00159205      -0.00433899       0.01254407
C       -3.77972288       7.89585540       3.60688841       0.00463890       0.00890781      -0.00260245
C       -5.00214701      10.05345706       3.68080622       0.00341733      -0.00552360       0.00875241
C        2.40729404       1.56158073       3.74930189       0.00048781       0.00327749       0.00161271
N        1.05209184       3.60618791       4.07385730      -0.00171333       0.00378377       0.00872893
C       -0.11694985       5.76006646       3.95951280      -0.00210821      -0.00203104      -0.00458867
C       -1.32194377       7.88756147       3.75200760      -0.00002223      -0.00020989      -0.01003236
C       -2.55200085      10.05254687       3.70598832      -0.00311651      -0.00352204      -0.00032311
C        4.86083477       1.48429350       3.67077705       0.00488308      -0.00486009      -0.01073581
O        3.71729552       3.58073163       3.49625088      -0.00150323       0.01266571      -0.00364788
C        1.12576896       7.82616230       4.02074370      -0.00229879      -0.00425574       0.00901060
C       -0.07629369      10.00337113       3.77732201      -0.00124269      -0.00032438       0.00107843
C        7.32229680       1.44898832       3.68159145       0.00433302      -0.00036748      -0.00468196
C        6.09221520       3.60024199       3.53036344       0.00208833       0.00537772       0.01690666
C        4.85901855       5.73180764       3.56105080       0.00075960       0.00335102       0.00287081
C        3.64809625       7.79921613       3.82625716       0.00097568      -0.00606712       0.00795564
C        2.38979116       9.94843244       3.81796557       0.00405591       0.00003278      -0.00268441
C        9.78441651       1.44403573       3.71561676      -0.00015250       0.00723245      -0.00991335
C        8.55291580       3.59650615       3.60149288       0.00241249      -0.01222948      -0.00962648
C        7.32449957       5.74141929       3.50882606       0.00222677       0.00535430      -0.00417057
C        6.09722261       7.88250521       3.58806053      -0.00051594      -0.00014910      -0.00059896
C        4.85703144      10.00296330       3.72287009      -0.00545899      -0.00687447      -0.00002568
Au       2.36468281       5.31022833       5.32765827       0.00125040      -0.00005140       0.00871031
O        3.76121695       4.06327333       6.05057845      -0.00829381       0.00836919       0.00232269
O        3.67085220       4.14485302       7.49832310      -0.00359151       0.00686913      -0.00343924
H        4.61840345       4.20539783       7.74362539       0.01536911       0.00162546      -0.00622464
