51
Lattice="12.336457 0.0 0.0 -6.168228499999997 10.683685154694365 0.0 0.0 0.0 15.0" Properties=species:S:1:pos:R:3:initial_magmoms:R:1:forces:R:3 energy=-439.04580885761413 free_energy=-439.04580885761413 stress="0.006557424988302901 0.0027468366835333605 -2.1637389019474054e-05 0.0027468366835333605 0.0037150270050586667 -1.947636443704175e-05 -2.1637389019474054e-05 -1.947636443704175e-05 -3.8617702913896434e-05" pbc="T T T"
C        0.02216073      -0.01005708       3.69272091       0.00000000      -0.00039461      -0.00267552       0.00550341
C       -1.19188829       2.14536817       3.65211561       0.00000000      -0.00267118       0.00368485      -0.00859674
C       -2.41892680       4.27591543       3.61769435       0.00000000       0.00193814       0.00385966      -0.00425263
C       -3.68347794       6.39356337       3.62913528       0.00000000      -0.00322030       0.00037072      -0.00008186
C       -4.93868903       8.52099076       3.68757992       0.00000000      -0.00036299      -0.00197217       0.00415204
C        2.47894484       0.02460637       3.64095805       0.00000000      -0.00357793       0.00219060      -0.00673568
C        1.23664399       2.14732164       3.65909458       0.00000000       0.00212695      -0.00223830       0.00421822
C        0.05005800       4.25990968       3.68906339       0.00000000       0.00144986       0.00307269      -0.00880347
C       -1.16538400       6.38696782       3.65406229       0.00000000      -0.00702011      -0.00385348      -0.00479577
C       -2.45905694       8.52977245       3.62880480       0.00000000       0.00341749      -0.00287009      -0.00658444
C        4.94176113      -0.01365760       3.56668367       0.00000000      -0.00566661       0.00134998       0.00121373
C        3.75095058       2.12726474       3.58557480       0.00000000       0.00794372      -0.00115088       0.01251173
N        1.30643857       6.43255294       3.76757807       0.00000000       0.00294309      -0.00975329      -0.00811433
C        0.00688594       8.52607944       3.62098520       0.00000000       0.00466693       0.00045199      -0.00853212
C        7.41535411      -0.00538552       3.57202573       0.00000000       0.00014378       0.00628900      -0.00311868
C        6.19643638       2.11648859       3.50296502       0.00000000      -0.00621803       0.00021943       0.00655387
C        4.97635196       4.19051772       3.58095352       0.00000000      -0.00308856      -0.00342079       0.00631794
P        3.28883712       6.17708770       4.24008787       0.00000000      -0.01251027       0.00504013       0.00630607
C        2.45831386       8.56678930       3.74587222       0.00000000      -0.00063529      -0.00432053      -0.00341113
C        9.89455896       0.00193468       3.66130634       0.00000000       0.00121276      -0.00180460       0.00431277
C        8.66970467       2.13500931       3.56532526       0.00000000      -0.00217297       0.00143619       0.00329873
C        7.43349203       4.26166392       3.54721053       0.00000000      -0.00139198      -0.00433857       0.00114340
C        6.13255005       6.35757577       3.67910133       0.00000000       0.01158553       0.00257245       0.01292438
C        4.92544353       8.51962519       3.79853625       0.00000000      -0.00123473       0.00394445      -0.00518523
C        0.04044272       1.43349412       3.67220723       0.00000000      -0.00148512      -0.00136542      -0.00600902
C       -1.17162607       3.57158202       3.65190651       0.00000000       0.00157652       0.00570218       0.00170596
C       -2.41760231       5.69159264       3.63023787       0.00000000      -0.00815206       0.00140015      -0.00055966
C       -3.69625794       7.81691312       3.64896201       0.00000000       0.00228746      -0.00220912       0.00668477
C       -4.91832274       9.96430099       3.68093254       0.00000000      -0.00085765      -0.00326043       0.00178912
C        2.48702743       1.47532252       3.63033007       0.00000000       0.00598011       0.00308607      -0.01210394
O        1.21205368       3.53042480       3.67630902       0.00000000      -0.00076503      -0.00095585      -0.00068120
C        0.11314296       5.69224298       3.70625151       0.00000000      -0.00546297      -0.00147011      -0.01113744
C       -1.21654194       7.81264881       3.63014027       0.00000000       0.00513806      -0.00286612      -0.00682549
C       -2.46353349       9.96887003       3.61268251       0.00000000      -0.00524951       0.00025296      -0.00218854
C        4.94694652       1.41673432       3.53623852       0.00000000       0.00130072      -0.00253256      -0.00030891
O        3.78658420       3.49917660       3.63137912       0.00000000      -0.00337941      -0.00350933      -0.00429010
C        1.23342618       7.80602873       3.70115725       0.00000000       0.00226635      -0.00816934       0.00054167
C        0.01196035       9.95604346       3.57629194       0.00000000      -0.00229993       0.00633867       0.00686814
C        7.42472319       1.41768043       3.53291551       0.00000000      -0.00493886       0.00535847       0.00436331
C        6.20248605       3.52702592       3.50062970       0.00000000      -0.00467058      -0.00262471       0.00532360
C        4.90587945       5.58766481       3.69542888       0.00000000       0.01639155      -0.00206833       0.00101769
C        3.65584836       7.85564650       3.89653737       0.00000000       0.00038144       0.00179805       0.00362982
C        2.47952549       9.98317905       3.64297651       0.00000000       0.00020422      -0.00099403       0.00209003
C        9.91182629       1.43176983       3.62260789       0.00000000      -0.00226616      -0.00023141      -0.00646684
C        8.67716667       3.55908569       3.56784621       0.00000000       0.00348221       0.00150725      -0.00104316
C        7.40668560       5.67822909       3.60992799       0.00000000       0.00293091      -0.00285520       0.00094142
C        6.15555432       7.79689319       3.73720606       0.00000000      -0.00111142       0.00681678       0.00597740
C        4.94981500       9.95861254       3.72100598       0.00000000       0.00064870       0.00033720       0.00178392
Au       2.95066847       5.79738072       6.49724592       0.00000000       0.00308122      -0.00288153      -0.01268540
O        2.24578380       6.26584472       9.17730531       1.00000000       0.00045046      -0.00106665       0.01243515
O        2.65898693       5.23222448       8.54617235       1.00000000       0.00725609       0.01037846       0.00890348
