51
Lattice="12.336457 0.0 0.0 -6.168228499999997 10.683685154694365 0.0 0.0 0.0 15.0" Properties=species:S:1:pos:R:3:initial_magmoms:R:1:forces:R:3 energy=-437.4216331999689 free_energy=-437.4216331999689 stress="-0.008200863310943407 0.0009423176610137833 2.9644811867582676e-06 0.0009423176610137833 -0.0009577141782778293 -4.512430971870282e-06 2.9644811867582676e-06 -4.512430971870282e-06 -2.528762923080487e-06" pbc="T T T"
C       -0.00302737       0.01100184       3.77220172       0.00000000      -0.00173013      -0.01178681      -0.00236093
C       -1.24024433       2.13395784       3.82076045       0.00000000       0.00078890      -0.00665349       0.00790170
C       -2.46021093       4.28016415       3.90500872       0.00000000      -0.00446299      -0.00432790       0.00766436
C       -3.68405777       6.42829048       3.89677393       0.00000000       0.00400394       0.00626629      -0.00453471
C       -4.93152697       8.57147473       3.85213983       0.00000000      -0.00249298      -0.00044617      -0.00127002
C        2.46076964       0.04515614       3.62428252       0.00000000       0.00320782       0.00069960       0.00908903
C        1.19774617       2.18685827       3.55119542       0.00000000      -0.00090618       0.00229240      -0.00248796
C       -0.01315139       4.25784220       3.75990489       0.00000000      -0.00784175      -0.00541469      -0.00505258
C       -1.24395856       6.42951227       3.88645490       0.00000000       0.00521685       0.00170796      -0.00653297
C       -2.47415245       8.57588658       3.81147269       0.00000000      -0.00514337       0.00182714      -0.00070188
C        4.92731694       0.01838866       3.59620688       0.00000000      -0.00011687       0.01378490       0.00433750
C        3.70735689       2.07862318       3.06234232       0.00000000       0.00181778       0.00478558      -0.01190124
N        1.07153900       6.48035835       3.42677586       0.00000000      -0.00495421      -0.00509976      -0.00284353
C       -0.02243473       8.56001661       3.75956476       0.00000000      -0.00038605       0.00316485      -0.00032844
C        7.39967319      -0.00423701       3.68415699       0.00000000      -0.00224658      -0.01114538      -0.00909527
C        6.19102316       2.13152430       3.42330105       0.00000000       0.01160313      -0.00652385      -0.00335511
C        5.13757107       4.32505982       3.07349117       0.00000000      -0.00105944       0.00721453       0.01402066
P        3.63488194       6.15358565       4.49932946       0.00000000      -0.01495461      -0.00599459       0.01099185
C        2.45251084       8.52521099       3.80548888       0.00000000       0.00408634       0.00814247      -0.00488023
C        9.86231503      -0.01078038       3.79964937       0.00000000      -0.00109177       0.00998689       0.00765533
C        8.63932021       2.13321053       3.75432763       0.00000000      -0.00958255      -0.00726340       0.00582275
C        7.44911515       4.27670724       3.71049594       0.00000000       0.00236991       0.00233428      -0.01875157
C        6.22246475       6.42222727       3.77513296       0.00000000       0.00555368       0.00143706      -0.00012130
C        4.93199091       8.54585564       3.91374352       0.00000000       0.00475723      -0.00651642      -0.00653701
C       -0.01134483       1.43444867       3.72625125       0.00000000       0.00049652      -0.01009712      -0.00653666
C       -1.24339956       3.55866444       3.86856216       0.00000000      -0.00539378      -0.00832046       0.00448573
C       -2.46189752       5.70638891       3.92598758       0.00000000       0.00427766       0.00292744      -0.00028276
C       -3.69785894       7.85822609       3.86607246       0.00000000      -0.00597116       0.00440296       0.00145465
C       -4.93141755      10.00067803       3.76397914       0.00000000       0.00046761      -0.00511962      -0.00442713
C        2.46567951       1.46914138       3.39226814       0.00000000       0.00163577       0.00334044      -0.00068465
N        1.11907889       3.53015712       3.59196705       0.00000000      -0.00227546       0.00577633      -0.00737139
C       -0.02919661       5.72520157       3.73110142       0.00000000      -0.00452061      -0.00904350      -0.01311441
C       -1.24658743       7.85672628       3.82834804       0.00000000      -0.00137004       0.00374095      -0.00090714
C       -2.47729589      10.00443849       3.67612688       0.00000000       0.00312629       0.00448893       0.01094301
C        4.93984943       1.43246967       3.36519470       0.00000000       0.00711972       0.01085066      -0.00394676
S        3.91277430       3.54834417       2.07252390       0.00000000       0.01169340      -0.01171026       0.00638068
C        1.18960735       7.82169453       3.69259844       0.00000000       0.00149011      -0.00364881       0.00771730
C       -0.00827917       9.98348030       3.69033618       0.00000000      -0.00567192       0.00502134       0.01026306
C        7.40209092       1.42403463       3.62927085       0.00000000       0.00062084      -0.01830633       0.00654010
C        6.25157965       3.55560631       3.40034636       0.00000000       0.00300925      -0.00181231      -0.00158268
C        5.04602948       5.65232347       3.56334666       0.00000000      -0.00614199       0.01519738       0.00273829
C        3.68411621       7.85835067       3.99509543       0.00000000       0.00093458      -0.00148545      -0.01719324
C        2.45652692       9.95738265       3.76135499       0.00000000       0.00281358       0.00899818       0.00111017
C        9.86440160       1.41651203       3.80603232       0.00000000      -0.00443300       0.00602785       0.00554400
C        8.65540608       3.55696659       3.81625097       0.00000000      -0.00653994      -0.00601047      -0.00361274
C        7.44341915       5.70419644       3.80451162       0.00000000       0.00686142       0.00435909      -0.00273928
C        6.18072961       7.84693165       3.88899057       0.00000000       0.00613398      -0.00403403       0.00168367
C        4.93061289       9.97262337       3.83680368       0.00000000      -0.00418640      -0.00507547       0.00412213
Au       2.51249223       5.27300488       2.57895543       0.00000000       0.00285848       0.01309581       0.00859026
O        2.64224498       5.21466977       8.80614887       1.00000000       0.00720628       0.01231174       0.00279478
O        2.14093430       4.13959569       8.45807904       1.00000000      -0.00067726      -0.00834679       0.00130258
