52
Lattice="12.336457 0.0 0.0 -6.168228499999997 10.683685154694365 0.0 0.0 0.0 15.0" Properties=species:S:1:pos:R:3:forces:R:3 energy=-443.68842975330915 free_energy=-443.68842975330915 stress="-0.0006735253343159543 0.0032970092287317333 -4.6652055743985796e-05 0.0032970092287317333 0.004779690916716879 2.725217015299622e-05 -4.6652055743985796e-05 2.725217015299622e-05 -7.828689515396919e-06" pbc="T T T"
C       -0.03539447       0.00021084       3.73927448       0.00149661       0.00488071       0.01316895
C       -1.25736337       2.13482323       3.84944703      -0.00151374       0.00522202      -0.00105385
C       -2.48190623       4.26643282       3.83584578       0.00146340       0.00123245       0.00415435
C       -3.73629847       6.39888693       3.74709350      -0.00458025      -0.00121825       0.00305370
C       -4.99115815       8.53851120       3.66122315      -0.00015850       0.00437578       0.00774346
C        2.42136501       0.04304549       3.78310427       0.00470535       0.00179836       0.00440658
C        1.18791250       2.19242275       3.99764824      -0.00596743      -0.00264649      -0.00093944
C       -0.01545994       4.27315497       4.07960753      -0.00510316      -0.00057415       0.00391523
C       -1.27286622       6.40261178       3.92197890       0.00108548       0.00530641      -0.00239229
C       -2.51692666       8.54714478       3.81008633       0.00219369       0.00685803       0.00534881
C        4.89122448      -0.00169934       3.82802830       0.00135430       0.00144408      -0.01390802
C        3.69006537       2.19021761       3.68587544      -0.00244429      -0.00520627      -0.00721431
O        1.08981296       6.45006295       4.06129714       0.00873036      -0.00926995       0.00761591
C       -0.05270326       8.52679593       3.87983843       0.00343367      -0.00071578       0.00239741
C        7.37029949      -0.03415911       3.85973590      -0.00109669      -0.00291095      -0.00195111
C        6.16100351       2.09893985       3.77611252      -0.00344335       0.00577824      -0.00542829
C        4.94000116       4.17362022       3.46369807      -0.00188237       0.00378018      -0.00004894
S        3.49531260       6.23452191       2.79179616      -0.00007070       0.00910990      -0.00540026
C        2.39422119       8.49137363       3.73038343      -0.00354577      -0.00651518       0.00679975
C        9.83254810      -0.03059769       3.78056005      -0.00033020       0.00276837       0.00822514
C        8.61869181       2.11402960       3.82648218      -0.00087118       0.00107992      -0.00307315
C        7.39417724       4.24894740       3.71357158       0.00257954      -0.00619199      -0.00383977
C        6.13887628       6.37642819       3.50420213      -0.00118768      -0.00462163      -0.00685468
C        4.87524474       8.51548747       3.53958702      -0.00511645      -0.00135047       0.00217358
C       -0.02760244       1.43258939       3.84014943      -0.00429084       0.00312040       0.00629870
C       -1.24787828       3.56575297       3.89145851      -0.00226665       0.00143099       0.00010094
C       -2.50100374       5.68462359       3.84133904      -0.00111336       0.00204056      -0.00046209
C       -3.75289187       7.82858665       3.73692153       0.00071581       0.00448153       0.00081644
C       -4.97700652       9.97953959       3.72540465       0.00287520       0.00677485       0.00906650
C        2.42982569       1.48111065       3.83159957      -0.00174416      -0.00307303       0.00740606
N        1.10433020       3.52058256       4.36984070      -0.00500806      -0.00301926      -0.00739237
C       -0.06820973       5.70862101       4.03056136       0.00088940       0.00096424      -0.00189569
C       -1.29209293       7.82950257       3.87922319       0.00151715       0.00619895       0.00218272
C       -2.51870518       9.98513071       3.80208223       0.00383169       0.00357985      -0.00305921
C        4.91172479       1.41800061       3.77058165      -0.00102635       0.00088647       0.00626104
N        3.75185440       3.52680953       3.47888989       0.00711011      -0.00882930      -0.01025739
C        1.13966488       7.81520545       3.85506175       0.00067540      -0.00735956      -0.00326472
C       -0.03873556       9.95906743       3.85992696      -0.00079585      -0.00033259       0.00109433
C        7.38762140       1.39272682       3.83463033      -0.00376227       0.00168465      -0.00188039
C        6.18249142       3.50946710       3.67244871      -0.00155087       0.00446238      -0.01029777
C        4.98016883       5.59976315       3.31524089      -0.00580611       0.00244045       0.00420716
C        3.62638552       7.84004076       3.43015024      -0.00648595      -0.00198197      -0.00262617
C        2.42534582       9.92479969       3.81451971      -0.00105125      -0.00413446      -0.00478943
C        9.84782649       1.40544485       3.82369058       0.00081597       0.00425066       0.00019255
C        8.62452126       3.53988790       3.79668591       0.00407695      -0.00119458       0.00213112
C        7.38148207       5.67341290       3.66019595      -0.00076263      -0.00822105      -0.00371350
C        6.11572322       7.81087925       3.53652278      -0.00292508      -0.00152102      -0.00228038
C        4.89294932       9.95278056       3.69266830       0.00000816       0.00274592      -0.00548893
Au       2.34735848       4.24961931       5.92305520       0.01025186      -0.00848693       0.00589136
O        3.54771022       4.91905510       7.33168101       0.00977618      -0.01043384      -0.01350265
O        2.85955564       4.68256278       8.59048073       0.00143274      -0.01007119       0.00228358
H        3.51217482       4.10442975       9.03286067       0.00488214       0.01118352       0.00607940
