52
Lattice="12.336457 0.0 0.0 -6.168228499999997 10.683685154694365 0.0 0.0 0.0 15.0" Properties=species:S:1:pos:R:3:initial_magmoms:R:1:forces:R:3 energy=-452.8566441873652 free_energy=-452.8566441873652 stress="0.003917219689466548 -9.85841724746177e-07 1.0755832904187277e-05 -9.85841724746177e-07 0.005322823098034425 1.6645722387670052e-05 1.0755832904187277e-05 1.6645722387670052e-05 -2.0238450486827317e-05" pbc="T T T"
C       -0.00178460      -0.02227662       3.63106356       0.00000000       0.00241267      -0.00114273       0.00081350
C       -1.22681374       2.12195983       3.69259510       0.00000000       0.00056857       0.00219535      -0.00316991
C       -2.45352979       4.24938758       3.70717435       0.00000000       0.00021168       0.00058875      -0.00282554
C       -3.69779936       6.38181648       3.67492510       0.00000000       0.00044939      -0.00558704      -0.00022912
C       -4.93867314       8.51915172       3.62886692       0.00000000      -0.00466098       0.00447959       0.00047743
C        2.47007561      -0.02077770       3.63990650       0.00000000      -0.00112136       0.00357764      -0.00011057
C        1.24122565       2.12716266       3.71811518       0.00000000      -0.00015168      -0.00256338       0.00118049
C        0.04607280       4.28882660       3.77055534       0.00000000      -0.00108461       0.00179489       0.00240911
C       -1.22100169       6.38588115       3.67433482       0.00000000       0.00131622       0.00195061      -0.00226390
C       -2.45692480       8.51918494       3.63448221       0.00000000       0.00302879       0.00187658       0.00246347
C        4.94180275      -0.02232575       3.63677418       0.00000000       0.00173064      -0.00137572      -0.00173434
C        3.69859941       2.12708451       3.71960687       0.00000000       0.00511273       0.00074286      -0.00017166
N        2.47013158       4.13331967       4.26184464       0.00000000      -0.00066708      -0.00073682       0.00522893
O        1.17314008       6.40569387       3.57321296       0.00000000      -0.01155231       0.00827182       0.00029479
C        0.01450329       8.50538826       3.60332542       0.00000000       0.00184854      -0.00328127       0.00175306
C        7.41347416      -0.04162895       3.63135871       0.00000000      -0.00345360      -0.00250368      -0.00458793
C        6.16659651       2.12220136       3.69342840       0.00000000       0.00401081       0.00226450      -0.00111138
C        4.89440290       4.28937492       3.77051609       0.00000000       0.00112351      -0.00479710      -0.00240363
O        3.76766597       6.40645778       3.57538624       0.00000000       0.00806949       0.00264775      -0.00552247
C        2.47029311       8.44228259       3.56738866       0.00000000      -0.00209611      -0.00261406       0.00091178
C        9.86284053      -0.04170937       3.62874695       0.00000000       0.00664346      -0.00287569      -0.00362768
C        8.63823067       2.10919473       3.68252347       0.00000000      -0.00112380       0.00461021      -0.00270063
C        7.39412573       4.24960888       3.70545197       0.00000000      -0.00324873      -0.00164696       0.00083651
C        6.16192380       6.38610846       3.66768694       0.00000000      -0.00112763       0.00072155       0.00294227
C        4.92641610       8.50562307       3.59513522       0.00000000      -0.00360116      -0.00116779       0.00209866
C        0.00279272       1.41001256       3.66956905       0.00000000      -0.00025978      -0.00172605      -0.00167894
C       -1.19946058       3.55792609       3.72427201       0.00000000       0.00029537       0.00229741      -0.00462610
C       -2.46056147       5.66767691       3.69238541       0.00000000       0.00532926      -0.00160514       0.00177209
C       -3.69775715       7.80792117       3.64538954       0.00000000      -0.00139856      -0.00033707       0.00399598
C       -4.93483365       9.94958722       3.62693241       0.00000000      -0.00018101       0.00444307       0.00380571
C        2.46983008       1.40579343       3.68774125       0.00000000       0.00275239       0.00154144      -0.00182796
C        1.28368676       3.54898028       3.89207290       0.00000000       0.00063256       0.00174316       0.00120377
C        0.00025777       5.70085646       3.68228389       0.00000000      -0.00321176       0.00342550       0.00652095
C       -1.22763140       7.80772070       3.63545797       0.00000000       0.00478969      -0.00022260      -0.00562120
C       -2.46134713       9.94957039       3.63206412       0.00000000      -0.00100327       0.00384617      -0.00257182
C        4.93699759       1.40998401       3.67239494       0.00000000       0.00646214       0.00067345      -0.00115489
C        3.65685044       3.54900998       3.89275538       0.00000000      -0.00285045       0.00325397      -0.00306268
C        1.20922894       7.77976647       3.56808248       0.00000000      -0.00146802       0.00066348       0.00266767
C        0.01046618       9.94228027       3.61921476       0.00000000      -0.00148951      -0.00783059       0.00421550
C        7.40447545       1.39772203       3.66882007       0.00000000      -0.00037129       0.00184655      -0.00473623
C        6.13976912       3.55836415       3.72305897       0.00000000       0.00018830      -0.00152706      -0.00042049
C        4.94061057       5.70138600       3.68093529       0.00000000       0.00280114      -0.00339626       0.00001627
C        3.73162230       7.78025634       3.56493453       0.00000000      -0.00320436      -0.00023737       0.00261446
C        2.46995552       9.89728337       3.60806690       0.00000000       0.00092021      -0.00237107      -0.00490418
C        9.87179609       1.39754987       3.66748903       0.00000000       0.00101961       0.00212092      -0.00234890
C        8.63847790       3.53504614       3.70064570       0.00000000      -0.00224160       0.00393686       0.00113638
C        7.40132704       5.66786119       3.68971503       0.00000000      -0.00399188      -0.00375992      -0.00284671
C        6.16857240       7.80777705       3.62560707       0.00000000      -0.00540603       0.00231397       0.00571661
C        4.92960571       9.94233770       3.61345051       0.00000000       0.00616907      -0.00499314       0.00120515
Au       2.47781931       5.22293085       6.13197998       0.00000000      -0.00280431      -0.00347684      -0.00157542
O        2.18085241       5.48642153       8.74864933       1.00000000       0.00251522       0.00037627      -0.00610188
O        2.52920005       6.30100533       7.80161882       1.00000000      -0.00663055      -0.00642898       0.01765566
