51
Lattice="12.336457 0.0 0.0 -6.168228499999997 10.683685154694365 0.0 0.0 0.0 15.0" Properties=species:S:1:pos:R:3:initial_magmoms:R:1:forces:R:3 energy=-439.97893494788195 free_energy=-439.97893494788195 stress="0.0006213245480422716 -0.002778214523318429 3.053213815238025e-06 -0.002778214523318429 0.005384517340698888 2.2103768307312358e-05 3.053213815238025e-06 2.2103768307312358e-05 3.7626505202393925e-05" pbc="T T T"
C       -0.06166150      -0.05416999       3.82990603       0.00000000      -0.00651215       0.01511992       0.00832637
C       -1.31307104       2.07227497       3.87129090       0.00000000       0.01590059       0.00091315       0.00899179
C       -2.52335297       4.21435165       3.80961550       0.00000000      -0.00218537       0.00517136       0.00678721
C       -3.73608223       6.36276456       3.75796153       0.00000000      -0.01953696      -0.01619438      -0.02657124
C       -4.98062746       8.50740470       3.75270892       0.00000000       0.00536230      -0.00469105       0.02499799
C        2.40813563      -0.03238381       3.87788803       0.00000000      -0.00190218      -0.02169795      -0.00614258
C        1.13333257       2.11047986       4.05745157       0.00000000       0.02219619       0.00486495      -0.01611007
C       -0.06248920       4.18853368       4.11324546       0.00000000       0.00714786      -0.00994551      -0.03471489
C       -1.28351704       6.35100442       3.89485971       0.00000000       0.00749740      -0.00910944       0.00584807
C       -2.51478654       8.49913530       3.82265229       0.00000000       0.01343149       0.00760826       0.00020704
C        4.87616007      -0.05294364       3.70727116       0.00000000       0.01284359       0.02625449       0.00285350
C        3.59600077       2.05388789       3.52127388       0.00000000      -0.01961472      -0.00940412      -0.00295114
N        1.12323706       6.35302280       4.01647980       0.00000000       0.01547924       0.00603977       0.01354754
C       -0.04300627       8.46706210       3.77798207       0.00000000      -0.01168881       0.00216851      -0.00560532
C        7.34718980      -0.08166684       3.65085519       0.00000000      -0.00492813      -0.01644404       0.01082604
C        6.09255749       2.09539735       3.50575912       0.00000000       0.00618249       0.00021773      -0.01100840
C        4.95942614       4.32327572       3.20254706       0.00000000       0.00458234      -0.00626812      -0.02107480
O        3.75958572       6.40334536       3.24992823       0.00000000       0.01929782       0.00536036       0.00424998
C        2.43759727       8.40454386       3.64906364       0.00000000      -0.02040865      -0.00287075       0.01879056
C        9.79915870      -0.08655838       3.70722056       0.00000000      -0.00973275       0.00472049      -0.00733044
C        8.56457794       2.07209543       3.67164048       0.00000000      -0.00369018       0.02037647       0.01258363
C        7.35778270       4.23047904       3.57947113       0.00000000      -0.00924356       0.00132133      -0.01022684
C        6.16067085       6.39551857       3.49480854       0.00000000       0.00096586      -0.00229473       0.00989226
C        4.88741267       8.48493663       3.59752520       0.00000000      -0.00242066      -0.00752016       0.01808252
C       -0.07714758       1.37347009       3.92564504       0.00000000       0.02453520       0.01428901      -0.00096442
C       -1.29622250       3.49894825       3.91267433       0.00000000      -0.00268027      -0.00598151       0.01138057
C       -2.51019575       5.63860618       3.83558405       0.00000000      -0.00971227      -0.00204022      -0.02821188
C       -3.74362447       7.78894109       3.78794224       0.00000000       0.00799913      -0.00778850       0.00950946
C       -4.98948409       9.93103340       3.84876849       0.00000000      -0.01196804       0.00056855      -0.01620411
C        2.39000064       1.39950300       3.87564923       0.00000000      -0.00248508      -0.02653223      -0.01885885
N        1.05103443       3.44611956       4.38196027       0.00000000       0.00947625       0.00452132      -0.00212993
C       -0.02717100       5.65703937       4.01598784       0.00000000       0.01866011      -0.00593495       0.00725375
C       -1.28091951       7.77462736       3.83386146       0.00000000       0.00406448      -0.00695630       0.00607126
C       -2.52163685       9.93029374       3.80814050       0.00000000       0.02006286       0.01442763       0.01629534
C        4.85796227       1.38264303       3.56608776       0.00000000      -0.00406598       0.01858210      -0.01532938
S        3.41569217       3.65151603       2.85809354       0.00000000       0.00323729       0.00784341      -0.00369869
C        1.17680951       7.68895240       3.80350601       0.00000000      -0.01986774       0.00856810       0.01685762
C       -0.05055379       9.89829339       3.70301824       0.00000000      -0.00647957      -0.00168833      -0.00496218
C        7.32616706       1.36334112       3.60057359       0.00000000       0.00267815      -0.00806312       0.01767617
C        6.11376709       3.53252612       3.42566743       0.00000000       0.00507909      -0.00475110      -0.01842864
C        4.96855680       5.72897975       3.26636869       0.00000000       0.00475170      -0.00418116       0.02321138
C        3.69230280       7.75618563       3.50630567       0.00000000      -0.01440518       0.00518594      -0.00519591
C        2.41091817       9.84938393       3.66365676       0.00000000      -0.00980482      -0.00833754       0.00881603
C        9.79458459       1.35207856       3.75334647       0.00000000       0.00366137       0.01586623      -0.01046883
C        8.57948811       3.50150923       3.68756489       0.00000000      -0.00671148       0.02203537       0.01590222
C        7.37603351       5.65398445       3.61535960       0.00000000      -0.01883975      -0.01165498      -0.01686081
C        6.13765204       7.80657314       3.60854661       0.00000000       0.00612080      -0.00419890       0.01221001
C        4.87227532       9.90642202       3.71776259       0.00000000      -0.00815213      -0.00039913       0.00969226
Au       2.55272343       4.47191720       5.50376171       0.00000000       0.00540671      -0.00806442      -0.04235870
O        4.14302289       5.38082958       6.38803408       1.00000000      -0.00062613      -0.04664856      -0.07073155
O        4.31152362       6.52214537       5.80990545       1.00000000      -0.01895772       0.04763675       0.09527905
