52
Lattice="12.336457 0.0 0.0 -6.168228499999997 10.683685154694365 0.0 0.0 0.0 15.0" Properties=species:S:1:pos:R:3:forces:R:3 energy=-442.79953834128906 free_energy=-442.79953834128906 stress="-0.0003472490271980568 -0.0017578901168727782 1.3961432227411127e-05 -0.0017578901168727782 0.005660197690334316 3.921147926134423e-05 1.3961432227411127e-05 3.921147926134423e-05 6.395499200313088e-06" pbc="T T T"
C       -0.01224664       0.02509246       3.59736769      -0.00188609      -0.00503690      -0.00015182
C       -1.25926161       2.15359423       3.59023154      -0.00144329       0.00404737      -0.00178148
C       -2.47691737       4.29157726       3.57134308      -0.00393320      -0.00817861       0.01305914
C       -3.69459729       6.43278314       3.56925774      -0.00563737       0.01267478      -0.01045541
C       -4.92879563       8.58221993       3.56634806      -0.00679638       0.00239641      -0.00260072
C        2.44625931       0.04780429       3.63817633       0.00240863      -0.00605648       0.00341029
C        1.17897098       2.18594604       3.66365614      -0.00958006       0.00387275       0.00617920
C       -0.03876569       4.29234762       3.53908533       0.00651366       0.01076131       0.00340154
C       -1.22722690       6.40852966       3.53736098       0.00663601      -0.00372470       0.00300026
C       -2.46176737       8.56757439       3.58614699       0.00828035      -0.00366603      -0.00796796
C        4.92468839       0.01489198       3.75641868       0.00111877      -0.00523618       0.00651546
C        3.66119966       2.12487176       4.04207559       0.00743330       0.01127601      -0.01268144
O        1.16516592       6.42087599       3.54712556       0.00919397      -0.00771007       0.00246860
C        0.00036942       8.53489076       3.64393658      -0.00720031      -0.00305915       0.00176796
C        7.39189609      -0.01157126       3.74150735      -0.00461085       0.01483209      -0.00893699
C        6.15317099       2.15528849       3.89591820      -0.00262763       0.00401810      -0.00297807
C        4.98587674       4.36614413       4.07040670       0.00793208       0.00292537      -0.00000789
N        3.78380933       6.45078720       4.00661387       0.00604604      -0.00496258       0.00568851
C        2.43958852       8.48276220       3.70852467      -0.00802535      -0.01136304      -0.00282062
C        9.84271302      -0.01261367       3.66291206       0.01052108       0.00833874      -0.00501175
C        8.61479488       2.14305987       3.69462182      -0.00155385      -0.00687906      -0.00675347
C        7.40197082       4.29559789       3.72184317      -0.00203495      -0.00174220      -0.00106777
C        6.19935371       6.46119131       3.68234388      -0.01491521      -0.00075702       0.00303696
C        4.92945514       8.55368397       3.65879962       0.00787233      -0.00224929      -0.00886759
C       -0.01861434       1.46109750       3.60174322      -0.00741407      -0.00366327      -0.00296067
C       -1.24360739       3.58486349       3.55462628       0.00776562       0.00588178       0.01068014
C       -2.46619147       5.70641854       3.54779060       0.00019411      -0.00408010       0.00857978
C       -3.69813918       7.86075457       3.55913603       0.00108111       0.01160827      -0.00307777
C       -4.94361195      10.01101473       3.58018560       0.00002970      -0.00504346       0.00256698
C        2.41925472       1.47659545       3.76438812      -0.00277704       0.00294732      -0.00445020
O        1.14878847       3.57267697       3.57219961       0.00796397       0.01031298      -0.00046812
C       -0.02004779       5.70413610       3.53077380       0.01109023       0.00304809       0.00666952
C       -1.23500601       7.83950613       3.58097612       0.00279633      -0.00447655       0.00369473
C       -2.47977446      10.00296472       3.65595839       0.00634051      -0.00829367      -0.00275423
C        4.91519901       1.44417840       3.91717404       0.00159537       0.00170646      -0.00642113
P        3.54556986       3.71215646       4.74252286       0.00094628       0.00890278       0.00458351
C        1.19992249       7.79922760       3.64033261      -0.01153302      -0.00950681       0.00181242
C       -0.00621612       9.97204959       3.71987700      -0.00300559      -0.00110080      -0.00216768
C        7.38268092       1.43083020       3.77974630      -0.00398158       0.00909187      -0.00528009
C        6.16338694       3.59417504       3.90038125       0.00077115      -0.00037095      -0.00913708
C        4.95466459       5.80173136       3.90584174       0.00146574      -0.00578557       0.01123244
C        3.71330772       7.78166863       3.78024229       0.00706182      -0.00920262       0.00398551
C        2.44594121       9.92500311       3.70230344       0.00207577       0.00408918       0.00215243
C        9.85091966       1.42849037       3.64174740       0.00278876       0.01238742      -0.00181915
C        8.62095027       3.57449691       3.65516612      -0.00517692      -0.01451060       0.00699774
C        7.41100695       5.72347336       3.64617828      -0.01624363       0.00622014      -0.00090252
C        6.18064922       7.87001056       3.61546667      -0.00380565      -0.00187378      -0.00012379
C        4.91803197       9.97709978       3.62616488       0.00432268      -0.00046735      -0.00065095
Au       3.12289117       3.95399480       7.00474889       0.00007677       0.00771521       0.00153220
O        2.65412792       4.35598846       8.95378576      -0.01503297      -0.01244320       0.00305738
O        3.28439172       3.33373878       9.72701296      -0.00073596      -0.00333979       0.00587804
H        3.66452433       3.87819802      10.44378303       0.00762883      -0.00427461      -0.00965439
