51
Lattice="12.336457 0.0 0.0 -6.168228499999997 10.683685154694365 0.0 0.0 0.0 15.0" Properties=species:S:1:pos:R:3:initial_magmoms:R:1:forces:R:3 energy=-437.78604788471125 free_energy=-437.78604788471125 stress="-0.005803162407105914 0.00026889286241658326 -2.6699655954919044e-05 0.00026889286241658326 -0.00019264860048819773 -2.0497495309171062e-05 -2.6699655954919044e-05 -2.0497495309171062e-05 5.894759385289487e-06" pbc="T T T"
C       -0.01666768       0.03102443       3.68167513       0.00000000       0.00003350      -0.00642879      -0.00801684
C       -1.27648456       2.13342522       3.90140095       0.00000000       0.00105021      -0.00284159      -0.00125526
C       -2.52460652       4.28318799       3.89820689       0.00000000      -0.00442285      -0.00252647      -0.00014288
C       -3.72160334       6.43236957       3.66591549       0.00000000       0.00446853       0.00254992      -0.00563279
C       -4.95811576       8.57781892       3.53141590       0.00000000      -0.00052278       0.00515742       0.00282479
C        2.44449012       0.07952800       3.66306205       0.00000000       0.00359715      -0.00340707      -0.00594309
C        1.18586602       2.20031781       3.88907382       0.00000000      -0.00093998       0.00276766       0.00378580
C       -0.13279857       4.22894979       4.30655895       0.00000000       0.00041055       0.00313664      -0.00216372
C       -1.30232321       6.42537815       4.13039446       0.00000000       0.00679770       0.00057672       0.00244668
C       -2.49559917       8.58122726       3.78285845       0.00000000      -0.00364252      -0.00457514       0.00175403
C        4.90843775       0.02735940       3.62821480       0.00000000      -0.00578309       0.00468880       0.00273571
C        3.70519208       2.20163440       3.45360760       0.00000000      -0.00323062       0.00457048      -0.00220136
P        1.30749412       6.46262155       5.05316915       0.00000000      -0.00192900      -0.00509757      -0.00188497
C       -0.02923698       8.57214212       3.91109851       0.00000000      -0.00372007       0.00311797       0.00305953
C        7.37806786       0.00849971       3.64454968       0.00000000      -0.00338675      -0.00191232       0.00154851
C        6.16853194       2.12936557       3.42029587       0.00000000       0.00224245      -0.00187280       0.00764675
C        5.02744760       4.23253621       3.03925671       0.00000000       0.00188925       0.00252447      -0.00709798
S        3.60596642       6.43722700       2.34809233       0.00000000      -0.00573099       0.00033947       0.00593082
C        2.44577919       8.56739748       3.63930583       0.00000000       0.00501623      -0.00217179       0.00759820
C        9.85052248       0.01002904       3.64217181       0.00000000      -0.00198990       0.00263060      -0.00146401
C        8.61524790       2.14137530       3.65597411       0.00000000      -0.00241928      -0.00123427       0.00074889
C        7.41923468       4.28308246       3.43283438       0.00000000      -0.00581086      -0.00244824       0.00333569
C        6.18908322       6.42386667       3.19905876       0.00000000       0.00065944       0.00020025       0.00207821
C        4.92035615       8.57226693       3.37551180       0.00000000       0.00380139      -0.00438670       0.00346198
C       -0.03018441       1.44829173       3.84773501       0.00000000       0.00014444      -0.00511814       0.00048889
C       -1.32795493       3.53765118       4.07800773       0.00000000       0.00025476      -0.00040777      -0.00566699
C       -2.52102183       5.71178028       3.90595188       0.00000000       0.00637626       0.00051147      -0.00252843
C       -3.72467176       7.86407035       3.66120054       0.00000000      -0.00396782       0.00381898      -0.00455766
C       -4.95084710      10.01771271       3.63105951       0.00000000       0.00329554       0.00154049      -0.00983362
C        2.44496403       1.52163608       3.66924434       0.00000000      -0.00307895      -0.00064268      -0.00605105
N        1.05285776       3.54940019       4.15325083       0.00000000       0.00638042       0.00891341      -0.00286582
C       -0.15643391       5.65615162       4.44332514       0.00000000       0.00484353      -0.00053817       0.00004751
C       -1.27517327       7.86326983       3.97539199       0.00000000      -0.00087481      -0.00158014       0.00006504
C       -2.49779577      10.01781197       3.68609331       0.00000000      -0.00013754      -0.00620273      -0.00293715
C        4.92175647       1.44576118       3.47480299       0.00000000      -0.00175569       0.00392654      -0.00642603
N        3.83823367       3.55728296       3.22115505       0.00000000       0.00115787       0.00492645      -0.00517078
C        1.22682847       7.90510917       4.00995059       0.00000000       0.00011829       0.00430441       0.00817279
C       -0.02796005       9.99064294       3.70569263       0.00000000      -0.00728899       0.00363857       0.00236589
C        7.38820882       1.42600193       3.56514670       0.00000000       0.00137214      -0.00333041       0.00170952
C        6.22283896       3.53712711       3.25768309       0.00000000      -0.00290512      -0.00240169       0.00009129
C        5.05781338       5.64868838       2.89134102       0.00000000      -0.00294654       0.00402594      -0.00038900
C        3.66510964       7.92507287       3.24975795       0.00000000       0.00433580      -0.00399539       0.00330779
C        2.44745670       9.99076771       3.63687959       0.00000000      -0.00089672      -0.00040099       0.00292805
C        9.84203810       1.42830343       3.74096878       0.00000000      -0.00129977       0.00239168      -0.00311155
C        8.61640966       3.56647526       3.66340302       0.00000000      -0.00648611      -0.00322255      -0.00416063
C        7.41277198       5.71056793       3.42771863       0.00000000       0.00206448      -0.00108813       0.00059949
C        6.15869186       7.86076282       3.33121835       0.00000000       0.00390354      -0.00120115       0.01125634
C        4.92014554       9.99374524       3.58479354       0.00000000      -0.00205835      -0.00618415       0.01122805
Au       2.45155137       4.95618703       3.72749175       0.00000000       0.00503730      -0.00380145      -0.00186021
O        2.58252681       4.85824117       8.87246482       1.00000000       0.00125523       0.00832376       0.00516391
O        3.33055165       3.90921797       8.61012414       1.00000000       0.00671909       0.00043616      -0.00501833
