51
Lattice="12.336457 0.0 0.0 -6.168228499999997 10.683685154694365 0.0 0.0 0.0 15.0" Properties=species:S:1:pos:R:3:initial_magmoms:R:1:forces:R:3 energy=-434.7569287258683 free_energy=-434.7569287258683 stress="0.00025536371685759465 0.0003750780567447667 -1.804367022845152e-06 0.0003750780567447667 0.004224175562944097 -3.1998969154963444e-06 -1.804367022845152e-06 -3.1998969154963444e-06 -1.269171844410866e-05" pbc="T T T"
C       -0.06104023      -0.11900502       3.46238634       0.00000000       0.00447433       0.00412521      -0.01984450
C       -1.29299353       2.01732979       3.36674544       0.00000000      -0.00786540      -0.00342440       0.01431131
C       -2.51855753       4.14989051       3.40510539       0.00000000      -0.00159016      -0.00131533      -0.01025040
C       -3.75639143       6.28261153       3.49818715       0.00000000      -0.00230629      -0.00830822       0.00483412
C       -5.00042774       8.42396921       3.54625432       0.00000000      -0.00177705       0.00230262       0.00356113
C        2.39188289      -0.09587676       3.47307672       0.00000000      -0.00347052      -0.00550775      -0.01384696
C        1.14145026       2.04672608       3.45805086       0.00000000      -0.00115640       0.00421350       0.02545306
C       -0.07490356       4.15149248       3.33795212       0.00000000      -0.00514113      -0.00696594      -0.00867387
C       -1.28567919       6.26566817       3.34665573       0.00000000       0.01384229       0.00370722       0.01586299
C       -2.52758255       8.41961834       3.41407827       0.00000000      -0.00848778      -0.01083910      -0.01243603
C        4.87116857      -0.12923412       3.51307913       0.00000000      -0.00630947       0.00597470      -0.00915173
C        3.62420779       1.97770329       3.90007204       0.00000000       0.00258061       0.01323502       0.01541716
O        1.10399624       6.28473104       3.37792933       0.00000000       0.00323076       0.00257873      -0.00881084
C       -0.06232148       8.39386088       3.40054442       0.00000000      -0.00094433       0.00991922       0.01154497
C        7.33709991      -0.14404475       3.44671926       0.00000000      -0.00488829      -0.00864319       0.01597438
C        6.11856999       1.99270754       3.71615346       0.00000000       0.01749330      -0.00513074       0.00608405
C        4.98869927       4.12448662       4.24467505       0.00000000       0.00669194       0.00480376      -0.00510270
P        3.55255103       6.27973805       4.85540709       0.00000000      -0.00566449       0.01352154      -0.01556435
C        2.37416536       8.38269362       3.57606684       0.00000000      -0.00536006       0.00035046      -0.00041805
C        9.80061162      -0.14168936       3.43724606       0.00000000      -0.00156461       0.00058107       0.02770939
C        8.57514462       2.00117196       3.45673181       0.00000000      -0.00715429      -0.00697031       0.03329674
C        7.36649674       4.13718881       3.66529396       0.00000000       0.00623503      -0.00083857      -0.00604018
C        6.14886285       6.29125579       3.86525110       0.00000000       0.00685510       0.00775338      -0.00912836
C        4.86523680       8.42088880       3.71686020       0.00000000       0.00634458       0.00576598       0.00706338
C       -0.05667630       1.31973877       3.40110904       0.00000000      -0.00157957       0.00405451      -0.00493255
C       -1.28043250       3.44844304       3.34999596       0.00000000      -0.00582094      -0.00708134      -0.00280068
C       -2.52150951       5.56252816       3.40379617       0.00000000       0.00929517       0.00132704      -0.00608808
C       -3.76550466       7.71083676       3.47493601       0.00000000      -0.00877531      -0.01156602       0.02222308
C       -4.99914619       9.85797715       3.47828356       0.00000000      -0.00205876      -0.00048509      -0.00953731
C        2.38090218       1.33926646       3.57743965       0.00000000      -0.00189991      -0.00463574       0.02149008
O        1.11197989       3.42859721       3.35963765       0.00000000      -0.00037045       0.00754114       0.01191330
C       -0.08022709       5.56181658       3.33816886       0.00000000       0.00805800      -0.00702483       0.00380459
C       -1.29962200       7.69673616       3.37080826       0.00000000       0.00510721       0.00680863       0.01079136
C       -2.53829510       9.85644533       3.46001099       0.00000000      -0.00568490      -0.00810102      -0.00834238
C        4.86833644       1.29239963       3.71401006       0.00000000       0.00887073       0.00855673      -0.00284406
P        3.59062067       3.37760315       4.95791575       0.00000000      -0.00424684      -0.00862806       0.02278613
C        1.13366156       7.66712492       3.47357638       0.00000000      -0.00070864       0.00361441      -0.02150026
C       -0.06291203       9.83283114       3.44775365       0.00000000      -0.00737051       0.00438633      -0.00383445
C        7.34025381       1.28688793       3.52138373       0.00000000       0.00110463      -0.01414388      -0.00311455
C        6.15545540       3.40530008       3.86682312       0.00000000       0.01299721       0.00127429      -0.02223130
C        4.99818450       5.54785165       4.22640819       0.00000000       0.00760681       0.00230576      -0.01164315
C        3.61481288       7.75373631       3.89830984       0.00000000      -0.00045757       0.00648849       0.00770384
C        2.39176379       9.81505222       3.44562058       0.00000000      -0.00333844      -0.00004217       0.00965278
C        9.81416850       1.29498584       3.39805648       0.00000000      -0.01225096      -0.00182657      -0.02139364
C        8.58372147       3.42844581       3.49573114       0.00000000      -0.00386505      -0.00441576      -0.02355551
C        7.36667173       5.56768841       3.66590447       0.00000000      -0.00368481      -0.00147805      -0.01375000
C        6.11375585       7.71296065       3.72710198       0.00000000       0.00558047       0.00678231      -0.00095196
C        4.87179595       9.84417885       3.51264155       0.00000000       0.00659668       0.00223479      -0.00904366
Au       3.44264804       6.54732700       7.16069675       0.00000000      -0.01471329      -0.01018752      -0.02913550
O        3.51345839       7.83301491       9.67094662       1.00000000      -0.00271563      -0.00682857       0.02176193
O        3.24896926       6.63235051       9.32478089       1.00000000       0.01025699       0.01018134       0.00072721
