51
Lattice="12.336457 0.0 0.0 -6.168228499999997 10.683685154694365 0.0 0.0 0.0 15.0" Properties=species:S:1:pos:R:3:initial_magmoms:R:1:forces:R:3 energy=-436.1317687632499 free_energy=-436.1317687632499 stress="0.0017519977094418728 -0.0019676223651467904 4.733279831759853e-06 -0.0019676223651467904 0.0062180028271105435 -1.0012138863777481e-06 4.733279831759853e-06 -1.0012138863777481e-06 -2.5057646798777614e-05" pbc="T T T"
C       -0.16114484       0.11575384       3.56372184       0.00000000       0.00073920       0.00082198      -0.00069411
C       -1.40473816       2.24693693       3.56763917       0.00000000      -0.00088047       0.00116866      -0.00039449
C       -2.62475737       4.38118660       3.55686921       0.00000000      -0.00032956      -0.00007380      -0.00099721
C       -3.84929042       6.51839882       3.54249170       0.00000000       0.00007457       0.00009820       0.00131394
C       -5.08913156       8.66298646       3.53338676       0.00000000      -0.00119652      -0.00052496       0.00010707
C        2.29691762       0.13091463       3.60417203       0.00000000       0.00034051       0.00022549       0.00053428
C        1.03308925       2.27420735       3.64561168       0.00000000       0.00005196      -0.00013906      -0.00002869
C       -0.17863601       4.37928161       3.54618057       0.00000000       0.00031352       0.00010021       0.00029362
C       -1.37222988       6.49471566       3.53233842       0.00000000      -0.00044286      -0.00129886      -0.00025653
C       -2.61040528       8.65058860       3.55412693       0.00000000       0.00000470      -0.00022077       0.00114910
C        4.78102637       0.09702303       3.68842301       0.00000000       0.00010698      -0.00008572       0.00055268
C        3.51811321       2.20429494       3.99546935       0.00000000       0.00104035       0.00028387      -0.00029101
O        1.02562501       6.50176614       3.54658495       0.00000000      -0.00006741       0.00023488      -0.00044751
C       -0.13769403       8.61482807       3.59584724       0.00000000       0.00040261       0.00007485       0.00015633
C        7.24766005       0.07916942       3.66230310       0.00000000      -0.00001602       0.00090007      -0.00111249
C        6.00019789       2.25320372       3.80573738       0.00000000      -0.00057497      -0.00043417      -0.00163377
C        4.81172841       4.47876849       3.97899431       0.00000000       0.00058046       0.00030467       0.00002838
O        3.62164661       6.55308282       3.82891015       0.00000000      -0.00050811      -0.00040686      -0.00064638
C        2.31125851       8.56305996       3.62702265       0.00000000       0.00069936       0.00030073      -0.00109628
C        9.69575012       0.08073663       3.60041556       0.00000000       0.00032880      -0.00043478      -0.00000440
C        8.46573842       2.23550320       3.63245819       0.00000000      -0.00019696       0.00008803      -0.00042226
C        7.24409989       4.38605916       3.65798966       0.00000000       0.00034152      -0.00065194      -0.00025605
C        6.02724102       6.54440800       3.62472343       0.00000000       0.00052469      -0.00034361      -0.00229207
C        4.77068795       8.64191720       3.58646586       0.00000000      -0.00028221       0.00024204       0.00023128
C       -0.16449920       1.55301350       3.57963889       0.00000000      -0.00052089       0.00094921       0.00106965
C       -1.38661120       3.67720239       3.55101414       0.00000000      -0.00019318       0.00099805      -0.00037295
C       -2.61420261       5.79499669       3.53709539       0.00000000      -0.00061806      -0.00037622      -0.00004852
C       -3.85059470       7.94589818       3.53229019       0.00000000      -0.00063178      -0.00001529       0.00003069
C       -5.09404517      10.09608493       3.54959595       0.00000000       0.00016838      -0.00027320       0.00128727
C        2.27011539       1.56060032       3.73116116       0.00000000       0.00075026       0.00038003       0.00111926
O        1.00840288       3.66093174       3.57373130       0.00000000      -0.00062061      -0.00097225      -0.00014381
C       -0.16146748       5.79246321       3.53636337       0.00000000       0.00011415      -0.00011048      -0.00089382
C       -1.38017936       7.92294971       3.55515308       0.00000000       0.00015324      -0.00119656       0.00149153
C       -2.62727731      10.08540820       3.61114492       0.00000000       0.00021028       0.00021369       0.00031958
C        4.77075735       1.52735884       3.83767102       0.00000000       0.00006751      -0.00065016       0.00136062
P        3.49122934       3.73786650       4.78454426       0.00000000       0.00046263       0.00000129      -0.00051539
C        1.05682877       7.88158626       3.59407206       0.00000000       0.00073606       0.00041582      -0.00083031
C       -0.14947889      10.05596781       3.64991716       0.00000000       0.00018306       0.00070468       0.00011246
C        7.23309787       1.52405197       3.69583605       0.00000000      -0.00051665       0.00062908      -0.00056283
C        6.00589647       3.69051104       3.81074677       0.00000000      -0.00004924      -0.00069337      -0.00012525
C        4.81935619       5.88511678       3.81674005       0.00000000       0.00060435       0.00041994       0.00061903
C        3.57885705       7.92020957       3.65887919       0.00000000       0.00019068      -0.00021941      -0.00105909
C        2.30491182      10.01700421       3.62745201       0.00000000       0.00010501       0.00039977       0.00055523
C        9.70421227       1.52545908       3.59353752       0.00000000      -0.00039830      -0.00024823      -0.00174958
C        8.47257404       3.66456705       3.60925757       0.00000000       0.00031233      -0.00018215       0.00053468
C        7.25584196       5.80855103       3.59908583       0.00000000       0.00070683      -0.00022135       0.00087645
C        6.02230980       7.95606631       3.56456717       0.00000000      -0.00121478      -0.00025657       0.00025161
C        4.76787882      10.07463215       3.57184456       0.00000000       0.00086387       0.00047280       0.00009228
Au       2.98479519       4.05560840       6.95018447       0.00000000       0.00032751      -0.00203767      -0.02217686
O        7.02350271       1.52160680       9.23397755       1.00000000      -0.00102168       0.00081984      -0.00043706
O        6.12465443       2.09593548       8.60920216       1.00000000      -0.00122511       0.00081953       0.02540170
