52
Lattice="12.336457 0.0 0.0 -6.168228499999997 10.683685154694365 0.0 0.0 0.0 15.0" Properties=species:S:1:pos:R:3:forces:R:3 energy=-440.87665918317236 free_energy=-440.87665918317236 stress="0.0014250237093311182 -0.002011387536958203 1.1372101924010655e-05 -0.002011387536958203 0.0060112814385073435 4.56641200178426e-05 1.1372101924010655e-05 4.56641200178426e-05 -3.152042511291784e-05" pbc="T T T"
C       -0.01699465       0.02615417       3.61622400       0.00444699      -0.00266757      -0.00030337
C       -1.26147803       2.15636980       3.61505249      -0.00099812       0.00005362      -0.00183012
C       -2.48095585       4.29132271       3.59528808      -0.00124036      -0.00244885       0.01190217
C       -3.70329307       6.42895640       3.58439509      -0.00762648       0.00640242      -0.00475378
C       -4.94359496       8.57455328       3.58083596      -0.00212160      -0.00359015      -0.00310398
C        2.44193847       0.04013566       3.66650922       0.00024635      -0.00170696       0.00263828
C        1.17749359       2.18434183       3.69492227      -0.00387370       0.00588575       0.00491873
C       -0.03716962       4.28972932       3.58001096       0.00219546       0.00652025       0.00175691
C       -1.22839125       6.40571243       3.57692346       0.00140441      -0.00465305      -0.00330739
C       -2.46573386       8.56105630       3.61642108       0.00834927       0.00265004      -0.00956842
C        4.92533221       0.00728853       3.76376131      -0.00162284       0.00000924       0.00085086
C        3.66245551       2.11713162       4.04771615       0.00415647       0.00147967      -0.00652359
O        1.16823582       6.41245407       3.57925707       0.01159565      -0.00384641       0.00818917
C        0.00677312       8.52563822       3.65654918      -0.00386230      -0.00447268       0.00003024
C        7.39230792      -0.01107460       3.73145545      -0.00278621       0.00747354      -0.00757414
C        6.14529346       2.16318898       3.86979252      -0.00173081       0.00372934      -0.00078385
C        4.95475331       4.38868032       3.98175864       0.00347762       0.00544760       0.00040777
O        3.76580215       6.46092466       3.83470590       0.00109660      -0.00468721       0.00532932
C        2.45564492       8.47325497       3.67084683      -0.00189125      -0.00528062      -0.00242039
C        9.83957342      -0.00972595       3.65607269       0.00758478       0.00822849      -0.00678269
C        8.60998697       2.14552560       3.69071397       0.00078518      -0.00036136      -0.00693829
C        7.38912666       4.29685195       3.69949182      -0.00109589      -0.00629035      -0.00247332
C        6.17491064       6.45607686       3.64178770      -0.00742512      -0.00276466       0.00162462
C        4.91589217       8.55285477       3.62436989       0.00017855      -0.00095583      -0.00353650
C       -0.02074330       1.46320736       3.63095518      -0.00105926      -0.00059954      -0.00482769
C       -1.24388087       3.58668093       3.58868798       0.00294993       0.00109744       0.00844966
C       -2.46928779       5.70530357       3.57751624      -0.00522353      -0.00118189       0.00615215
C       -3.70543389       7.85656671       3.58267176       0.00460843       0.00736959       0.00042282
C       -4.94934434      10.00696889       3.60443767       0.00291527      -0.00642911       0.00356610
C        2.41504891       1.46963998       3.78964422      -0.00213788       0.00235690      -0.00268869
O        1.15190174       3.57204025       3.60725008       0.00554171       0.01005300       0.00615127
C       -0.01866083       5.70255693       3.57146574       0.00805653       0.00277821       0.00302205
C       -1.23574474       7.83381935       3.61236120       0.00124033      -0.00477265       0.00124905
C       -2.48231207       9.99550333       3.68045390       0.00224200       0.00053168      -0.00505289
C        4.91483210       1.43909087       3.90841258       0.00131536       0.00149572      -0.00318238
P        3.58967656       3.69134869       4.76252258      -0.00116429       0.00539731      -0.00169214
C        1.20086244       7.79209670       3.63967598      -0.00309311      -0.00388415       0.00248869
C       -0.00520165       9.96649138       3.72181748      -0.00468360      -0.00138738      -0.00509268
C        7.37805707       1.43376871       3.76385641      -0.00051815       0.00704651      -0.00036739
C        6.14979628       3.60085035       3.85244905      -0.00290257       0.00004793      -0.00958076
C        4.96586829       5.79559273       3.81865438      -0.00381320       0.00081480       0.00107431
C        3.72371419       7.83098892       3.68815920       0.00090336      -0.00462134       0.00278548
C        2.44898947       9.92670820       3.68456839       0.00420262       0.00387861       0.00159898
C        9.84797764       1.43496211       3.64834616       0.00083429       0.00826877      -0.00023862
C        8.61663578       3.57491242       3.65662362       0.00044311      -0.00645332       0.00100273
C        7.40237198       5.71886654       3.63109940      -0.00917188      -0.00398413       0.00151318
C        6.16830752       7.86784600       3.59744674      -0.00355705      -0.00521216       0.00087108
C        4.91213314       9.98502877       3.62161224       0.00490832       0.00253426      -0.00273537
Au       3.22938911       4.02166098       7.00924659      -0.01169045      -0.00505855       0.00969659
O        2.80386481       4.51840327       8.94928412      -0.01158359      -0.00399305       0.01378173
O        3.31142771       3.45211337       9.75254945      -0.00572444      -0.01067553      -0.01088756
H        3.73294089       3.96895932      10.46600816       0.01691908       0.00042783       0.00477209
