51
Lattice="12.336457 0.0 0.0 -6.168228499999997 10.683685154694365 0.0 0.0 0.0 15.0" Properties=species:S:1:pos:R:3:initial_magmoms:R:1:forces:R:3 energy=-434.57072827829495 free_energy=-434.57072827829495 stress="-0.0009086492680933101 0.0041025622085995115 2.327857827497596e-05 0.0041025622085995115 0.00012190507435348673 -6.9790070239938095e-06 2.327857827497596e-05 -6.9790070239938095e-06 -0.00016857244746754053" pbc="T T T"
C       -0.05567484       0.04517629       3.68258003       0.00000000      -0.00122620       0.00316821      -0.00254512
C       -1.26500806       2.20830456       3.74929794       0.00000000      -0.00172399      -0.00305810       0.00215929
C       -2.51427055       4.33140088       3.57359028       0.00000000      -0.00241310      -0.00696429      -0.00385039
C       -3.77637089       6.45626993       3.48782750       0.00000000      -0.00469055       0.00160337      -0.00448111
C       -5.01257738       8.58622661       3.57964073       0.00000000      -0.00122396       0.00345637      -0.00700247
C        2.41924838       0.06109047       3.54483588       0.00000000      -0.00107289       0.00259462      -0.00208167
C        1.21881625       2.15782577       3.91553518       0.00000000      -0.00260175       0.00272178      -0.00182819
C       -0.08253823       4.43239735       3.91541363       0.00000000       0.00141793      -0.00978414       0.00482194
C       -1.31739137       6.49012525       3.53398141       0.00000000       0.00219600      -0.00405955       0.00360865
C       -2.54015068       8.59954870       3.45506228       0.00000000      -0.00113531       0.00022733      -0.00371346
C        4.87921464       0.04518555       3.43667495       0.00000000       0.00287707      -0.00590668       0.00345180
C        3.69959139       2.17314519       3.55161542       0.00000000       0.00069212       0.00203625      -0.00402598
O        1.08654530       6.51306666       3.71190473       0.00000000      -0.00190317       0.00398397      -0.00449760
C       -0.06799564       8.59394283       3.50254672       0.00000000       0.00056364      -0.00391893       0.00111625
C        7.35782847       0.03297161       3.48944811       0.00000000       0.00033071      -0.00575605       0.00229937
C        6.14042500       2.16467613       3.41188692       0.00000000       0.00823577       0.00504545      -0.00345407
C        4.92704094       4.24754310       3.58339867       0.00000000       0.00017851       0.00100480       0.00700319
P        3.62082672       6.34738659       4.75187885       0.00000000       0.01761016       0.01740010      -0.01334650
C        2.37760713       8.56758038       3.71359902       0.00000000      -0.00414172       0.00239272       0.00198488
C        9.81680480       0.04274516       3.63746537       0.00000000      -0.00097505       0.00451086      -0.00333599
C        8.60405652       2.18018775       3.51768243       0.00000000      -0.00076349       0.00097960       0.00595931
C        7.36042487       4.31293214       3.46062500       0.00000000       0.00562385       0.00514824       0.00477424
C        6.08746574       6.42155188       3.64492274       0.00000000      -0.00139667      -0.00585833      -0.00030157
C        4.86035911       8.57486393       3.76424482       0.00000000      -0.00028805      -0.00295047       0.00791431
C       -0.03931639       1.48022172       3.79075906       0.00000000       0.00242540      -0.00126281       0.00555451
C       -1.27587394       3.64155001       3.74591729       0.00000000       0.00092430      -0.00831049       0.00133419
C       -2.54123045       5.75085545       3.51627312       0.00000000      -0.00414774       0.00168911       0.00242713
C       -3.77930776       7.88305721       3.49621404       0.00000000      -0.00193933      -0.00301148      -0.00146573
C       -4.99265240      10.01886821       3.60260892       0.00000000      -0.00049380       0.00238209      -0.00006169
C        2.45688241       1.48819719       3.65480027       0.00000000      -0.00335331       0.00309661      -0.00278188
P        1.25353493       3.69358834       4.69172525       0.00000000      -0.00421119      -0.00962508      -0.00915593
C       -0.11713314       5.83459902       3.73157484       0.00000000      -0.00007059      -0.00504903      -0.00527569
C       -1.31504637       7.90196463       3.46983909       0.00000000       0.00013327      -0.00232372       0.00518460
C       -2.52940497      10.02921832       3.46102691       0.00000000      -0.00094681       0.00220622       0.00410612
C        4.89528398       1.47119755       3.43662500       0.00000000       0.00210701       0.00645068       0.00361831
O        3.72900187       3.55739463       3.56243576       0.00000000      -0.00470639       0.00138521       0.00414388
C        1.12594976       7.89603900       3.64708474       0.00000000      -0.00116186       0.00012002      -0.00174166
C       -0.05060915      10.01893116       3.45990564       0.00000000       0.00143268      -0.00409481      -0.00084558
C        7.36600736       1.46396540       3.45287388       0.00000000       0.00226672      -0.00572328      -0.00427493
C        6.13486477       3.57975882       3.43356216       0.00000000       0.00560236       0.00352846      -0.00529252
C        4.88611415       5.64749412       3.78857336       0.00000000      -0.00136459      -0.00075721       0.00465899
C        3.61819988       7.88143837       3.92394240       0.00000000      -0.00294158      -0.00306523       0.00233910
C        2.40778363       9.99710346       3.59274076       0.00000000       0.00163057       0.00336235      -0.00517849
C        9.83638404       1.47674324       3.62550232       0.00000000       0.00157285       0.00566025      -0.00110935
C        8.59689111       3.60644171       3.49963217       0.00000000       0.00137771       0.00043119      -0.00208675
C        7.33152343       5.73164444       3.50695349       0.00000000      -0.00288363       0.00589536       0.00310802
C        6.08869685       7.85523534       3.68553230       0.00000000       0.00009235      -0.00128877      -0.00039693
C        4.87752356      10.01288554       3.68664951       0.00000000      -0.00272552       0.00583604      -0.00203018
Au       2.35393728       4.05598964       6.68278398       0.00000000       0.03177208      -0.01881620      -0.21776475
O        3.56018559       4.08514974       9.20747361       1.00000000       0.00014985       0.00739412      -0.00844757
O        4.01523819       4.43280526       8.06132308       1.00000000      -0.03471066       0.00587328       0.24080564
