52
Lattice="12.336457 0.0 0.0 -6.168228499999997 10.683685154694365 0.0 0.0 0.0 15.0" Properties=species:S:1:pos:R:3:forces:R:3 energy=-436.31301499046316 free_energy=-436.31301499046316 stress="-0.000711118566058238 0.001398278519721606 -1.974317959122042e-05 0.001398278519721606 -0.0057096536326828205 -1.1763827247221238e-05 -1.974317959122042e-05 -1.1763827247221238e-05 2.7777853216145117e-05" pbc="T T T"
C        0.00980194      -0.02934657       3.72770436      -0.00384253       0.00056947       0.00092211
C       -1.20596737       2.13365691       3.54543536       0.00917730       0.00013819       0.00155088
C       -2.44032658       4.26806781       3.73281764       0.00124007      -0.00207281      -0.00029478
C       -3.68438563       6.38675022       3.91334118      -0.00156759      -0.00312385      -0.00369417
C       -4.93532686       8.51118905       3.94007709       0.00111769      -0.00305569      -0.00779743
C        2.47895518      -0.07466202       3.61615431      -0.00128156       0.01156756       0.00919120
C        1.24533995       2.00473541       3.14652072       0.00329123      -0.00026292      -0.01493625
C        0.00171799       4.31613370       3.48522319       0.00255068      -0.00327398       0.00955498
C       -1.19417051       6.39176999       3.97104472      -0.00640499      -0.00479494      -0.00148316
C       -2.45188353       8.51718060       3.92629334       0.00125063      -0.00291865       0.00642047
C        4.94974639      -0.02550748       3.66876146      -0.00136619       0.00787489       0.00931491
C        3.71944021       1.99087776       3.06848205      -0.00304958       0.00232830      -0.00670717
B        1.37130995       6.40505909       4.29818502       0.01414527      -0.00708779       0.01054209
C        0.00694773       8.56648081       4.03902941       0.00338679       0.00564965      -0.01068070
C        7.40626340       0.03122874       3.81858248       0.00818904      -0.00451713      -0.00609423
C        6.18884201       2.12220104       3.43475233      -0.01043684      -0.00155739       0.01091105
C        5.00232307       4.28974877       3.31067320      -0.00086757      -0.00436078       0.00772602
P        3.37145206       6.19748888       4.37395864      -0.00170437       0.00931063       0.00761246
C        2.46292997       8.64183822       4.15281323      -0.00054449       0.00378304      -0.00228724
C        9.89255138       0.02718316       3.85928644       0.00061095       0.00074671      -0.01652227
C        8.65772720       2.14214519       3.66144385      -0.00668462      -0.00028261      -0.00744435
C        7.42471213       4.26467637       3.65950965      -0.00368087       0.00218829      -0.00017397
C        6.16276417       6.37981142       3.92174822       0.00720478      -0.00701243      -0.00120622
C        4.93870137       8.54843942       4.07914070      -0.00162799      -0.00427473      -0.01049820
C        0.01193026       1.38321168       3.47196984       0.00924194       0.00052305       0.00349080
C       -1.20859210       3.55996199       3.57178109       0.00568534      -0.00175843      -0.00411081
C       -2.43861350       5.68507692       3.87853064      -0.00658923      -0.00372618      -0.00215165
C       -3.69178287       7.80682317       3.94736852       0.00086698      -0.00672709      -0.00441187
C       -4.92938375       9.92608098       3.78163157      -0.00225645       0.00286837       0.00041756
C        2.48255424       1.30147642       3.26044128       0.00053933       0.01110026       0.00214928
P        1.30001485       3.63185244       2.50482363      -0.01257195      -0.00105503       0.01060577
C        0.05241020       5.67366248       3.91256293      -0.00395085       0.00012111      -0.00221577
C       -1.21754345       7.81930514       4.01067701       0.00194601      -0.00171171      -0.00453686
C       -2.44985898       9.92961103       3.75410089      -0.00063288       0.00283957      -0.00122857
C        4.95842768       1.37845552       3.37977169      -0.00960837       0.00514037       0.00060753
P        3.66651580       3.60307516       2.36927602       0.00689172      -0.00237094       0.01816921
C        1.24908009       7.91661485       4.17861236       0.00234618       0.00295236      -0.00949901
C        0.00770606       9.98595555       3.85986772       0.00465377       0.00720220      -0.00824961
C        7.41431289       1.43617142       3.63578300      -0.00655383      -0.00655747      -0.00498565
C        6.20509744       3.54784739       3.43083659      -0.00319472      -0.00402912       0.00688293
C        4.95032114       5.62295793       3.79430374       0.00435209      -0.00563176       0.00274045
C        3.68139843       7.92095762       4.23959439      -0.00191492       0.00506889       0.00100998
C        2.47739458      10.04082748       3.96303691       0.00680957      -0.00081672      -0.00421375
C        9.89782492       1.43786714       3.69324326       0.00129042       0.00364811      -0.00823973
C        8.66048927       3.56079200       3.67765259      -0.00401123       0.00262907       0.01444005
C        7.41139371       5.67998747       3.83107736       0.00245378      -0.00218845       0.01301492
C        6.16374135       7.80533591       4.01775101       0.00256967      -0.00539460      -0.00460846
C        4.94851923       9.97346533       3.91036035      -0.00470911      -0.00054219       0.00341858
Cd       2.06664564       5.55636744       6.48551265      -0.00891798       0.00178246      -0.00243944
O        2.24868474       4.73567846       8.37437714      -0.00339592      -0.00678815       0.00040336
O        1.90748307       5.82854259       9.31272383      -0.00035722      -0.00355594       0.00007748
H        2.59696544       5.65969764       9.98344853       0.00991265       0.01141691      -0.00046273
