52
Lattice="12.336457 0.0 0.0 -6.168228499999997 10.683685154694365 0.0 0.0 0.0 15.0" Properties=species:S:1:pos:R:3:initial_magmoms:R:1:forces:R:3 energy=-445.23669011070024 free_energy=-445.23669011070024 stress="-0.003277355380806806 -0.0021512574070857993 4.114991125031937e-06 -0.0021512574070857993 -0.003498988318706592 6.791930994705526e-06 4.114991125031937e-06 6.791930994705526e-06 -1.480385586568478e-05" pbc="T T T"
C       -0.01528282      -0.03357032       3.57470773       0.00000000       0.00033345      -0.00037850       0.00004853
C       -1.27374652       2.08310135       3.66323911       0.00000000      -0.00097191       0.00388766      -0.00353254
C       -2.51335326       4.23216201       3.72166592       0.00000000       0.00658557      -0.00107132       0.01065065
C       -3.71599803       6.37574122       3.66367107       0.00000000      -0.00403863       0.00625754      -0.00255112
C       -4.94755093       8.51174819       3.53466605       0.00000000      -0.00684368      -0.00731238      -0.00764994
C        2.45515491      -0.03092206       3.73039524       0.00000000      -0.01123108      -0.00177704       0.00720161
C        1.19865399       2.08757523       3.81766717       0.00000000       0.00267807       0.00292185       0.00114813
C       -0.08610499       4.18183125       3.93449660       0.00000000       0.00607313       0.00466002       0.00156484
C       -1.26075822       6.36208115       3.93246036       0.00000000      -0.00239177      -0.00630657      -0.00665727
C       -2.47106452       8.50722927       3.77737635       0.00000000       0.00246968       0.00483233       0.00399210
C        4.91910360      -0.03049795       3.79058283       0.00000000      -0.00575506      -0.00468998       0.00444221
C        3.67528572       2.13289973       3.83755037       0.00000000       0.00976620      -0.00285367      -0.00624631
B        2.38643768       4.33016761       4.21840185       0.00000000      -0.00797721       0.00848585      -0.00578615
P        1.52353834       6.17786905       4.46682918       0.00000000       0.00628624      -0.00374394      -0.00063595
C        0.01151073       8.50029070       3.86244736       0.00000000       0.00064797       0.00050080      -0.00407740
C        7.37741156      -0.02583574       3.68195833       0.00000000      -0.00350735      -0.00101331       0.00329564
C        6.14269935       2.10602348       3.73173489       0.00000000       0.00144250      -0.00859828      -0.00801069
C        4.91717901       4.24526745       3.59643420       0.00000000       0.00567454       0.00260599       0.01255973
S        3.59950993       6.30683502       2.44080180       0.00000000      -0.00132857      -0.00344764       0.00150323
C        2.46327529       8.54552259       3.50432269       0.00000000       0.00614037       0.00339525       0.00439538
C        9.85100649      -0.02629162       3.52119514       0.00000000      -0.00003629       0.00494602      -0.00573967
C        8.60307042       2.10193298       3.64201174       0.00000000      -0.00484407       0.00059055      -0.00266714
C        7.37519378       4.24263526       3.62213256       0.00000000       0.00406596      -0.00397161      -0.00330738
C        6.16166996       6.37960254       3.36337025       0.00000000      -0.00038110       0.00027558      -0.00726754
C        4.92907995       8.52460032       3.29947285       0.00000000      -0.00226539       0.00190750      -0.00593911
C       -0.03251941       1.37805109       3.67959664       0.00000000      -0.00034334       0.00180946       0.00411773
C       -1.30464609       3.49487529       3.75571459       0.00000000       0.00932432       0.00436820       0.00712586
C       -2.49683231       5.65669779       3.77810291       0.00000000      -0.00594539      -0.00199301       0.00105469
C       -3.70931594       7.80069395       3.66087561       0.00000000       0.00090335       0.00642363      -0.00201481
C       -4.94529094       9.93981209       3.60967506       0.00000000      -0.00732123      -0.00964524      -0.00536823
C        2.44890512       1.39217103       3.81008966       0.00000000       0.00334097       0.00030373       0.00102667
C        1.14556321       3.48931975       3.97313119       0.00000000       0.00023309       0.00152950      -0.00535660
C       -0.08873013       5.58654575       4.09241068       0.00000000       0.00152413       0.00152811       0.00272330
C       -1.23659286       7.79311655       3.88758896       0.00000000       0.00149725      -0.00384249      -0.00086317
C       -2.47851884       9.93575426       3.77137232       0.00000000      -0.00857059       0.00384976      -0.00089686
C        4.90969974       1.39980340       3.78710991       0.00000000       0.00482968      -0.00979579      -0.00437020
C        3.68461374       3.57609633       3.86032632       0.00000000       0.00317004       0.00197426       0.01354364
C        1.28230465       7.82988618       3.84501999       0.00000000       0.00541640       0.00542480       0.00105596
C       -0.01285552       9.93534351       3.77611177       0.00000000      -0.00540640      -0.00022095       0.00045268
C        7.37271686       1.39434064       3.68344113       0.00000000      -0.00169231      -0.00449133       0.00415266
C        6.14937564       3.52914037       3.65926588       0.00000000       0.00372379      -0.00707500      -0.00170138
C        4.97823526       5.62090408       3.22534260       0.00000000       0.00257598       0.00201306       0.00114422
C        3.68202863       7.88476615       3.15771407       0.00000000       0.00206334       0.00071042      -0.00733130
C        2.44821451       9.96263041       3.55692585       0.00000000      -0.00000280       0.00469873      -0.00569038
C        9.83600356       1.38716236       3.60052624       0.00000000      -0.00461392       0.00476575      -0.00362583
C        8.59904355       3.52399620       3.65838162       0.00000000       0.00573548      -0.00020301       0.00695159
C        7.38843519       5.66587335       3.55789679       0.00000000      -0.00135131       0.00097164      -0.00181711
C        6.16166342       7.80471776       3.35095664       0.00000000      -0.00862190      -0.00240312       0.00176592
C        4.92132656       9.94820889       3.46192696       0.00000000       0.00066377       0.00203949       0.00567432
Cd       2.59636025       5.20926521       6.47526470       0.00000000       0.00086561       0.00272823       0.00074779
O        2.43253517       6.24295187       8.79023150       1.00000000      -0.01145862       0.00062011      -0.00941017
O        3.56618996       6.38035076       8.12454768       1.00000000       0.00886906      -0.00619160       0.01617515
