51
Lattice="12.336457 0.0 0.0 -6.168228499999997 10.683685154694365 0.0 0.0 0.0 15.0" Properties=species:S:1:pos:R:3:initial_magmoms:R:1:forces:R:3 energy=-431.39498442907393 free_energy=-431.39498442907393 stress="0.002648319671845706 0.0008534596504527853 3.058590585344019e-05 0.0008534596504527853 -0.008193500313795267 -5.811062895725025e-07 3.058590585344019e-05 -5.811062895725025e-07 6.41502098399408e-05" pbc="T T T"
C       -0.01827791      -0.03228308       3.62173809       0.00000000       0.00101144      -0.00337050      -0.00267791
C       -1.23268351       2.13348991       3.52206550       0.00000000      -0.00330600       0.00866827      -0.00147490
C       -2.48109274       4.25758481       3.58855633       0.00000000      -0.00554538      -0.00357134      -0.00895523
C       -3.72811782       6.37815265       3.62555425       0.00000000       0.00789053       0.00444743       0.00243366
C       -4.97588805       8.49156877       3.61142852       0.00000000      -0.00011101      -0.00151151       0.00545161
C        2.43681234      -0.09537783       3.85005501       0.00000000      -0.00052385      -0.00086547      -0.00583980
C        1.25776137       2.01390800       3.52467125       0.00000000      -0.00545003      -0.00322104      -0.00020357
C       -0.01852049       4.30417377       3.47428748       0.00000000       0.00562816      -0.00367112       0.00115061
C       -1.25217485       6.38594827       3.81091157       0.00000000       0.00527488      -0.00315873      -0.00306577
C       -2.48907217       8.49470288       3.86071235       0.00000000      -0.00114493       0.00406100       0.00332274
C        4.90869830      -0.03638439       3.97388069       0.00000000       0.00238323      -0.00194574      -0.00802703
C        3.64326910       2.05662490       3.90531649       0.00000000       0.00164437      -0.00270615       0.00595622
B        1.27653858       6.38859169       4.13005611       0.00000000      -0.00219049       0.00272739      -0.00772039
C       -0.01149969       8.53296329       3.98953502       0.00000000      -0.00041588      -0.00046953       0.00301577
C        7.37546286       0.02009769       3.90551653       0.00000000      -0.00079668      -0.00156311      -0.00620779
C        6.12946371       2.13385518       3.83521079       0.00000000       0.00722822       0.00571968      -0.00897583
C        4.86313942       4.26370308       3.53746673       0.00000000      -0.00243534      -0.00508461       0.00206659
S        3.42640657       6.36296425       2.73691301       0.00000000       0.00425760       0.00063366       0.00649690
C        2.44733111       8.59416063       3.79304219       0.00000000      -0.00082168       0.00345012       0.00285839
C        9.85621178       0.01704171       3.68832456       0.00000000       0.00130085      -0.00072147      -0.00176363
C        8.61436248       2.13908994       3.69231411       0.00000000       0.00059470      -0.01008236      -0.00336665
C        7.36429531       4.25486636       3.59108712       0.00000000       0.00433658       0.00593553      -0.00454900
C        6.13145316       6.38625534       3.35104591       0.00000000      -0.00104257       0.00111914       0.00760494
C        4.90078215       8.53859334       3.47434804       0.00000000      -0.00423225      -0.00063314       0.01448917
C       -0.00403337       1.40075004       3.54563885       0.00000000      -0.00653480      -0.00019789       0.00694044
C       -1.22622446       3.54979928       3.49779335       0.00000000      -0.00019231       0.00719299       0.00081348
C       -2.48818570       5.67467598       3.67657596       0.00000000       0.00405129      -0.00293187      -0.00889971
C       -3.72908210       7.79160215       3.69853396       0.00000000       0.00308715       0.00399403       0.00697131
C       -4.96906763       9.91175467       3.70013404       0.00000000       0.00126766      -0.00347451      -0.00088869
C        2.44813463       1.32321146       3.81010970       0.00000000       0.00031973      -0.00303006      -0.00893497
S        1.55469437       3.63640029       2.99242647       0.00000000      -0.01141007       0.00244805      -0.00217226
C       -0.00901534       5.66443892       3.79406267       0.00000000       0.00760881      -0.00402712       0.00354485
C       -1.24728677       7.80119176       3.91900445       0.00000000      -0.00174450       0.00028446      -0.00514950
C       -2.48652767       9.90898102       3.92467627       0.00000000      -0.00205870       0.00256719      -0.00558996
C        4.89699070       1.40053239       3.93832930       0.00000000       0.00784153      -0.00086565      -0.00757217
B        3.52260831       3.55251082       3.86829972       0.00000000      -0.00216643      -0.00157929      -0.00554008
C        1.24582878       7.86722163       3.97886669       0.00000000      -0.00025240       0.00294274      -0.00013931
C       -0.02198168       9.96770033       3.97629967       0.00000000       0.00157933      -0.00360691      -0.00628870
C        7.37195159       1.43676560       3.82283251       0.00000000       0.00286319      -0.00210000       0.00474219
C        6.11418532       3.54694912       3.65832777       0.00000000       0.00491698       0.00717044      -0.00196531
C        4.93051965       5.63133982       3.22529562       0.00000000       0.00211371      -0.00599762       0.00504368
C        3.63853255       7.92105480       3.43175539       0.00000000      -0.00386559       0.00276082       0.00019354
C        2.45184282      10.01619977       3.82343399       0.00000000      -0.00150586       0.00002435      -0.00195234
C        9.86383397       1.43948993       3.63693312       0.00000000       0.00309321      -0.00146400       0.00216380
C        8.60998770       3.55316557       3.62072248       0.00000000      -0.00320581      -0.00914455       0.00961435
C        7.37014335       5.67241494       3.50795948       0.00000000       0.00530741       0.00809144       0.00819651
C        6.12569259       7.80111234       3.43412887       0.00000000      -0.00444704      -0.00014324       0.01417067
C        4.91031507       9.96616295       3.60309285       0.00000000       0.00037092      -0.00123156       0.00696216
Cd       2.57059408       5.05834422       5.38723174       0.00000000      -0.01260982       0.00949628       0.00680422
O        2.47399250       5.32357928       8.31501367       1.00000000      -0.02125140      -0.00853482      -0.06299020
O        3.40641557       5.23225586       7.42930391       1.00000000       0.01328934       0.00716990       0.04990294
