52
Lattice="12.336457 0.0 0.0 -6.168228499999997 10.683685154694365 0.0 0.0 0.0 15.0" Properties=species:S:1:pos:R:3:forces:R:3 energy=-442.92740143977073 free_energy=-442.92740143977073 stress="-0.0030613864538444847 0.00325932833634993 5.997622961874582e-06 0.00325932833634993 0.002098305042979346 -5.047161111761383e-05 5.997622961874582e-06 -5.047161111761383e-05 1.1848807583650453e-05" pbc="T T T"
C        0.00904163       0.02348279       3.78994399      -0.00111695       0.00131964       0.00134397
C       -1.22069821       2.14925791       3.75128316       0.00144476       0.00380747       0.00211875
C       -2.45008683       4.28337813       3.64637877       0.00094621      -0.00679131      -0.00591730
C       -3.69878152       6.42065522       3.62749007      -0.00332831      -0.00157562       0.01486035
C       -4.94120276       8.56255035       3.72438435      -0.00363248       0.00670372      -0.00395487
C        2.47448331       0.05332865       3.75201432       0.00194065       0.00184136       0.00476051
C        1.24644902       2.22811776       3.95744826       0.00244707      -0.00376234       0.00216146
C        0.01505772       4.30501171       3.93545661       0.00127925      -0.00006485       0.00097471
C       -1.24428655       6.43553802       3.74219564       0.00195697      -0.00589511      -0.01692784
C       -2.47718061       8.56717684       3.68520270       0.00471220       0.00191643      -0.00646006
C        4.93804402       0.00536486       3.65284627      -0.00349407       0.00131147       0.00186889
C        3.75592432       2.12862385       3.69154241       0.00132714       0.00091659      -0.00433882
O        1.13369067       6.47539674       3.90962118       0.00408967       0.00066469       0.00254178
C       -0.01526192       8.55093329       3.73804623       0.00406455       0.00173214       0.00945639
C        7.41415879      -0.01724095       3.66737330       0.00335804      -0.00154321      -0.00341839
C        6.20541545       2.11524484       3.54093547      -0.00748575       0.00192073      -0.00711342
C        5.00865136       4.21256096       3.62833332       0.00041537       0.00313497       0.00159679
B        3.80433427       6.39690223       4.18715467       0.00306211       0.00048331      -0.00543268
C        2.43851073       8.51907376       3.87404458       0.00424181      -0.00481912      -0.00161238
C        9.87267820      -0.00827050       3.74944732       0.00512826       0.00269841      -0.00635767
C        8.65917343       2.13082421       3.60296170      -0.00560252       0.00457797      -0.00506958
C        7.43388012       4.27271218       3.54327757      -0.00350278      -0.00352461      -0.00432466
C        6.17640801       6.39342230       3.70850383      -0.00492892      -0.00364827      -0.00487218
C        4.92881090       8.54318710       3.84709625      -0.00287567      -0.00847382       0.01116901
C        0.01561682       1.45401052       3.82685503       0.00009224       0.00098353       0.00637488
C       -1.22803004       3.57597387       3.74919805       0.00307386      -0.00001377      -0.00138126
C       -2.46851903       5.70754537       3.66091731      -0.00149261      -0.00764653      -0.01068079
C       -3.71188775       7.85017002       3.67359727      -0.00125269       0.00616264       0.00314899
C       -4.92820721       9.99698866       3.76485855      -0.00062669       0.00745457       0.00014969
C        2.50090181       1.48814661       3.81758269       0.00344343      -0.00129858       0.00463334
C        1.15189150       3.58176957       4.22877911       0.00385037      -0.00021571      -0.01234001
C       -0.04605007       5.74247493       3.87676526       0.00431493      -0.00067754      -0.00737542
C       -1.25514502       7.85800477       3.71207816       0.00498160      -0.00278055      -0.00393676
C       -2.47310875      10.00315849       3.69390984      -0.00033689       0.00131126      -0.00144336
C        4.96148988       1.42425200       3.60620589      -0.00333792      -0.00055762       0.00440199
O        3.82278063       3.50502460       3.63159146       0.00776372      -0.00031690      -0.00049222
C        1.18833482       7.85188380       3.84524422       0.00478810       0.00003396      -0.00934597
C        0.00659726       9.97212691       3.67631340      -0.00052048       0.00280315       0.00697366
C        7.42461179       1.41201951       3.58558391      -0.00599923       0.00285587      -0.00150369
C        6.21440907       3.53231818       3.51808139      -0.00363422       0.00166313       0.00513867
C        4.97418893       5.62109064       3.79366925      -0.00421020       0.00036317       0.00158072
C        3.68543420       7.83030512       3.96755703      -0.00228278      -0.00709312       0.00750028
C        2.46389227       9.94908635       3.75689875       0.00635169      -0.00389149       0.00243317
C        9.88143409       1.41814196       3.69046955      -0.00090196       0.00724221      -0.00772409
C        8.65940706       3.55943317       3.57388958      -0.00326787       0.00017283       0.00774138
C        7.41371471       5.69665535       3.59852017      -0.00362649      -0.00565073       0.01481416
C        6.15943518       7.82620928       3.76802539      -0.00229821      -0.00437803       0.01311555
C        4.94203590       9.97719651       3.79264314       0.00172666      -0.00692762       0.00514417
Cd       2.53043047       4.89894574       5.29389207      -0.00961928      -0.00782975      -0.00138470
O        2.98752491       4.18008684       7.24652936       0.00470650       0.00466638       0.00212140
O        2.06204219       4.96093484       8.09309081      -0.00887183       0.00533482      -0.00219895
H        2.70982576       5.26946194       8.75311416       0.00273965       0.01529980      -0.00251761
