51
Lattice="12.336457 0.0 0.0 -6.168228499999997 10.683685154694365 0.0 0.0 0.0 15.0" Properties=species:S:1:pos:R:3:initial_magmoms:R:1:forces:R:3 energy=-441.2571618039926 free_energy=-441.2571618039926 stress="-0.005380961592485069 -0.0023625428694218336 1.5075654225266769e-05 -0.0023625428694218336 -0.005036794243483871 1.9275638091210005e-05 1.5075654225266769e-05 1.9275638091210005e-05 4.871298098100819e-05" pbc="T T T"
C        0.12492290       0.03739515       3.64750930       0.00000000      -0.00673753       0.00210243      -0.00564796
C       -1.12229071       2.15959055       3.54783848       0.00000000       0.00365010      -0.00076622       0.00485443
C       -2.34079092       4.30348512       3.51967546       0.00000000      -0.00125409      -0.00260383      -0.00625790
C       -3.55765630       6.44984759       3.57545727       0.00000000       0.00217501       0.00128616      -0.00673573
C       -4.78931834       8.59426461       3.63591225       0.00000000       0.00012590       0.00700608      -0.00737494
C        2.58804999       0.04358192       3.73075492       0.00000000       0.00419532      -0.00334009      -0.00222646
C        1.32118823       2.18938829       3.77506385       0.00000000       0.00026333       0.00516491      -0.00164849
C        0.11394957       4.24759547       3.65132360       0.00000000      -0.00082498      -0.00364711       0.00966760
C       -1.09279982       6.43090376       3.64237839       0.00000000       0.00020653      -0.00129902      -0.00034315
C       -2.32852606       8.58502873       3.65627695       0.00000000      -0.00128382      -0.00042899       0.00009601
C        5.06090440       0.03936423       3.75085216       0.00000000       0.00350467      -0.00519303      -0.00229834
C        3.80581433       2.14266653       3.96412165       0.00000000      -0.00248043       0.00061434       0.00294338
B        1.35913005       6.45260950       3.97591749       0.00000000       0.00003172      -0.00029674       0.00021753
C        0.12604998       8.59138385       3.75495912       0.00000000      -0.00220241       0.00237675       0.00150940
C        7.52506895       0.04495970       3.71120245       0.00000000       0.00519462       0.00290959      -0.00013054
C        6.28821153       2.18046663       3.76103229       0.00000000      -0.00612490      -0.00256998      -0.00738011
C        5.12246134       4.34361361       3.94009270       0.00000000       0.00077018      -0.00167104      -0.00343687
C        3.88077071       6.48025436       4.06033694       0.00000000       0.00171127       0.00620303      -0.00740742
C        2.60157272       8.60503593       3.85176330       0.00000000       0.00470438      -0.00641690      -0.00523806
C        9.99310543       0.03653540       3.65863840       0.00000000      -0.00304957      -0.00325729      -0.00704697
C        8.75228280       2.17283586       3.58163961       0.00000000       0.00268027       0.00010677       0.00678752
C        7.54307539       4.31743444       3.62160753       0.00000000      -0.00096100       0.00250538       0.00273862
C        6.32407392       6.47452349       3.69930100       0.00000000      -0.00358877       0.00379360      -0.00215615
C        5.07767556       8.58840765       3.74187791       0.00000000       0.00630719       0.00220330       0.00721002
C        0.10537863       1.45440074       3.63545186       0.00000000       0.00006702       0.00132594       0.00282108
C       -1.12595109       3.56986154       3.51673090       0.00000000       0.00044194      -0.00411622       0.00490677
C       -2.33442538       5.72869894       3.55881392       0.00000000       0.00187267      -0.00399995       0.00829937
C       -3.55986647       7.87652831       3.61287292       0.00000000      -0.00176007       0.00335354       0.00106206
C       -4.80458683      10.01299204       3.66472227       0.00000000      -0.00181969       0.00703762       0.00425810
C        2.56932815       1.46200870       3.84365897       0.00000000      -0.00236088      -0.00237624       0.00155060
N        1.25511900       3.54011741       3.83833228       0.00000000       0.00729228       0.00630600       0.00150575
C        0.11947183       5.68691653       3.72341838       0.00000000      -0.00202735      -0.00284782       0.00722311
C       -1.09348532       7.86370692       3.68280814       0.00000000      -0.00228499       0.00007149      -0.00419058
C       -2.33923791      10.01067792       3.71616582       0.00000000       0.00510543      -0.00419258      -0.00277760
C        5.05995113       1.46203237       3.83239870       0.00000000      -0.00659398      -0.00437036      -0.00772994
B        3.91515020       3.56801999       4.21321527       0.00000000      -0.00447482       0.00392036      -0.00128614
C        1.37305548       7.91477731       3.86059023       0.00000000      -0.00088561      -0.00135747       0.00200297
C        0.12422689      10.01622861       3.73300316       0.00000000       0.00520140       0.00394123       0.00257132
C        7.52091135       1.46665921       3.67063132       0.00000000      -0.00005869       0.00384047       0.00092193
C        6.31206625       3.60717243       3.76197180       0.00000000      -0.00042588      -0.00303400      -0.00075146
C        5.08129394       5.78152379       3.88867350       0.00000000      -0.00113903       0.00039392       0.00452520
C        3.83445395       7.85706713       3.89054651       0.00000000       0.01016495       0.00290463      -0.00379095
C        2.59513602      10.01875222       3.73493129       0.00000000       0.00136264      -0.00499003      -0.00560197
C        9.98303985       1.45396565       3.57053483       0.00000000       0.00424067      -0.00311503       0.00737986
C        8.75963131       3.59807908       3.54788746       0.00000000      -0.00226111      -0.00009870       0.00305364
C        7.54403469       5.74596437       3.61371844       0.00000000      -0.00138604       0.00605387      -0.00037403
C        6.31353775       7.88835627       3.67865409       0.00000000       0.00269105       0.00379375      -0.00326606
C        5.06104670      10.00222257       3.67137903       0.00000000      -0.00534456      -0.00086559      -0.00230590
Cd       2.56592113       5.03919513       5.12734342       0.00000000      -0.00404569       0.00497076       0.08373889
O       -0.43090050       3.43028189       6.44053748       1.00000000       0.00167680       0.00999670       0.01889066
O       -0.98230767       4.53079290       6.48632870       1.00000000      -0.01026146      -0.02732839      -0.09333208
