52
Lattice="12.336457 0.0 0.0 -6.168228499999997 10.683685154694365 0.0 0.0 0.0 15.0" Properties=species:S:1:pos:R:3:forces:R:3 energy=-440.6367941876452 free_energy=-440.6367941876452 stress="-0.0007718558491286967 -0.0035635314704877364 -3.823400368715472e-06 -0.0035635314704877364 -0.0016980231795476139 2.203085881243183e-05 -3.823400368715472e-06 2.203085881243183e-05 1.9779817116592293e-05" pbc="T T T"
C        0.00290237      -0.01098239       3.80455461      -0.00006487      -0.00017635      -0.01384521
C       -1.25025422       2.12410880       3.76871544       0.00581424       0.00525319      -0.01152611
C       -2.46162972       4.27261574       3.75026586      -0.01185515      -0.00258658      -0.00793761
C       -3.67626682       6.41101573       3.76866693       0.00262882       0.00024242      -0.00831311
C       -4.91231872       8.54978501       3.82034578      -0.00183848       0.00013492      -0.00371546
C        2.46604713       0.01021611       3.78820891       0.00481860      -0.00206442      -0.01672788
C        1.18503273       2.11076036       3.78138902       0.00088198       0.00018445       0.00854542
C       -0.02104512       4.20902348       3.91860947       0.00228016      -0.00552010       0.00616386
C       -1.19185282       6.37943055       3.87808250      -0.00196465      -0.00267396      -0.01847100
C       -2.44497081       8.53919974       3.83491596      -0.00729424      -0.00154130      -0.00930109
C        4.93034870       0.00563889       3.71642744       0.00747309       0.00207705      -0.00815701
C        3.66999480       2.08945850       3.36784458      -0.00988788      -0.00151820       0.00310736
B        1.30903520       6.40257016       4.13604666       0.00194459       0.00016537      -0.00010242
C        0.00960858       8.55415726       3.89344158       0.00250411       0.00456093       0.00070102
C        7.39453922       0.01539476       3.75001512       0.00119919       0.00146738      -0.00834750
C        6.14914018       2.15274800       3.50155101       0.00507406       0.00547277      -0.00542351
C        4.98952982       4.33668875       3.33464019       0.00007236      -0.00312065       0.01548017
C        3.72475084       6.41204010       3.97997259      -0.00776869       0.00259994      -0.00001206
C        2.47757267       8.57143142       3.93728415       0.00086146      -0.00294129      -0.00527198
C        9.86716436       0.00241855       3.79072342      -0.01259231      -0.00327272      -0.00973167
C        8.62380314       2.14416078       3.67566472       0.00245044       0.00178735      -0.00551219
C        7.41216459       4.28845189       3.61295529       0.00033264       0.00701065       0.00885172
C        6.19182899       6.43082054       3.71474139       0.00581059      -0.01011754       0.00706448
C        4.94917500       8.54615188       3.84305570       0.00713560      -0.00254128       0.01045855
C       -0.01199253       1.41630877       3.78208556       0.00244713       0.00019295       0.00021837
C       -1.23906816       3.53672133       3.79150520      -0.00459165       0.00340890       0.00701269
C       -2.44204792       5.69058771       3.79279308      -0.00498056      -0.00324655      -0.00119143
C       -3.67830524       7.83399192       3.81368315      -0.00782310      -0.00197247       0.00511341
C       -4.92713858       9.97357675       3.82612884       0.00290905       0.00218124       0.00584067
C        2.43868203       1.43949669       3.67548302      -0.00720691      -0.00304942      -0.00769948
O        1.13972841       3.46385580       4.04643124       0.00705284      -0.00239180       0.00278881
C        0.03409371       5.62356727       3.96251069      -0.00156280      -0.00550385      -0.00784202
C       -1.20662557       7.81582121       3.87427580      -0.00290997       0.00172435       0.00096641
C       -2.46220889       9.97243196       3.78910452       0.00651003      -0.00011959       0.00450159
C        4.91431482       1.43512624       3.52333856      -0.00107556       0.00635141       0.00530503
S        3.60409302       3.63921562       2.60374286      -0.00172541       0.00629299       0.01295452
C        1.25576766       7.87439825       3.99160075       0.00076600       0.00239496       0.00378803
C       -0.00196230       9.98323592       3.79053841       0.00695278       0.00490792      -0.00635593
C        7.38076705       1.44100883       3.63750632       0.00380062       0.00263084       0.00261240
C        6.16996897       3.57988546       3.46829347       0.00660648       0.00559599       0.00299064
C        4.92836806       5.73778642       3.66033508      -0.00230440      -0.00068963       0.00034996
C        3.70427180       7.81323406       3.92722919       0.00414521       0.00401240      -0.00088904
C        2.46701958       9.98915779       3.82341351      -0.01000817      -0.00478307       0.00931423
C        9.86113455       1.42560937       3.74031655       0.00411755       0.00082256       0.00097716
C        8.63660627       3.56777006       3.67136209      -0.01023318       0.00070646       0.00642017
C        7.41947478       5.71054730       3.68767862       0.00957066       0.00121774       0.00685295
C        6.18813803       7.84675924       3.80307079       0.00587831      -0.01005477       0.00887035
C        4.93508295       9.96363279       3.81758681      -0.00551342       0.00024879       0.00881440
Cd       2.60583283       5.27865452       5.51541121       0.00138768       0.00630979      -0.00197091
O        2.91882598       4.42033134       7.38485399      -0.00710141      -0.00235580       0.01528603
O        2.29091663       5.41041038       8.28900417       0.01347670      -0.01038496      -0.00250378
H        3.06169658       5.58351056       8.86159922      -0.00660017       0.00267058      -0.01050197
