52
Lattice="12.336457 0.0 0.0 -6.168228499999997 10.683685154694365 0.0 0.0 0.0 15.0" Properties=species:S:1:pos:R:3:forces:R:3 energy=-435.78922918077797 free_energy=-435.78922918077797 stress="0.0023163429377919976 8.869916890705326e-06 -3.1871395504221326e-05 8.869916890705326e-06 -0.01165626965493933 1.0453014601831498e-05 -3.1871395504221326e-05 1.0453014601831498e-05 -3.062167047955018e-05" pbc="T T T"
C        0.00722871      -0.02928153       3.95401156      -0.00313327      -0.00364357       0.00573011
C       -1.20418777       2.15146883       3.84167846       0.01177537       0.01143133      -0.00709051
C       -2.43148876       4.27237728       3.64291861      -0.00407714      -0.00299215       0.00059347
C       -3.67990890       6.38837313       3.65814768       0.00486223       0.00310694       0.00201207
C       -4.94568285       8.49659193       3.81128095      -0.00860931      -0.01038792      -0.00058544
C        2.47446894      -0.10240200       3.98928337       0.00199789       0.00474314       0.00592824
C        1.27471175       2.04224002       3.93941149      -0.00353254       0.00678000      -0.00291957
C        0.07328498       4.27502339       3.67135870       0.00921923      -0.00234035      -0.00258153
C       -1.18008037       6.39898928       3.69037607       0.00573394       0.00110491      -0.01012880
C       -2.44740834       8.49744488       3.86570860       0.00149591       0.00074090      -0.00084301
C        4.93725167      -0.02226438       3.89756053       0.00446155      -0.00116748       0.01367913
C        3.66132570       1.99876523       3.65443093       0.00188431      -0.00187330      -0.00909672
B        1.41911345       6.44174453       3.85806429      -0.00001507      -0.01412875      -0.00608059
C        0.01986099       8.55720197       3.94597851       0.00538999       0.01064885      -0.00740629
C        7.39400099       0.05392886       3.94814875      -0.00756599       0.00437883      -0.00212471
C        6.15144151       2.14481134       3.67481618      -0.00814486      -0.00298362       0.00110734
C        4.95569442       4.29173059       3.33433131      -0.00205350      -0.00204947      -0.00137676
S        3.34098229       6.40176610       3.00380836       0.00325213       0.01093073      -0.00846556
C        2.46857972       8.65449880       3.92171446      -0.00371673      -0.00479792       0.00222179
C        9.88733718       0.04873209       3.93674150      -0.00696984      -0.00673323       0.00272225
C        8.64607930       2.16489844       3.77810970       0.00075560      -0.00913180       0.00411726
C        7.40680169       4.27261029       3.57488163      -0.01069023       0.01238630      -0.00291375
C        6.15359033       6.40541854       3.51916921      -0.00540736      -0.00141491       0.01078925
C        4.92638177       8.55764306       3.73947788       0.00365820      -0.00057465      -0.00160310
C        0.02027014       1.40470760       3.94786804       0.00125071       0.00025669      -0.00682264
C       -1.17967247       3.56244964       3.69081401       0.00822216       0.01021507      -0.01086120
C       -2.43213343       5.68953917       3.64385121       0.00399510      -0.00194813      -0.00901917
C       -3.69057401       7.79732573       3.77736391      -0.00187775      -0.00246395       0.00405471
C       -4.94277503       9.90806971       3.95001105      -0.00033134      -0.00742731      -0.00215845
C        2.46822503       1.30753073       3.92381622      -0.00126368       0.00886742       0.00319041
B        1.42032898       3.52184432       3.86004671      -0.00688478      -0.00273667      -0.00828571
C        0.07323085       5.68719723       3.67065728      -0.00189962      -0.00590626      -0.00285914
C       -1.20428996       7.80988119       3.84029375       0.00692801       0.00674818      -0.00342685
C       -2.44981478       9.91332782       3.93768233       0.00497441       0.00202472       0.00080542
C        4.92632835       1.40455247       3.74086842      -0.00261987      -0.00718553       0.00067569
S        3.34035520       3.55887560       3.00311838       0.01344111       0.00342655       0.00174062
C        1.27458478       7.92055903       3.93825806      -0.00281932      -0.00746532      -0.01053313
C        0.00692189       9.99123403       3.95171561       0.00278917       0.00782589       0.00968413
C        7.39084404       1.46584238       3.81250473      -0.00772911      -0.00171340      -0.00274187
C        6.15326550       3.55670926       3.52385582      -0.00607767      -0.00163885       0.00138808
C        4.95615129       5.66998224       3.33046717       0.00076385      -0.00300140       0.01272078
C        3.66156721       7.96279232       3.65311718       0.00368100       0.00810676      -0.00922758
C        2.47517461      10.06436285       3.98614524      -0.01296395      -0.00269558       0.01175194
C        9.88896598       1.46446796       3.86616307       0.01304769      -0.00132641      -0.00072501
C        8.65750128       3.57340938       3.65801081      -0.01171387      -0.00369399       0.00752821
C        7.40644155       5.68821415       3.57309006      -0.00260785       0.01467550       0.00358962
C        6.15157380       7.81751533       3.67177911      -0.00796069      -0.00668714       0.00160282
C        4.93779799       9.98432925       3.89800555      -0.00414520      -0.00377178       0.00978947
Cd       1.93639115       4.98423809       5.58481945       0.00466706      -0.00362580       0.00061741
O        2.96173506       4.99562471       7.39394562       0.00792169      -0.00124401      -0.00157328
O        1.86136304       4.97651533       8.37847083       0.01313397       0.00004188       0.01464973
H        2.39820000       4.98816589       9.19327436      -0.00449172       0.00031003      -0.00123956
