52
Lattice="12.336457 0.0 0.0 -6.168228499999997 10.683685154694365 0.0 0.0 0.0 15.0" Properties=species:S:1:pos:R:3:forces:R:3 energy=-440.5607083695012 free_energy=-440.5607083695012 stress="0.00041888596542354577 -0.0004647714790283395 -4.569017147548003e-06 -0.0004647714790283395 -0.005945067148905028 -4.4301018524610714e-05 -4.569017147548003e-06 -4.4301018524610714e-05 -9.715459436803253e-06" pbc="T T T"
C        0.01232443      -0.01995866       3.57476457       0.00660399       0.00058084      -0.00582418
C       -1.21180534       2.13648362       3.50541410      -0.00609027      -0.00242196      -0.00187203
C       -2.46685406       4.26301372       3.63818764       0.00119953      -0.00998079      -0.00072069
C       -3.70637884       6.39105047       3.70772227       0.00459130      -0.00023365       0.00176898
C       -4.92776851       8.51619139       3.67471149      -0.00092812       0.01078307       0.00149595
C        2.48000418      -0.08089027       3.63001866      -0.00165690      -0.00151266       0.01141563
C        1.28428738       2.03657742       3.37961105      -0.00321748      -0.00786418       0.00381042
C       -0.00470132       4.31100762       3.62379942       0.00196449      -0.00300826      -0.00144047
C       -1.25142757       6.39625408       3.90844548       0.00669242       0.00169766      -0.00013895
C       -2.45162245       8.51128880       3.79951410      -0.00803093       0.00553827       0.01018146
C        4.94705187      -0.03096834       3.75398374      -0.01068185       0.00603607       0.01257219
C        3.68519796       2.05165738       3.58384503      -0.00543934      -0.00667948      -0.00267866
B        1.15923459       6.44067523       4.39053746       0.00497097      -0.00001422       0.00000526
C        0.01075744       8.54570766       3.99455896       0.00116301       0.00966306      -0.00137152
C        7.41267231       0.00605303       3.80295282       0.00177797       0.00284380      -0.00377136
C        6.15546628       2.14386980       3.66256799      -0.00099537      -0.00572931       0.00954100
C        4.86666566       4.30869221       3.64013231       0.00174247      -0.00300963      -0.00729673
N        3.79437936       6.46392007       4.10728190      -0.00937107      -0.00456375       0.00306026
C        2.50054492       8.56095073       4.02206447       0.00492396      -0.00229812       0.00025000
C        9.88314748       0.00457442       3.69822980       0.00628719       0.00868969       0.00205036
C        8.63914669       2.13725989       3.62950725      -0.00992115       0.00143809      -0.00205529
C        7.37916573       4.26976112       3.63426737       0.00586244      -0.00786044      -0.00940840
C        6.16691037       6.41536169       3.67736029       0.00297321       0.00060969      -0.00496247
C        4.94992554       8.54359532       3.76572454       0.00479108       0.00085563      -0.00446595
C        0.02457932       1.41473295       3.46703508      -0.00417703      -0.00439158      -0.00511749
C       -1.20594018       3.55711066       3.55452120       0.00143866      -0.00614822       0.01099824
C       -2.47741846       5.68145468       3.74718166       0.00624132      -0.00684738      -0.00503245
C       -3.69274990       7.80747262       3.72744808      -0.00601516       0.00586370       0.00612759
C       -4.93271266       9.93172817       3.62345788       0.00372878       0.00593942      -0.00001920
C        2.48636367       1.32758138       3.53166582      -0.00325472      -0.00800258       0.00144456
S        1.61371444       3.73211322       3.09128326       0.00226878      -0.00821455      -0.00888833
C       -0.03058268       5.66806292       3.97871461       0.01075288       0.00029026      -0.01162174
C       -1.21927717       7.81526634       3.93021674      -0.00204552       0.00765105       0.00412453
C       -2.44569067       9.92359029       3.73735071      -0.00689739       0.00273450      -0.00240736
C        4.93424785       1.40240329       3.67207682      -0.00514697       0.00010302       0.00963843
B        3.55326956       3.52875993       3.56507401      -0.00487192      -0.00486769      -0.00801028
C        1.26418058       7.87840036       4.15292736       0.00190146      -0.00068192       0.00160671
C        0.01139328       9.96634490       3.85675340      -0.00447874       0.01048730      -0.00267787
C        7.39967181       1.43103890       3.69375618      -0.00325233      -0.00089209      -0.00347833
C        6.11528107       3.57808997       3.63162913       0.00521199      -0.00715548       0.00348253
C        4.91212922       5.74061511       3.76924260      -0.00287306       0.00075805       0.00451813
C        3.73870969       7.82068914       3.97537853       0.00235246      -0.00390123      -0.01120952
C        2.48877094       9.97897369       3.84314455       0.00679052       0.00123104      -0.00230726
C        9.88764462       1.43055062       3.59900469      -0.00959858       0.00922132       0.00063164
C        8.62467242       3.55883794       3.61971160      -0.00001717      -0.00596296      -0.00368744
C        7.38892095       5.68848681       3.65366718       0.00488391      -0.00586365      -0.00060013
C        6.17129193       7.82371066       3.69670602       0.00508759       0.00337234      -0.00055263
C        4.94343376       9.96413691       3.67654586       0.00880941       0.00404713       0.00374579
Cd       2.52402803       5.17600016       5.56288262      -0.00655371       0.00607586       0.00949074
O        2.62243906       4.23386451       7.42486494      -0.00606213      -0.00331749       0.00113321
O        2.02947571       5.23886710       8.33127385      -0.00091166       0.01224429      -0.00388880
H        2.77920693       5.34428635       8.94740623       0.00747672       0.00266809       0.00241193
