51
Lattice="12.336457 0.0 0.0 -6.168228499999997 10.683685154694365 0.0 0.0 0.0 15.0" Properties=species:S:1:pos:R:3:initial_magmoms:R:1:forces:R:3 energy=-439.2290777303057 free_energy=-439.2290777303057 stress="-0.005096418373703311 -0.0033862270484789313 -7.210972625393211e-06 -0.0033862270484789313 -0.003920255940923008 -9.493262403896264e-06 -7.210972625393211e-06 -9.493262403896264e-06 -1.88902124078178e-05" pbc="T T T"
C        0.00257387       0.01616293       3.76837258       0.00000000      -0.00398025       0.00544491      -0.00978535
C       -1.25056844       2.14147382       3.73263385       0.00000000       0.00397539      -0.00240764       0.00387745
C       -2.46560176       4.28999725       3.67152700       0.00000000       0.00325634       0.00077687      -0.01273443
C       -3.67373648       6.43708228       3.66239959       0.00000000      -0.01037487      -0.00485913      -0.01553471
C       -4.90626598       8.58047411       3.73557708       0.00000000       0.00058244      -0.00344439       0.00393136
C        2.47338309       0.03229159       3.73544836       0.00000000      -0.00968328       0.00410114      -0.00922702
C        1.19822107       2.16537553       3.81785975       0.00000000       0.00380029       0.00509761      -0.00595086
C       -0.01396872       4.22701667       3.89600572       0.00000000      -0.00214470      -0.01270544      -0.00392307
C       -1.20735689       6.41575540       3.79711434       0.00000000       0.00303329      -0.00166568       0.00627413
C       -2.44430573       8.57131457       3.73949137       0.00000000      -0.00377026       0.00769525      -0.00244435
C        4.93627931       0.03505450       3.61863180       0.00000000       0.00386668      -0.00345785       0.00164878
C        3.66713864       2.13439864       3.36397194       0.00000000       0.00152130      -0.00075494      -0.00831777
B        1.26648893       6.43653423       4.04739275       0.00000000       0.00759449       0.00686533       0.00104736
C        0.00715970       8.58352784       3.80220971       0.00000000      -0.00261020       0.00037926      -0.01601269
C        7.40249545       0.03238348       3.65071283       0.00000000      -0.00181184      -0.00092380       0.00773523
C        6.16530489       2.16686403       3.41006036       0.00000000      -0.00335766       0.00370705      -0.00070529
C        4.99508801       4.34996211       3.26098013       0.00000000      -0.00033333       0.00465042      -0.00816178
C        3.76017164       6.44009194       3.83393370       0.00000000       0.01540360      -0.00669051      -0.00357759
C        2.48206347       8.58770712       3.84934004       0.00000000      -0.00013913       0.00081607      -0.00086737
C        9.86999846       0.01909193       3.72031443       0.00000000       0.00077927       0.00132678      -0.00206541
C        8.62926290       2.15952917       3.58591640       0.00000000       0.00253636      -0.00650745      -0.00954293
C        7.42087139       4.30830087       3.49424844       0.00000000       0.00400447      -0.00330725       0.00209885
C        6.21005563       6.46297876       3.59038907       0.00000000      -0.00141473       0.00341210       0.00942423
C        4.95702567       8.57023638       3.76746113       0.00000000      -0.00299279      -0.00103158      -0.00286874
C       -0.01926282       1.43403360       3.77358968       0.00000000       0.00558332       0.00598922       0.00569657
C       -1.25327153       3.55322890       3.74726840       0.00000000      -0.00234926      -0.00672238       0.00570654
C       -2.45121100       5.71557286       3.70152318       0.00000000      -0.00503301       0.00165118       0.00210305
C       -3.67545919       7.86272664       3.71607825       0.00000000      -0.00027685      -0.00421068       0.00456430
C       -4.92128429       9.99851141       3.77196478       0.00000000      -0.00757218      -0.00116149      -0.00536510
C        2.45449806       1.45209966       3.65706241       0.00000000       0.00058522       0.00513141       0.00452921
N        1.13729242       3.50452237       4.04918778       0.00000000       0.00060196      -0.00083172       0.01199300
C        0.00227354       5.67045504       3.90970269       0.00000000       0.00539180      -0.01092373       0.00119643
C       -1.21026668       7.85176335       3.78193046       0.00000000      -0.00322869       0.00378304       0.00487252
C       -2.45555492       9.99970989       3.70356845       0.00000000      -0.00453068       0.00913627       0.00326237
C        4.92622347       1.45887051       3.44748972       0.00000000       0.00128295      -0.00360205       0.00613052
P        3.50105322       3.71912978       2.63140808       0.00000000      -0.00468426       0.00699041      -0.00830333
C        1.25312727       7.90137521       3.90346815       0.00000000      -0.00152813       0.00737454      -0.00346420
C       -0.00006148      10.00941417       3.68861995       0.00000000       0.00173786      -0.00406292       0.00021033
C        7.39464277       1.45345914       3.53659891       0.00000000      -0.00558195      -0.00013323       0.01408887
C        6.18696531       3.59658940       3.35876044       0.00000000      -0.00044946       0.00559547       0.00422951
C        4.95918362       5.77285332       3.52764612       0.00000000       0.01238893      -0.00121774       0.00298075
C        3.71311672       7.83386656       3.83284780       0.00000000      -0.00122628      -0.00855081      -0.00613116
C        2.47143186      10.00243723       3.73666749       0.00000000       0.00000302       0.00313153       0.00863524
C        9.85710484       1.43879639       3.67415364       0.00000000       0.00502150      -0.00190043      -0.00140472
C        8.63610127       3.58603764       3.57374408       0.00000000       0.00731333      -0.00514206      -0.00131852
C        7.42994928       5.73460327       3.56792592       0.00000000      -0.01021142      -0.00425197       0.00516297
C        6.19784953       7.87362775       3.70614007       0.00000000      -0.00175943       0.00262860       0.00822943
C        4.93853205       9.98464244       3.75905539       0.00000000      -0.00267642       0.00092010       0.00442154
Cd       2.60844937       5.00172174       5.05326758       0.00000000       0.00128485      -0.00461553      -0.00313525
O        2.51784110       4.54683932       8.05881980       1.00000000      -0.00229575       0.00662428       0.00913077
O        2.41637246       3.79877992       7.02187942       1.00000000       0.00446817       0.00185355      -0.00233967
