51
Lattice="12.336457 0.0 0.0 -6.168228499999997 10.683685154694365 0.0 0.0 0.0 15.0" Properties=species:S:1:pos:R:3:initial_magmoms:R:1:forces:R:3 energy=-441.395154757666 free_energy=-441.395154757666 stress="0.0017829349871632003 -0.0007713163457150501 6.568354495682771e-06 -0.0007713163457150501 -0.0034735599899992993 -8.484088732647354e-06 6.568354495682771e-06 -8.484088732647354e-06 -2.3459766136486206e-05" pbc="T T T"
C       -0.06125785      -0.02824771       3.61717044       0.00000000      -0.00102699      -0.00405083       0.00435589
C       -1.29136704       2.11749115       3.67361369       0.00000000      -0.00128146      -0.00328245       0.00024008
C       -2.52611010       4.24394043       3.61658305       0.00000000       0.00202260      -0.00195768      -0.00285435
C       -3.77053862       6.37441048       3.51570670       0.00000000      -0.00274464       0.00219686       0.00106055
C       -5.00133961       8.50841449       3.51941312       0.00000000       0.00255224       0.00454377      -0.00270457
C        2.40055687      -0.07366727       3.59439503       0.00000000       0.00027841      -0.00360571      -0.00010569
C        1.19412390       2.06843406       3.72365170       0.00000000      -0.00252125      -0.00169921      -0.00143871
C       -0.00993367       4.25787168       3.76440843       0.00000000       0.00162513      -0.00188624       0.00207512
C       -1.31693450       6.39060242       3.63983788       0.00000000       0.00175498       0.00253259      -0.00103411
C       -2.53478074       8.50768728       3.55806910       0.00000000      -0.00306696       0.00176994       0.00076593
C        4.86324788      -0.03457739       3.65621980       0.00000000       0.00014719      -0.00222373       0.00435865
C        3.60300117       2.06848620       3.73007514       0.00000000       0.00212768      -0.00087748      -0.00290700
C        1.05230181       6.43399660       4.15537682       0.00000000      -0.00004030      -0.00075471       0.00181138
C       -0.07508825       8.52133070       3.75672764       0.00000000      -0.00376704      -0.00211064      -0.00698119
C        7.33160660      -0.02197961       3.73760981       0.00000000      -0.00281546       0.00173916       0.00108797
C        6.07888156       2.12370065       3.68591353       0.00000000       0.00577979       0.00442518      -0.00104202
C        4.78361022       4.28177854       3.71370755       0.00000000      -0.00345979       0.00166206      -0.00111653
N        3.75532125       6.46360429       3.97092377       0.00000000       0.00454882      -0.00062122       0.00261043
C        2.41607503       8.51769856       3.88759184       0.00000000      -0.00210008       0.00103106      -0.00280423
C        9.80363253      -0.02036970       3.71017336       0.00000000      -0.00066534       0.00436772      -0.01025532
C        8.56198417       2.11697961       3.66766248       0.00000000       0.00345127      -0.00251134       0.00429731
C        7.30855632       4.24796284       3.60086134       0.00000000      -0.00138425      -0.00624941      -0.00224734
C        6.10636422       6.39524467       3.55295121       0.00000000       0.00088695      -0.00021137       0.00033789
C        4.88369243       8.53292729       3.65723260       0.00000000       0.00086206       0.00055437      -0.00678031
C       -0.05520161       1.40083395       3.67047817       0.00000000      -0.00350018      -0.00639676       0.00479953
C       -1.26009486       3.54504509       3.67654776       0.00000000       0.00176373      -0.00404147       0.00017521
C       -2.53637475       5.66630951       3.56924970       0.00000000       0.00065810       0.00307924       0.00529242
C       -3.76657007       7.79529105       3.51011230       0.00000000      -0.00104035       0.00328269      -0.00670309
C       -5.00588559       9.92598974       3.56618958       0.00000000       0.00126301       0.00065924      -0.00102236
C        2.39942219       1.33580566       3.68129735       0.00000000      -0.00089920      -0.00214176       0.00279400
B        1.40350899       3.56758421       3.83128049       0.00000000       0.00016651       0.00621618       0.00332243
C       -0.06895764       5.69622194       3.82345848       0.00000000       0.00125825      -0.00133736       0.00428105
C       -1.30123788       7.80650728       3.63841760       0.00000000      -0.00500858       0.00220755       0.00456002
C       -2.52890320       9.92275389       3.59273768       0.00000000      -0.00093687      -0.00090685       0.00348595
C        4.85137697       1.39861139       3.69195913       0.00000000       0.00606480       0.00060307      -0.00422004
B        3.38823916       3.57084374       3.81859846       0.00000000       0.00298641       0.00636464      -0.00130649
C        1.16325536       7.78453045       3.94375611       0.00000000      -0.00335123       0.00156853       0.00392398
C       -0.07018627       9.94220705       3.71155807       0.00000000      -0.00263202      -0.00323760       0.00371376
C        7.32172890       1.40731721       3.69273589       0.00000000       0.00390025       0.00150239      -0.00064498
C        6.03797682       3.55754069       3.66121111       0.00000000      -0.00296710       0.00151222      -0.00128971
C        4.85880782       5.72166577       3.71181400       0.00000000       0.00127633      -0.00111719      -0.00333319
C        3.66964648       7.80344706       3.84076439       0.00000000       0.00042599      -0.00107254       0.00235590
C        2.40396685       9.93459924       3.77801970       0.00000000      -0.00110977       0.00453420      -0.00063837
C        9.80380484       1.40698457       3.67840430       0.00000000       0.00096275       0.00192955       0.00215613
C        8.56003385       3.54131933       3.62187039       0.00000000       0.00199033      -0.00548172      -0.00564038
C        7.32677043       5.66706050       3.53589507       0.00000000      -0.00234371      -0.00465280      -0.00415438
C        6.10215163       7.80984935       3.55349847       0.00000000       0.00413994       0.00265036       0.00605591
C        4.87150583       9.95197154       3.65629569       0.00000000      -0.00225235       0.00075295      -0.00460046
Cd       2.39028666       5.09712309       5.26366662       0.00000000       0.00395941      -0.00246778      -0.01348146
O        4.12020761       5.12056415       7.85297499       1.00000000      -0.00076393       0.00933791       0.00261814
O        4.10967582       5.92257658       6.88246550       1.00000000      -0.00517408      -0.00612757       0.01677066
