51
Lattice="12.336457 0.0 0.0 -6.168228499999997 10.683685154694365 0.0 0.0 0.0 15.0" Properties=species:S:1:pos:R:3:initial_magmoms:R:1:forces:R:3 energy=-438.554824236699 free_energy=-438.554824236699 stress="-0.0036414705666166372 0.0033042326373148552 -1.0130352953076906e-05 0.0033042326373148552 0.0015737993868866094 -6.5088833757934115e-06 -1.0130352953076906e-05 -6.5088833757934115e-06 2.8455080862204577e-06" pbc="T T T"
C       -0.04886625       0.05945424       3.74053584       0.00000000      -0.00094491      -0.00527368       0.01264158
C       -1.27822347       2.18516667       3.68694505       0.00000000      -0.00815598      -0.00527361       0.00939996
C       -2.50844196       4.31859733       3.58034087       0.00000000       0.00124334       0.00663795       0.00047694
C       -3.75797692       6.45614393       3.58262062       0.00000000      -0.00228705       0.00847720       0.00360253
C       -4.99959119       8.59827687       3.68909713       0.00000000       0.00541023      -0.00095917       0.00059224
C        2.41574812       0.08863396       3.70656979       0.00000000       0.00281930      -0.00192701       0.00847893
C        1.18750926       2.26380106       3.91268185       0.00000000      -0.00275400       0.00385572       0.00085240
C       -0.04349474       4.34184018       3.86958329       0.00000000      -0.00565541      -0.00093311      -0.00643501
C       -1.30324282       6.47213777       3.65714498       0.00000000       0.00095100      -0.00496900       0.00429489
C       -2.53621861       8.60352775       3.62535812       0.00000000       0.00621234      -0.00561334      -0.00141167
C        4.88076799       0.04002162       3.60056819       0.00000000       0.00059645      -0.00650176       0.00005801
C        3.69917658       2.15982882       3.65816632       0.00000000       0.00402863      -0.00079355      -0.00047421
O        1.07482372       6.51252937       3.80673962       0.00000000       0.00255178       0.00201497      -0.00149533
C       -0.07340248       8.58726785       3.66672933       0.00000000      -0.00471393       0.00188689      -0.00040092
C        7.35706720       0.01753144       3.60963510       0.00000000       0.00161331       0.00605620      -0.00357036
C        6.14763280       2.14993732       3.50113005       0.00000000       0.00333550       0.00380987       0.00141089
C        4.95687043       4.24982639       3.62384168       0.00000000      -0.00730813       0.00085453      -0.00649288
B        3.75210848       6.44001643       4.18838584       0.00000000      -0.00501093      -0.00028831      -0.01079435
C        2.38178583       8.55482536       3.81876695       0.00000000      -0.00402729       0.00149948       0.00222144
C        9.81590840       0.02761387       3.69165042       0.00000000      -0.00638460      -0.00064661       0.00030087
C        8.60097890       2.16618214       3.54560180       0.00000000       0.00473587      -0.00250861      -0.00149827
C        7.37637924       4.30806013       3.50908709       0.00000000       0.01042820      -0.00537207       0.00420061
C        6.11898455       6.42905158       3.69844550       0.00000000      -0.00126539      -0.00240838      -0.00621947
C        4.87119226       8.57978462       3.82021600       0.00000000      -0.00136426       0.00225371       0.00145568
C       -0.04236439       1.49004605       3.77172362       0.00000000      -0.00468804      -0.00415347       0.00866629
C       -1.28586063       3.61152875       3.68075676       0.00000000      -0.00503111      -0.00186488      -0.00748382
C       -2.52740209       5.74281086       3.59347336       0.00000000      -0.00412915       0.00797125      -0.00265136
C       -3.77090791       7.88596147       3.62874257       0.00000000       0.00539986       0.00440979      -0.00547240
C       -4.98653073      10.03295723       3.72089366       0.00000000       0.00329855      -0.00376686       0.00964612
C        2.44267088       1.52310208       3.77810727       0.00000000       0.00258630       0.00271388      -0.00228688
C        1.08722648       3.61718899       4.18582781       0.00000000      -0.00540729       0.00472207      -0.00213632
C       -0.10500769       5.77925454       3.79217118       0.00000000       0.00320975      -0.00180010      -0.00334964
C       -1.31362806       7.89456669       3.63573978       0.00000000       0.00169298      -0.00707343       0.00216235
C       -2.53146450      10.03889832       3.64184654       0.00000000       0.00063004      -0.00754307      -0.00207401
C        4.90442825       1.45794911       3.56302227       0.00000000       0.00590572      -0.00372887       0.00799552
O        3.77504471       3.53563198       3.63879270       0.00000000      -0.01089784       0.00203582       0.00371835
C        1.13048295       7.88843267       3.76975054       0.00000000      -0.00455906       0.00413260       0.00118685
C       -0.05073385      10.00777386       3.61787807       0.00000000       0.00200934       0.00173005      -0.00249995
C        7.36667184       1.44683194       3.53448055       0.00000000       0.00438958       0.00534145      -0.00627689
C        6.15854004       3.56742026       3.49481294       0.00000000      -0.00069908       0.00420573      -0.00508226
C        4.91846451       5.65674463       3.79816726       0.00000000      -0.00633384      -0.00014323      -0.01541195
C        3.62749898       7.86855033       3.94108888       0.00000000      -0.00274985       0.00020609      -0.00168191
C        2.40735664       9.98414234       3.69785783       0.00000000      -0.00317171       0.00188227       0.00284956
C        9.82389391       1.45391511       3.62684192       0.00000000      -0.00406469      -0.00556341      -0.00127830
C        8.60113344       3.59460328       3.52090070       0.00000000       0.01149180      -0.00470727       0.00291362
C        7.35520420       5.73193615       3.57210886       0.00000000       0.00323165      -0.00266028       0.01033100
C        6.10180653       7.86207142       3.74869820       0.00000000       0.00168683       0.00041582       0.00141651
C        4.88458175      10.01300297       3.74692405       0.00000000      -0.00543404       0.00197491       0.00279986
Cd       2.46537484       4.92492186       5.21502406       0.00000000       0.01549867       0.00748235      -0.00414550
O        3.57375620       4.15447672       7.82186526       1.00000000       0.00463669      -0.00085901       0.01594710
O        3.71935404       3.57317595       6.68605189       1.00000000      -0.00255614       0.00076150      -0.01899642
