51
Lattice="12.336457 0.0 0.0 -6.168228499999997 10.683685154694365 0.0 0.0 0.0 15.0" Properties=species:S:1:pos:R:3:initial_magmoms:R:1:forces:R:3 energy=-441.57306987167505 free_energy=-441.57306987167505 stress="-0.002706229908055869 0.0020387827642696574 2.2112664852505435e-05 0.0020387827642696574 -0.0005894255486109554 1.4041634019477007e-05 2.2112664852505435e-05 1.4041634019477007e-05 -2.2125753222630442e-05" pbc="T T T"
C       -0.04173724       0.01066916       3.68818681       0.00000000      -0.00454327       0.00173696       0.00055123
C       -1.27248768       2.14329365       3.68973039       0.00000000       0.00273065       0.00400737      -0.00248485
C       -2.49892187       4.28395597       3.61808058       0.00000000      -0.00150045       0.00640556       0.00336557
C       -3.74152935       6.41924671       3.59683655       0.00000000       0.00389524      -0.00413269       0.00102620
C       -4.98832905       8.55767765       3.60652592       0.00000000       0.00274682      -0.00221332      -0.00085932
C        2.41852732       0.04841944       3.79628637       0.00000000       0.00084784       0.00068309       0.00164612
C        1.16760781       2.18191009       3.91674024       0.00000000       0.00357194      -0.00580357       0.00691603
C       -0.04136702       4.24341138       3.79121240       0.00000000      -0.00376515      -0.00954100      -0.00585295
C       -1.26316184       6.41778557       3.68680676       0.00000000       0.00620304       0.00239627      -0.00136650
C       -2.52323222       8.56468507       3.72771454       0.00000000      -0.00086750       0.00369880       0.00193993
C        4.88625093       0.01308782       3.81075847       0.00000000       0.00545540      -0.00374891       0.00188862
C        3.68550873       2.18708713       3.87193754       0.00000000       0.00040232       0.00024264      -0.00531609
C        1.21626929       6.42582255       3.75705802       0.00000000      -0.00955180       0.00072332       0.01363686
C       -0.05680276       8.55539835       3.79396255       0.00000000      -0.00385465       0.00051385      -0.00230537
C        7.35912953       0.00538076       3.77867434       0.00000000       0.00178660       0.00374121      -0.00471651
C        6.14443379       2.12864264       3.72300478       0.00000000      -0.00847137       0.00155283       0.01329592
C        4.93353014       4.21485916       3.60154917       0.00000000      -0.00112373      -0.00499475      -0.01059357
P        3.32189676       6.24928362       2.84116817       0.00000000       0.00930950       0.00776589       0.00181317
C        2.41411775       8.57661089       3.66901723       0.00000000       0.00210234      -0.00091005      -0.00217627
C        9.83166071       0.00721663       3.68393323       0.00000000       0.00117910      -0.00229316      -0.00360375
C        8.60388894       2.14171298       3.67600251       0.00000000       0.00606231      -0.00253727      -0.00304302
C        7.38302153       4.27479065       3.58114462       0.00000000       0.00006834       0.00066425       0.00075279
C        6.11221476       6.39702666       3.45492976       0.00000000      -0.00783528       0.00404639      -0.00360002
C        4.88020988       8.54760413       3.49839710       0.00000000       0.00062964       0.00348947      -0.00147301
C       -0.04348362       1.43733643       3.75324697       0.00000000       0.00096246       0.00238384       0.00682969
C       -1.27643880       3.56166639       3.66582443       0.00000000      -0.00638558       0.00220290      -0.00772894
C       -2.49806412       5.71078581       3.62817537       0.00000000       0.00789006       0.00349006       0.00328555
C       -3.75096859       7.84801340       3.64151764       0.00000000       0.00428634      -0.00391177      -0.00654280
C       -4.97793593       9.99067051       3.69873276       0.00000000      -0.00282393      -0.00045292       0.00880789
C        2.42374034       1.47841906       3.89048057       0.00000000       0.00388392      -0.00122765      -0.00127435
N        1.07064675       3.53112261       4.09735191       0.00000000      -0.00052194      -0.00397077      -0.00509026
C       -0.00043172       5.70653453       3.72069198       0.00000000      -0.00018896      -0.00676010      -0.00526969
C       -1.28607919       7.84540537       3.74239979       0.00000000      -0.00273999       0.00283910      -0.00117070
C       -2.52079824       9.99392625       3.78695181       0.00000000       0.00301468       0.00309057      -0.00201578
C        4.90218418       1.43392348       3.80236569       0.00000000      -0.00432654      -0.00426942       0.00013151
N        3.78306196       3.54626577       3.88208337       0.00000000      -0.00062992       0.00104280      -0.00510007
C        1.18229933       7.83313457       3.75665887       0.00000000      -0.00324407       0.00263886       0.00454230
C       -0.04713904       9.97734878       3.80364652       0.00000000       0.00500245      -0.00196250      -0.00138323
C        7.37147792       1.42298234       3.73198520       0.00000000      -0.00315405       0.00512872      -0.00266077
C        6.16889557       3.53688632       3.61773407       0.00000000      -0.00179977       0.00002997       0.00337641
C        4.90918434       5.63662010       3.38870893       0.00000000      -0.00198672      -0.00288441       0.00262560
C        3.61889282       7.87928006       3.42095474       0.00000000       0.00535122       0.00016421       0.00312971
C        2.42502980       9.98783254       3.73297099       0.00000000       0.00143710      -0.00083531       0.00220847
C        9.83355703       1.43011759       3.68098729       0.00000000       0.00818041      -0.00286619       0.00340047
C        8.61099953       3.56524053       3.61962847       0.00000000       0.00274315      -0.00027037      -0.00686159
C        7.36705136       5.70042854       3.53974487       0.00000000      -0.00400697       0.00211006       0.00138263
C        6.11685370       7.83673288       3.49067055       0.00000000      -0.00235560       0.00415206       0.00178901
C        4.89031932       9.97452661       3.62297217       0.00000000      -0.00265763      -0.00041468      -0.00096340
Cd       2.46953257       5.02762800       5.10190462       0.00000000      -0.00177097      -0.00114135      -0.01675928
O        3.46298578       5.03316197       7.91182093       1.00000000      -0.00451521      -0.00250608       0.00329985
O        3.88413517       4.65364717       6.74316589       1.00000000      -0.00512182      -0.00129278       0.01857055
