51
Lattice="12.336457 0.0 0.0 -6.168228499999997 10.683685154694365 0.0 0.0 0.0 15.0" Properties=species:S:1:pos:R:3:initial_magmoms:R:1:forces:R:3 energy=-445.5451473511878 free_energy=-445.5451473511878 stress="-0.010487524146546037 0.00012866782341728787 -8.641188671585462e-05 0.00012866782341728787 -0.0021581835067510965 0.00012018380358794536 -8.641188671585462e-05 0.00012018380358794536 0.0004029840536185078" pbc="T T T"
C       -0.13175788      -0.00762063       3.67084443       0.00000000      -0.01559586      -0.04148416      -0.06611390
C       -1.38552806       2.09886497       3.55251612       0.00000000       0.00563312      -0.01404534      -0.03906690
C       -2.62046857       4.24989911       3.43764030       0.00000000      -0.00701055       0.00914179       0.00345727
C       -3.84043386       6.40489918       3.46886201       0.00000000       0.01376839       0.00633552      -0.00923686
C       -5.05333673       8.55555249       3.61625696       0.00000000      -0.01038106       0.04661490      -0.01269577
C        2.33933227       0.02825495       3.68112970       0.00000000      -0.02948516      -0.00785453      -0.00239511
C        1.08498536       2.15544153       3.75281208       0.00000000      -0.00476629      -0.01181326       0.09931488
C       -0.18429192       4.23610415       3.64735330       0.00000000       0.06989958       0.00490393      -0.02814340
C       -1.41011482       6.42009501       3.47591569       0.00000000       0.04484767      -0.03627908       0.00961961
C       -2.61299861       8.56450409       3.51864398       0.00000000      -0.03414047      -0.05019501       0.03640876
C        4.80715246      -0.00767427       3.68579970       0.00000000       0.01239491       0.01287235      -0.06037242
C        3.60047256       2.14769311       3.92115957       0.00000000      -0.03982392       0.02594173      -0.01019865
C        0.94889798       6.42060591       3.96542646       0.00000000      -0.01745888       0.01280916      -0.07073110
C       -0.15755490       8.53121489       3.66619745       0.00000000       0.03803987      -0.02759630      -0.04914047
C        7.27653543      -0.04839506       3.66375386       0.00000000       0.04557152       0.02148852       0.02782862
C        6.06465122       2.10170649       3.71410190       0.00000000      -0.01248623      -0.00192176       0.04243896
C        4.87592534       4.22883424       4.04301248       0.00000000       0.02162984      -0.02252424      -0.03873675
C        3.72480668       6.42445921       4.19053071       0.00000000      -0.04138652       0.06151456       0.00064462
C        2.33889946       8.49253405       3.86570903       0.00000000      -0.02492195       0.00928134       0.01384752
C        9.73499682      -0.04819317       3.66173121       0.00000000      -0.00178970      -0.01253934       0.01023863
C        8.50658012       2.09561062       3.55794809       0.00000000      -0.03898203       0.01963523      -0.03920549
C        7.28664296       4.24993426       3.61028728       0.00000000      -0.00625019       0.01561563       0.00105743
C        6.08441694       6.40742756       3.78783401       0.00000000       0.02810083       0.01836722      -0.03382866
C        4.82864466       8.52879954       3.80290885       0.00000000       0.01908198       0.00644687      -0.01312995
C       -0.15272983       1.40706245       3.64129241       0.00000000       0.01442259      -0.04290541      -0.00339962
C       -1.40869731       3.52079937       3.49676961       0.00000000       0.01580648       0.01948220      -0.01418665
C       -2.62185757       5.68825411       3.41436808       0.00000000       0.01768146      -0.00900941       0.04702014
C       -3.83415683       7.83941405       3.50936872       0.00000000      -0.04517503      -0.01436908       0.02735331
C       -5.05907225       9.97975117       3.65425803       0.00000000      -0.01528101       0.01905929      -0.01275063
C        2.34309661       1.44347007       3.79856055       0.00000000      -0.02326440      -0.01941659       0.07306888
C        0.96219750       3.51969025       3.88151530       0.00000000       0.05453251       0.00431251       0.06358359
C       -0.18519606       5.70923986       3.65962060       0.00000000       0.02778908      -0.01654686       0.02317824
C       -1.38805290       7.84154066       3.52494649       0.00000000       0.01717452      -0.04145007       0.03378814
C       -2.60215947       9.98350734       3.62860702       0.00000000      -0.02056148      -0.00508338      -0.00484826
C        4.83327235       1.40317321       3.77703586       0.00000000      -0.01895198       0.02677284      -0.00922512
C        3.72356473       3.50275529       4.16643159       0.00000000      -0.05633977      -0.02559606      -0.02478683
C        1.07588065       7.78559976       3.83191155       0.00000000       0.00914847      -0.02879952       0.02697477
C       -0.13492189       9.94353785       3.66796269       0.00000000       0.05670332       0.00909428      -0.01580208
C        7.28702227       1.37484536       3.62656696       0.00000000      -0.01179024       0.02099066       0.01553321
C        6.08543465       3.52455172       3.78207369       0.00000000       0.02097648      -0.00533794      -0.03613212
C        4.87724009       5.70337873       4.05668985       0.00000000       0.01218731      -0.00439208      -0.01002696
C        3.59656282       7.78242975       3.95997931       0.00000000      -0.01926226       0.05231103       0.02544012
C        2.33857844       9.90556163       3.71665267       0.00000000       0.00365803       0.00432413       0.02924887
C        9.72688348       1.37327824       3.56570460       0.00000000      -0.02946936       0.00515373       0.01873293
C        8.50055654       3.53018440       3.50759902       0.00000000      -0.02731842       0.00196581      -0.03472281
C        7.28402107       5.68385893       3.59748230       0.00000000       0.00897874      -0.00219486       0.02824614
C        6.06007750       7.82931418       3.72738863       0.00000000       0.03321475       0.05104295      -0.01209662
C        4.80785174       9.94164992       3.70496137       0.00000000       0.00163973      -0.01983989      -0.00144619
Cd       2.28361459       4.95720536       4.79700412       0.00000000      -0.05221351       0.00691916       0.12971868
O        5.25056030       5.56936717       7.34662500       1.00000000       0.28183131      -0.24474481      -0.62491836
O        6.00062998       5.06613805       6.49516301       1.00000000      -0.27060626       0.21354163       0.49059433
