51
Lattice="12.336457 0.0 0.0 -6.168228499999997 10.683685154694365 0.0 0.0 0.0 15.0" Properties=species:S:1:pos:R:3:initial_magmoms:R:1:forces:R:3 energy=-435.21059578443055 free_energy=-435.21059578443055 stress="-0.0027405468705239185 -0.001083871767067465 4.0375854132503764e-05 -0.001083871767067465 -0.005166620004892914 -3.2053477855349365e-05 4.0375854132503764e-05 -3.2053477855349365e-05 -4.72854571682104e-05" pbc="T T T"
C       -0.03767927      -0.02380031       3.49021392       0.00000000      -0.00511509       0.00155485       0.01530029
C       -1.27352543       2.12474395       3.49945371       0.00000000       0.00360105      -0.00346782      -0.00243982
C       -2.51084084       4.25778088       3.62944983       0.00000000      -0.00898728      -0.00701562       0.00579326
C       -3.73698843       6.39193468       3.58428675       0.00000000       0.00543595       0.00327672      -0.00182766
C       -4.96984815       8.52224083       3.51724304       0.00000000       0.00160326       0.00401063      -0.01117879
C        2.43147917      -0.06714162       3.64392752       0.00000000      -0.00452493      -0.00201972      -0.01181203
C        1.21750086       2.05165270       3.40715731       0.00000000       0.00079709      -0.00771702       0.00098285
C       -0.05790790       4.31072636       3.63724030       0.00000000      -0.00711510      -0.00536806      -0.02390026
C       -1.29836880       6.40651405       3.81050869       0.00000000       0.00797977      -0.00061525       0.01218316
C       -2.50285114       8.52120590       3.71069611       0.00000000       0.00296419       0.00048747      -0.00131579
C        4.90399245      -0.03331109       3.80536695       0.00000000       0.00017360      -0.00716544       0.00207358
C        3.63361631       2.03696304       3.92115510       0.00000000      -0.00257322      -0.00064227       0.01081681
C        1.09680978       6.42764423       4.31915511       0.00000000       0.00649626      -0.00222834       0.00440248
C       -0.02778334       8.52078764       3.87586642       0.00000000      -0.00012076      -0.00614613       0.00374948
C        7.37273353      -0.02299885       3.77319236       0.00000000      -0.00985819      -0.00325961       0.00748758
C        6.11984579       2.13401575       3.78498427       0.00000000       0.00726599       0.00821884      -0.00026919
C        4.90478035       4.36089722       3.71161375       0.00000000      -0.00166123       0.00150490      -0.00671745
O        3.76184971       6.46929256       3.67573337       0.00000000       0.02713721       0.01035591       0.00340259
C        2.46388341       8.50171485       3.81706129       0.00000000      -0.01348353       0.00454935       0.00202823
C        9.82921229      -0.02258253       3.60247199       0.00000000      -0.00923891       0.00944502       0.00427157
C        8.59265441       2.12058789       3.64443105       0.00000000       0.00000060      -0.00002239      -0.00971220
C        7.35373425       4.26253177       3.59519686       0.00000000       0.00089041       0.00882144       0.00292633
C        6.15179256       6.41947438       3.43851671       0.00000000       0.00466329      -0.00689976       0.00423377
C        4.90643572       8.53854463       3.51781760       0.00000000       0.00745430       0.00009549       0.02221455
C       -0.03802152       1.40412739       3.44297867       0.00000000       0.00164510      -0.00426428       0.01365743
C       -1.26177504       3.55592008       3.58532880       0.00000000      -0.00704145      -0.00579383      -0.01909383
C       -2.51157961       5.68227126       3.67249359       0.00000000       0.00385715      -0.00251642       0.00720919
C       -3.73199078       7.81234757       3.59566315       0.00000000       0.00319951       0.00393328       0.00048119
C       -4.97471125       9.93826557       3.54120353       0.00000000      -0.00631194       0.00452542      -0.01985014
C        2.42416700       1.33742138       3.66077055       0.00000000       0.00122645      -0.00570405      -0.01896544
P        1.46299754       3.72631377       2.91973536       0.00000000       0.00816059      -0.01257912       0.00050747
C       -0.05511465       5.71770506       3.93202162       0.00000000       0.00652621      -0.00556394       0.00968815
C       -1.27261516       7.82020107       3.81541662       0.00000000       0.00455984       0.00010677      -0.01456497
C       -2.49533135       9.93291863       3.73162856       0.00000000      -0.00286758      -0.00214121      -0.01003191
C        4.89577957       1.39647044       3.85750182       0.00000000       0.00364810       0.00040848       0.00000810
P        3.37585155       3.72186937       4.33545433       0.00000000      -0.00722753       0.00701264       0.00988923
C        1.20862862       7.77530436       4.00746287       0.00000000      -0.00682371      -0.00413545      -0.01346876
C       -0.02769744       9.94267625       3.81953992       0.00000000      -0.00293004      -0.01025324      -0.01096935
C        7.35668013       1.41098540       3.73317756       0.00000000       0.00148022      -0.00072842      -0.00744693
C        6.10665714       3.57152697       3.68863900       0.00000000       0.00288068       0.01493373       0.01279317
C        4.94377144       5.75171017       3.54234970       0.00000000       0.00897989       0.00375427       0.01075948
C        3.70570579       7.84419000       3.66047843       0.00000000       0.00174813       0.01144756       0.01520610
C        2.44166488       9.92947957       3.72718132       0.00000000      -0.01381938       0.00528324       0.00697479
C        9.83076736       1.41167542       3.57858060       0.00000000       0.00143892       0.00689681      -0.00854105
C        8.59323301       3.54632924       3.61640276       0.00000000      -0.00763830      -0.00242279       0.00515375
C        7.37137497       5.68043895       3.51726058       0.00000000       0.00554998       0.00230256      -0.01288382
C        6.14290791       7.83219481       3.45671563       0.00000000       0.00717235      -0.00529701      -0.00895767
C        4.89403302       9.96014034       3.52905335       0.00000000      -0.00699196       0.00559078       0.00205499
Cd       2.30396622       5.45021189       5.83540355       0.00000000       0.01239274      -0.00561252      -0.02735130
O        3.01234052       4.73400400       8.50828798       1.00000000       0.01600393       0.07788063      -0.04780668
O        3.35539369       5.70974214       7.71551604       1.00000000      -0.04260264      -0.07681709       0.09285549
