52
Lattice="12.336457 0.0 0.0 -6.168228499999997 10.683685154694365 0.0 0.0 0.0 15.0" Properties=species:S:1:pos:R:3:forces:R:3 energy=-440.8125068331922 free_energy=-440.8125068331922 stress="-0.0043078748396181135 0.0018912984578980565 7.059512452701872e-06 0.0018912984578980565 -0.005669077280383437 2.5877366587538008e-05 7.059512452701872e-06 2.5877366587538008e-05 -4.146484197015779e-06" pbc="T T T"
C       -0.01006729       0.01994291       3.63014610       0.00711162       0.00328139      -0.00075821
C       -1.24487764       2.14729836       3.69258150      -0.00306374      -0.00024778       0.00717643
C       -2.47198073       4.28268894       3.67334947       0.00294326       0.00514642      -0.00501952
C       -3.70672074       6.41978380       3.59069281      -0.00202264       0.00042799       0.00711221
C       -4.95593117       8.55642205       3.54103386      -0.00293275      -0.00002118       0.00690263
C        2.45169423       0.02508192       3.74209521       0.00249403      -0.00319455       0.00140351
C        1.20605216       2.15736675       4.02480880       0.00335541      -0.00027782       0.00067358
C       -0.03887974       4.23852261       4.15029773       0.00060131      -0.00510696       0.00006399
C       -1.25969121       6.41978207       3.94756680      -0.00651064       0.00594013       0.00163998
C       -2.48164128       8.55943807       3.72382097       0.00111922       0.00964558       0.00321587
C        4.92240071       0.01474467       3.69666132      -0.00563926       0.00079270      -0.00928598
C        3.70583372       2.16660311       3.86365377      -0.00586509      -0.00205182       0.00174130
P        1.30350302       6.45084932       4.96267584      -0.00079553       0.00734817      -0.01176102
C       -0.01723548       8.57529299       3.88143000       0.00370038      -0.00549187      -0.00557358
C        7.38726003       0.02498288       3.62073863       0.00077607      -0.00578810       0.00085292
C        6.17151728       2.13417916       3.59105901       0.00443174      -0.00459100       0.00431363
C        4.94454333       4.23873786       3.64665177      -0.00288676       0.00188506       0.00055941
S        3.44537056       6.28633436       2.94165603       0.00597527       0.00955276       0.00033488
C        2.45315214       8.60968489       3.70658982       0.00212453      -0.01343424      -0.00399686
C        9.86565040       0.02682240       3.54632678      -0.00259745      -0.00242211      -0.00506230
C        8.63399746       2.15041509       3.53762551       0.00852931       0.01240630       0.00328223
C        7.40994538       4.28019614       3.50860430      -0.00207482      -0.00579892      -0.00101013
C        6.15275831       6.41311567       3.41675660      -0.00260519      -0.00157853       0.00216618
C        4.91701803       8.56039244       3.44044963      -0.00805179      -0.00276502       0.00535968
C       -0.02024873       1.43339879       3.77003355       0.00109384       0.00457400       0.00206315
C       -1.25946694       3.55853335       3.80731379      -0.00110525      -0.00088883      -0.00874433
C       -2.48111640       5.70786115       3.72385735      -0.00225990       0.00266923       0.00137039
C       -3.71541121       7.84623517       3.61374034       0.00056718       0.00630581       0.00643495
C       -4.94842862       9.98579892       3.63757921       0.00529329       0.00074519       0.00499092
C        2.45415125       1.43746252       3.90524644      -0.00258174      -0.00526261      -0.00528487
C        1.11697539       3.49922905       4.38803070       0.01674458       0.00680291      -0.00296991
C       -0.09325453       5.67697936       4.25945158      -0.00711058      -0.00136806      -0.00917294
C       -1.25248378       7.85091499       3.87540818      -0.00119852       0.00687886       0.00986448
C       -2.48366223       9.98615491       3.71688156      -0.00165252       0.00398913      -0.00250533
C        4.93962165       1.43004874       3.68790148      -0.00339509      -0.00065710      -0.00010962
C        3.80322308       3.53968945       4.03028648       0.00026197      -0.00100866      -0.00578210
C        1.23901034       7.92147936       4.02227908       0.00588398      -0.00234458       0.00070710
C       -0.01318161       9.99332489       3.70642598      -0.00480030      -0.00441575       0.00154587
C        7.40234901       1.43545442       3.55676700       0.01223134       0.00219017       0.00366303
C        6.19369348       3.54985935       3.55736745      -0.00354671      -0.00440304       0.00345070
C        4.96934722       5.65197420       3.39595345      -0.00301720       0.00395724      -0.00328674
C        3.65977011       7.91850982       3.43394799      -0.00309097      -0.00746123      -0.00095409
C        2.45855044      10.01799293       3.60763327      -0.00067923      -0.01381074      -0.00375238
C        9.86314999       1.44308914       3.56579806      -0.00089955       0.00074556       0.00439952
C        8.64007990       3.57160025       3.54790894       0.00436476       0.00951178      -0.00200790
C        7.40246349       5.70438506       3.49570577      -0.00022335      -0.00603918       0.01024485
C        6.14692387       7.84193841       3.43012616      -0.00810202      -0.00159476      -0.00319394
C        4.92601516       9.99394718       3.53152406       0.00267705       0.00048513      -0.00787068
Cd       2.66083124       4.31020804       5.74528221      -0.00157592       0.01058849      -0.01030553
O        3.54107954       4.76800171       7.59700455      -0.00286536       0.00158442       0.00515209
O        2.61781509       4.27628098       8.64614143       0.01394353      -0.00415796       0.00851782
H        3.19374377       4.45521909       9.41319884      -0.01307380      -0.01127202      -0.00079533
