52
Lattice="12.336457 0.0 0.0 -6.168228499999997 10.683685154694365 0.0 0.0 0.0 15.0" Properties=species:S:1:pos:R:3:forces:R:3 energy=-449.6622899972107 free_energy=-449.6622899972107 stress="-0.005045374811836218 -0.00044252509266173157 5.567447420404375e-06 -0.00044252509266173157 0.003823687130194412 -2.2529393579917586e-05 5.567447420404375e-06 -2.2529393579917586e-05 2.628330056034613e-05" pbc="T T T"
C        0.00293357       0.01410130       3.67514638       0.00497855      -0.00398387       0.00671509
C       -1.25137972       2.12442571       3.67311773       0.00061926      -0.00529385      -0.00623013
C       -2.47860866       4.27001225       3.59149935      -0.00308401       0.00193614       0.00224038
C       -3.69820523       6.42324801       3.53207478      -0.00590328      -0.00039691       0.00194195
C       -4.92462756       8.57572714       3.58619429       0.00774548       0.00010459       0.00489292
C        2.46761084       0.06642172       3.73577855       0.00391249       0.00050006      -0.00102380
C        1.20087448       2.18732076       3.90917396       0.00132563       0.00049121      -0.00502783
C       -0.03681258       4.22559849       3.93312510      -0.00264173      -0.00528445      -0.00814560
C       -1.26384649       6.41971515       3.74001431      -0.00596331      -0.00162373      -0.00496068
C       -2.47616509       8.57494839       3.65877416      -0.00328625      -0.00297979      -0.00098870
C        4.93160900       0.01400088       3.72076642       0.00139350       0.00035522       0.00296384
C        3.72722323       2.20542578       3.85302455      -0.00368928       0.00393760      -0.00009337
C        1.08811133       6.42952701       4.25538990       0.00440135      -0.00367203      -0.00135612
C       -0.01460641       8.53941501       3.82284032      -0.00104691       0.00272897       0.00147157
C        7.40641257      -0.03180871       3.71093523       0.00461532      -0.00131201      -0.00087356
C        6.17769443       2.12744493       3.62422652       0.00002532      -0.00232190       0.00764119
C        4.95276975       4.25134200       3.74109918       0.00047127      -0.00040583       0.00130918
N        3.83058545       6.43050064       3.93801834      -0.00631161      -0.00272824       0.00478305
C        2.48348249       8.49097192       3.88747164       0.00180401       0.00345387       0.00839721
C        9.86425145      -0.03146187       3.67752274      -0.00458335       0.00061490       0.00445907
C        8.63271237       2.11861937       3.58072097      -0.00216708      -0.00016721       0.00232871
C        7.40896801       4.27293533       3.51367323      -0.00147538      -0.00126338      -0.00579297
C        6.19074851       6.42128981       3.55548955       0.00253055       0.00424855      -0.00117484
C        4.95314798       8.54049185       3.66979165       0.00261464       0.00389639      -0.00343980
C       -0.01269715       1.43387402       3.73563092       0.00394750      -0.00347421       0.00364183
C       -1.26317633       3.54456768       3.70098856      -0.00258071      -0.00468488      -0.01069518
C       -2.47537886       5.70382140       3.60022037      -0.00763384       0.00209283      -0.00628000
C       -3.69775638       7.85527196       3.57738925      -0.00115788      -0.00379001       0.00653214
C       -4.92658508      10.00730525       3.66535602       0.00630860      -0.00137731       0.00524627
C        2.46720177       1.49397167       3.85413686       0.00068095       0.00186049      -0.00034209
N        1.09420451       3.52233724       4.13158660       0.00189215       0.00033034      -0.01207692
C       -0.02992404       5.70045494       3.97144521      -0.00149119      -0.00281996      -0.00871528
C       -1.24865780       7.84561851       3.73264238      -0.00419639      -0.00165415      -0.00543504
C       -2.47385617      10.00526682       3.70677448       0.00126836      -0.00167531      -0.00229406
C        4.94212309       1.43890290       3.71821260      -0.00326987       0.00243256      -0.00192064
N        3.81975474       3.55779504       3.97068369      -0.00261592       0.00276776       0.00643852
C        1.22127585       7.77812362       3.99365650       0.00106387       0.00147596       0.00127005
C       -0.00192210       9.95767256       3.74512882       0.00417969       0.00410804       0.00081963
C        7.40567641       1.39775182       3.62017564       0.00039839      -0.00258684       0.00331726
C        6.18559818       3.55413193       3.58243636      -0.00008743      -0.00363410       0.00267916
C        4.96120546       5.72558175       3.72162313       0.00036011       0.00211904       0.00402827
C        3.74183062       7.78273978       3.82865749       0.00124936       0.00177733       0.00640257
C        2.47162276       9.91213194       3.75137075       0.00050177       0.00115813      -0.00005730
C        9.85922284       1.39910595       3.62660964      -0.00309561      -0.00323944       0.00179643
C        8.63437305       3.55057080       3.53395322      -0.00132501       0.00082867       0.00051586
C        7.41287376       5.70150649       3.50330604       0.00015410      -0.00064369       0.00709745
C        6.18452109       7.84860242       3.58122480       0.00702322       0.00622837      -0.00422968
C        4.93546183       9.96114587       3.66599504      -0.00063207       0.00364477       0.00080465
Cd       2.46055861       5.06819482       5.28367298       0.00561850      -0.00318030       0.00054064
O        3.17647729       4.49411420       7.20855624       0.00099116       0.00492011      -0.00195261
O        2.16930836       4.94874276       8.18590798       0.00809051      -0.00222554       0.00114098
H        2.78848579       5.32634267       8.83734410      -0.01192749       0.00840704      -0.00830967
