52
Lattice="12.336457 0.0 0.0 -6.168228499999997 10.683685154694365 0.0 0.0 0.0 15.0" Properties=species:S:1:pos:R:3:forces:R:3 energy=-435.89171463136745 free_energy=-435.89171463136745 stress="-0.00428037140865357 -0.0017612042043277294 3.840837853792079e-05 -0.0017612042043277294 -0.007695632692600938 -5.4895345374791275e-05 3.840837853792079e-05 -5.4895345374791275e-05 2.2521468186227037e-06" pbc="T T T"
C       -0.00311074      -0.02924762       3.97506044       0.00244779       0.00154394      -0.00788217
C       -1.24579779       2.12256856       3.99550025       0.00464884      -0.00431755      -0.01307332
C       -2.49149289       4.25499136       3.73192462      -0.00045431       0.00287683      -0.00190349
C       -3.70879412       6.39212639       3.67511102      -0.00003664      -0.00253993      -0.00597618
C       -4.92735575       8.52243719       3.81808678      -0.00085990      -0.00379040       0.00346990
C        2.47183345      -0.06569139       3.83749304       0.00135325      -0.00175023       0.00057752
C        1.25404953       2.04772878       4.11947551       0.00028296       0.00012235       0.00100483
C       -0.05757019       4.29200985       3.76221067      -0.00632052      -0.00044486       0.00320403
C       -1.25727494       6.39106852       3.43549008      -0.01115469       0.00012199      -0.00598902
C       -2.45488737       8.50847115       3.62292141      -0.00274691      -0.00472931      -0.00784387
C        4.93142739      -0.03215964       3.66280338       0.00400253       0.00355979      -0.00233712
C        3.67020646       2.03430542       3.56451917      -0.01393628      -0.00056146       0.00284368
S        1.37778897       6.32168220       2.70293381       0.00574299      -0.00214188       0.00155223
C        0.00404073       8.53041337       3.49729842       0.00815490      -0.00415141       0.00226033
C        7.39137362      -0.00762328       3.73125226       0.00257838       0.00052608       0.00153922
C        6.14521957       2.13071311       3.61447476      -0.00347786       0.00378875      -0.00317435
C        4.95532937       4.31670687       3.54584949       0.00490257       0.00192998      -0.00337211
C        3.75584365       6.43464089       4.17425696      -0.00422877       0.00843677      -0.00062410
C        2.46616063       8.54966578       3.74852681      -0.00173504       0.00179122       0.00874609
C        9.86135025      -0.00598471       3.92313378      -0.00631870      -0.00449132      -0.00055675
C        8.61800979       2.12546888       3.81192356       0.00184954       0.00487412      -0.00933962
C        7.38566856       4.26284866       3.70328564       0.00631186       0.00298737       0.00635626
C        6.17873346       6.41115967       3.79716038       0.01147521      -0.00566731       0.00456950
C        4.93803381       8.53656438       3.90847846       0.00122907       0.00053725       0.01232675
C       -0.00525007       1.39778811       4.06061717       0.00492238       0.00124540      -0.00652546
C       -1.26356392       3.54086272       3.84881259      -0.00306922      -0.00190554       0.00663377
C       -2.48732712       5.67514194       3.60936209      -0.00671025      -0.00010079      -0.00841953
C       -3.69835307       7.80950807       3.69800679      -0.00381655      -0.00548209       0.00354886
C       -4.93881091       9.93367015       3.89100891       0.00160011      -0.00201176       0.01556310
C        2.46875199       1.34766311       3.87512194      -0.00746007      -0.00287141       0.00130052
P        1.37969572       3.72222670       4.59133030       0.00474480      -0.00792391      -0.00800419
C       -0.07790009       5.63421380       3.33329484      -0.01187379      -0.00025959       0.00226710
C       -1.22727035       7.80887466       3.47029803       0.00069863      -0.00028330      -0.00536708
C       -2.46070392       9.92819429       3.70258234       0.00410241      -0.00262032       0.00138860
C        4.92257592       1.40223633       3.60930148      -0.00836046       0.00659478      -0.00273737
S        3.50203627       3.63003136       2.92082665       0.00623839      -0.01354918      -0.00406780
C        1.26313109       7.89506967       3.39643088       0.00712750      -0.00756908       0.00469675
C        0.00023061       9.95380559       3.64196307       0.00717526       0.00020837      -0.00763543
C        7.37786976       1.42269258       3.72758816      -0.00007944       0.00305305      -0.00276009
C        6.14063965       3.55674037       3.61733193       0.00545986       0.00372693       0.00820286
C        4.91910047       5.72141503       3.82849186       0.00358728       0.00345927       0.00962855
C        3.69816718       7.80218371       3.92246272      -0.00253758       0.01149637       0.00636842
C        2.45944050       9.96982659       3.81938163      -0.00513189      -0.00299688       0.00442417
C        9.85753079       1.41601794       3.92556404       0.00024014      -0.00397435      -0.00427377
C        8.61387813       3.54615422       3.75650613       0.00256372       0.00656766       0.00035299
C        7.39335920       5.68567101       3.72462717       0.01075028      -0.00235818      -0.00227502
C        6.17375450       7.82632013       3.85836687       0.00275610      -0.00613230      -0.00206359
C        4.92902662       9.95713175       3.94151531      -0.00062559       0.00110903      -0.00676097
Cd       2.64840004       5.46838957       5.78864539      -0.00008626       0.00657750       0.01279291
O        3.40226004       5.16409842       7.71467352      -0.01697252       0.00542899       0.00488788
O        2.38186227       5.74589608       8.61341078       0.01526222       0.00797691       0.00346472
H        2.78848883       5.49614606       9.46500267      -0.01421577       0.00408365      -0.01100916
