51
Lattice="12.336457 0.0 0.0 -6.168228499999997 10.683685154694365 0.0 0.0 0.0 15.0" Properties=species:S:1:pos:R:3:initial_magmoms:R:1:forces:R:3 energy=-443.4241826385885 free_energy=-443.4241826385885 stress="-0.005726899042521548 0.0009047676528690508 3.3788393330476466e-07 0.0009047676528690508 0.0018096767946364793 -1.7867563142194836e-05 3.3788393330476466e-07 -1.7867563142194836e-05 1.5922700329538524e-06" pbc="T T T"
C       -0.07845566       0.08206798       3.74834934       0.00000000      -0.00655658      -0.01261351       0.01053497
C       -1.32950501       2.18936208       3.77078592       0.00000000       0.00768541      -0.00637038      -0.00257517
C       -2.56622109       4.33312610       3.65342332       0.00000000      -0.00817235       0.00283597       0.01452345
C       -3.79431702       6.48376923       3.55886382       0.00000000       0.00782324       0.00621395       0.00574690
C       -5.01262563       8.63640846       3.62390609       0.00000000      -0.00288987      -0.00049813      -0.01690372
C        2.38990585       0.11740172       3.70040290       0.00000000       0.00335043      -0.00841075       0.00052394
C        1.15341640       2.26738123       3.94777958       0.00000000      -0.00983119       0.00495581       0.00556491
C       -0.12293108       4.31437085       4.02051530       0.00000000      -0.00614796      -0.00408149       0.00105008
C       -1.36307955       6.49289613       3.77028129       0.00000000       0.01547461       0.00867317       0.00002518
C       -2.56867824       8.63522129       3.64151715       0.00000000      -0.00995422      -0.00451351       0.01611633
C        4.85033069       0.06659752       3.63926386       0.00000000       0.01183861      -0.00988970       0.00269960
C        3.66386703       2.19449542       3.64287990       0.00000000      -0.00833392       0.00380231      -0.01733750
C        1.01338811       6.51239964       4.20316959       0.00000000       0.00028926       0.00131073      -0.00390033
C       -0.11039481       8.61083713       3.81282679       0.00000000       0.00149687       0.00020670      -0.00730050
C        7.32439121       0.03452680       3.70793161       0.00000000      -0.00138337       0.00810573       0.00075749
C        6.10453674       2.17720376       3.53173680       0.00000000       0.00385277       0.00062649       0.00568515
C        4.89986515       4.29752471       3.53336170       0.00000000       0.00229977       0.00744432       0.00741535
C        3.72798131       6.45728844       4.01119236       0.00000000       0.00401511       0.00272420      -0.00438027
C        2.38735977       8.57400705       3.93212538       0.00000000      -0.00237480       0.00109533       0.01300781
C        9.78501025       0.04038778       3.75333612       0.00000000      -0.01151852       0.00432542      -0.00872491
C        8.55493471       2.18255477       3.61575094       0.00000000       0.00458148      -0.00285423      -0.00353943
C        7.32660695       4.33339475       3.50322965       0.00000000      -0.00220333      -0.00128943       0.00271323
C        6.09384967       6.47688663       3.56048627       0.00000000       0.00555602      -0.00651029       0.01457765
C        4.86842457       8.60531511       3.75285812       0.00000000       0.00463094      -0.01049262       0.00607197
C       -0.08337996       1.50422313       3.82580756       0.00000000       0.00268208      -0.00868157      -0.01499326
C       -1.35192202       3.61033079       3.79521708       0.00000000      -0.00707457      -0.00400537      -0.00383333
C       -2.57463562       5.76743322       3.64251103       0.00000000       0.01347728       0.01178630      -0.00369715
C       -3.79213647       7.91574260       3.59240341       0.00000000      -0.00769129       0.00169865      -0.00121021
C       -5.00980153      10.06530967       3.69761834       0.00000000      -0.00112482      -0.00638933      -0.00973646
C        2.41654450       1.54871895       3.77666389       0.00000000      -0.01129605       0.00119755       0.00422788
C        1.03927337       3.60592643       4.24486073       0.00000000      -0.00351194       0.01201795      -0.00616248
C       -0.13659709       5.78749215       4.00198209       0.00000000       0.00483873      -0.00525763       0.01336909
C       -1.34346918       7.91465173       3.73098274       0.00000000      -0.00248688       0.00834963      -0.00277661
C       -2.55886716      10.06360222       3.65297648       0.00000000       0.00607734      -0.00925045      -0.00141082
C        4.86737553       1.48613572       3.58097976       0.00000000      -0.00050986      -0.00291530       0.00769634
O        3.72692101       3.57088777       3.56509420       0.00000000      -0.00259868       0.01607902       0.00374250
C        1.12509622       7.86971097       3.99049637       0.00000000      -0.00041064       0.00144758       0.00565252
C       -0.08678042      10.02236516       3.71381401       0.00000000       0.01162568      -0.00554105      -0.01242377
C        7.32238845       1.46324204       3.60044510       0.00000000       0.00616139       0.00395316      -0.00698475
C        6.10059444       3.60426938       3.49147373       0.00000000      -0.00019557       0.00050192      -0.01193946
C        4.84809627       5.73739987       3.66313834       0.00000000       0.00269775       0.00333656      -0.01242162
C        3.63794056       7.83962216       3.90522505       0.00000000       0.00059290      -0.00629461      -0.01108782
C        2.38660021       9.99186843       3.79625601       0.00000000      -0.01099047       0.00452521      -0.01112080
C        9.77762486       1.46442479       3.70053994       0.00000000       0.00490592       0.00149698       0.01626970
C        8.55030787       3.61519421       3.56908171       0.00000000      -0.00648355      -0.00406333       0.00416753
C        7.31519666       5.76265265       3.51319952       0.00000000       0.00661631      -0.00006624      -0.00160107
C        6.09285874       7.90390907       3.63157395       0.00000000       0.00635156      -0.00871172       0.01793016
C        4.85772274      10.02753191       3.75289336       0.00000000      -0.01286346      -0.00723393      -0.00028272
Cd       2.41084920       5.10701574       5.06345286       0.00000000      -0.01171319       0.00446565      -0.01491602
O        4.31774564       3.97305001       6.42188143       1.00000000       0.00469149      -0.01476772      -0.01555002
O        4.74850926       2.83993256       6.15141993       1.00000000       0.00470411       0.02752602       0.02674048
