52
Lattice="12.336457 0.0 0.0 -6.168228499999997 10.683685154694365 0.0 0.0 0.0 15.0" Properties=species:S:1:pos:R:3:forces:R:3 energy=-441.2006132490519 free_energy=-441.2006132490519 stress="-0.0030959679180425632 0.0003497867794819758 1.97717283242537e-05 0.0003497867794819758 -0.002981137957654992 -1.0191348524876729e-05 1.97717283242537e-05 -1.0191348524876729e-05 -1.1925664711809492e-06" pbc="T T T"
C       -0.07839797       0.01035434       3.89313683       0.01091477       0.00130952      -0.00205861
C       -1.31342542       2.14006308       3.96162273      -0.00369914      -0.00023977      -0.00719314
C       -2.53696629       4.27893274       3.90340851      -0.00741255       0.00042439      -0.00165424
C       -3.76889664       6.41569665       3.80326265      -0.00017219       0.00848832      -0.00799673
C       -5.01559795       8.55278792       3.78727737      -0.00677643      -0.00700505       0.00578359
C        2.38932407       0.00480188       3.89076240       0.00596799       0.00137675      -0.00830571
C        1.16649755       2.17503386       3.96255511      -0.00527734       0.00803931      -0.00144572
C       -0.06438462       4.25678923       4.09234479       0.00751534      -0.00480738      -0.00562829
C       -1.31506279       6.42360935       4.01848815      -0.00540600       0.00064182      -0.00672493
C       -2.55162342       8.55333636       3.94538244      -0.00876027       0.00387666       0.00467361
C        4.85841448       0.00195880       3.85528517       0.00777215      -0.00412712       0.00425878
C        3.61589889       2.04323408       3.40985617      -0.00756280       0.00276504       0.01356890
C        1.13444456       6.43210279       4.12219763      -0.00346833       0.00769768      -0.00954584
C       -0.08407280       8.55445814       4.02443321       0.00494015       0.00312320       0.00918848
C        7.31981592       0.01230227       3.90826008      -0.00470994      -0.00267649      -0.00264099
C        6.09859865       2.13230240       3.56659922       0.00997746      -0.01455334       0.00256138
C        5.00554875       4.27745150       2.99331900       0.00623564       0.00070649      -0.00064205
P        3.38134287       6.38085971       2.67612827      -0.00802924       0.00783463      -0.00868349
C        2.38854605       8.57134856       3.85842693       0.00213829       0.00766945       0.00035463
C        9.79278055       0.01046328       3.89573518      -0.01136831      -0.01055269      -0.00183626
C        8.55899648       2.14504598       3.83137711       0.00469841      -0.00737257       0.00438951
C        7.35669831       4.27775636       3.59467495      -0.00023918       0.00211142       0.00205493
C        6.13165131       6.42988206       3.41200065       0.01038489      -0.00186263       0.00041109
C        4.86023466       8.56371777       3.64100029       0.00356636       0.00073826      -0.00349991
C       -0.07796573       1.43395151       3.95764873      -0.00015662       0.00489463       0.00692103
C       -1.31703918       3.55917434       3.99023397      -0.00101521       0.00166762      -0.00514059
C       -2.53771684       5.70728702       3.91549225      -0.00747006       0.00296093       0.00096882
C       -3.77864642       7.84084859       3.85137804      -0.00946220       0.00273736       0.00013706
C       -5.01576210       9.97483123       3.88268847       0.01048094      -0.00578042      -0.00386702
C        2.39769933       1.42246829       3.79151340      -0.00942708       0.00618119       0.00787208
C        1.12177140       3.54331409       4.17052449       0.01488640       0.00547562       0.01040475
C       -0.06212725       5.72024019       4.09331166      -0.00086418      -0.00192127      -0.00120617
C       -1.31653779       7.84449981       4.01263351      -0.00293993       0.00444515      -0.01034130
C       -2.54521237       9.97617750       3.90820094       0.00506767       0.00197285      -0.00510007
C        4.86693717       1.41289125       3.61647881       0.00068640      -0.00861305      -0.00678489
S        3.55895628       3.47736602       2.45217800      -0.00401413       0.00328646      -0.00720863
C        1.15804775       7.82558067       4.01482717       0.00672175       0.00861136       0.00287118
C       -0.07816445       9.97517434       3.94279526       0.00442989      -0.00113827       0.00445486
C        7.31719199       1.43430056       3.78346909       0.01072667      -0.01080468      -0.00127093
C        6.14047481       3.54391908       3.37868555       0.00659978      -0.00976949      -0.00285198
C        4.96947136       5.69071292       3.04354546       0.00143620       0.00209069       0.01054093
C        3.60109795       7.90412762       3.52151600       0.00260982       0.00264424       0.00586403
C        2.38734734       9.98683694       3.92205619      -0.01373168      -0.00029097      -0.00359487
C        9.78648992       1.43065992       3.91183725      -0.00164404      -0.01138695       0.00743292
C        8.57154894       3.56804207       3.78656079      -0.00482311      -0.00352562       0.00152348
C        7.35144716       5.70582047       3.60358061       0.00694809       0.00496889       0.00610463
C        6.09847611       7.84819227       3.59754068      -0.00059124      -0.00614162       0.00041972
C        4.85764285       9.98031932       3.83210377       0.00217139       0.00224451      -0.00341529
Cd       2.58249562       4.98024904       4.98218156      -0.00512777      -0.00803227       0.01241662
O        4.30287526       4.68508411       6.14238351      -0.00901623       0.00949201      -0.00938761
O        3.75950394       4.65155907       7.51954175      -0.00224721      -0.01756046       0.00894472
H        4.39949417       5.25845228       7.93950677      -0.00146405       0.01768566      -0.00609647
