51
Lattice="12.336457 0.0 0.0 -6.168228499999997 10.683685154694365 0.0 0.0 0.0 15.0" Properties=species:S:1:pos:R:3:initial_magmoms:R:1:forces:R:3 energy=-436.49319373309527 free_energy=-436.49319373309527 stress="-0.004586406851552494 0.0017529475573552298 2.0000361520656876e-06 0.0017529475573552298 -0.00571073687336605 1.6249040623629186e-05 2.0000361520656876e-06 1.6249040623629186e-05 1.5178879362065704e-05" pbc="T T T"
C       -0.01483540       0.02286777       3.56835117       0.00000000       0.00595078      -0.00001085      -0.00072449
C       -1.25061979       2.14956520       3.63715431       0.00000000      -0.00076943       0.00159126      -0.00006115
C       -2.47833465       4.28655159       3.62767097       0.00000000      -0.00869625      -0.00629790      -0.00100881
C       -3.71386033       6.42335355       3.54819828       0.00000000      -0.00024923      -0.00681835       0.00321320
C       -4.96136218       8.55907021       3.48153084       0.00000000       0.00513588       0.00371135       0.01222333
C        2.44717245       0.02719919       3.68237348       0.00000000      -0.00220336       0.00464945       0.00326875
C        1.20206885       2.16142753       3.95509965       0.00000000       0.00191659      -0.00142037       0.00157893
C       -0.04260946       4.24171023       4.07916533       0.00000000      -0.00082796      -0.01013897       0.00199628
C       -1.26625112       6.42395696       3.89538588       0.00000000       0.00189019      -0.00141441      -0.00596282
C       -2.48666220       8.56269510       3.66905105       0.00000000      -0.00187279       0.00385801       0.01692603
C        4.91808040       0.01752302       3.64774591       0.00000000      -0.00652408      -0.00202173      -0.00309823
C        3.70010309       2.17086708       3.80614993       0.00000000      -0.00233781      -0.00278241       0.00214392
P        1.30906550       6.44693117       4.88492367       0.00000000      -0.00175137       0.01726986      -0.00487825
C       -0.02150020       8.57684469       3.82265024       0.00000000       0.01067880      -0.00290944       0.00267040
C        7.38327071       0.02683470       3.57441933       0.00000000       0.00092544      -0.00296601       0.00477737
C        6.16686343       2.13673462       3.55149647       0.00000000       0.00712598       0.00028865       0.00748849
C        4.93619004       4.24218858       3.58005119       0.00000000       0.00506686       0.00335935       0.00525086
S        3.44998446       6.29345005       2.83478821       0.00000000       0.00064120       0.01760921       0.00382228
C        2.44990498       8.60965627       3.63201089       0.00000000      -0.00892803      -0.00932973       0.00535843
C        9.86089489       0.02834399       3.49266301       0.00000000      -0.00275180       0.00751831      -0.00809091
C        8.62918077       2.15302519       3.50132656       0.00000000      -0.00405668       0.00863869       0.00118944
C        7.40349005       4.28249640       3.47145242       0.00000000       0.00199992       0.00071532      -0.00431320
C        6.14686700       6.41503671       3.35723224       0.00000000       0.00699787       0.00108789      -0.00069417
C        4.91296364       8.56313038       3.37174959       0.00000000      -0.00603833      -0.00483600       0.00010666
C       -0.02548621       1.43642574       3.70634485       0.00000000       0.00189604      -0.00029059       0.00854311
C       -1.26527425       3.56131082       3.74758886       0.00000000      -0.00758322      -0.00353612      -0.00030315
C       -2.48828852       5.71190011       3.68045980       0.00000000      -0.00161666      -0.00772604      -0.00978515
C       -3.72095795       7.84980873       3.56045985       0.00000000       0.00108455      -0.00307737       0.01472772
C       -4.95326202       9.98851090       3.57639708       0.00000000       0.00719569       0.00422863       0.00221674
C        2.44961212       1.44043181       3.84161918       0.00000000      -0.00318214       0.00091068      -0.00284039
C        1.11583142       3.50477481       4.31141489       0.00000000       0.00699303      -0.00207046       0.00917494
C       -0.09664597       5.67967493       4.19403366       0.00000000       0.00079401      -0.00615770      -0.00392577
C       -1.25769632       7.85417475       3.82222203       0.00000000       0.00699203       0.00707794       0.00041854
C       -2.48797627       9.98892419       3.66267895       0.00000000      -0.00897641       0.00246348      -0.00897604
C        4.93500533       1.43284351       3.64197365       0.00000000      -0.00015656      -0.00097447      -0.01092823
C        3.79481041       3.54543670       3.96818691       0.00000000       0.00353415      -0.00140647       0.00384879
C        1.23647765       7.92182798       3.95159653       0.00000000       0.00242207      -0.01346342       0.00831727
C       -0.01757796       9.99556094       3.65679412       0.00000000      -0.00071599      -0.00280204      -0.00326153
C        7.39821090       1.43788953       3.52151974       0.00000000       0.00461061      -0.00055434      -0.01073655
C        6.18712339       3.55217340       3.51134421       0.00000000       0.00749149       0.00163810       0.00367918
C        4.96374687       5.65380013       3.31678331       0.00000000       0.00202973       0.00761606       0.00633206
C        3.65670562       7.91965046       3.35349346       0.00000000      -0.01201269       0.00350503      -0.00754881
C        2.45429808      10.01890356       3.54963752       0.00000000      -0.00187982      -0.00804298      -0.00135450
C        9.85761076       1.44447832       3.52072076       0.00000000      -0.00443554       0.01197197      -0.00569363
C        8.63405830       3.57455594       3.51171653       0.00000000      -0.00626791       0.00213718      -0.00562128
C        7.39551348       5.70704455       3.45530055       0.00000000       0.00419518      -0.00472813      -0.01700456
C        6.14203064       7.84409381       3.36615360       0.00000000       0.00260612       0.00257530      -0.00164104
C        4.92154684       9.99627467       3.47028397       0.00000000      -0.00023297       0.00007493      -0.00754833
Cd       2.64541287       4.34732659       5.65951196       0.00000000      -0.00746547      -0.00793569       0.00096497
O        2.67522512       4.16107493       8.65506853       1.00000000       0.00048019       0.00019124      -0.01981469
O        3.40891077       4.67335485       7.72559448       1.00000000       0.00087810      -0.00097593       0.01557797
