52
Lattice="12.336457 0.0 0.0 -6.168228499999997 10.683685154694365 0.0 0.0 0.0 15.0" Properties=species:S:1:pos:R:3:forces:R:3 energy=-440.9646610196668 free_energy=-440.9646610196668 stress="-0.0002967302427330137 0.002281556306768497 2.1017043080512636e-05 0.002281556306768497 -0.004030336461898984 1.2051677550405845e-06 2.1017043080512636e-05 1.2051677550405845e-06 -2.373705062058651e-06" pbc="T T T"
C        0.02573369      -0.01748218       3.71162024      -0.00058773       0.00386859      -0.00274803
C       -1.18674479       2.14178496       3.54059432      -0.00073363       0.00319391       0.00030644
C       -2.43357880       4.27862659       3.63656445       0.00181407      -0.00600953       0.01551384
C       -3.67964687       6.40103891       3.74966527       0.00157211       0.00553103       0.01400117
C       -4.92435502       8.52469422       3.76598446      -0.00282667       0.00023395      -0.00537514
C        2.48821700      -0.02023833       3.89170854       0.00490947       0.00617947       0.00149373
C        1.29388742       2.03754475       3.42322161      -0.00800452       0.00492123       0.00805787
C       -0.02118629       4.31887666       3.23987635       0.00784609      -0.00100727       0.01031444
C       -1.20014391       6.42092583       3.67617260      -0.00781522      -0.00087027      -0.00504407
C       -2.45011296       8.53829761       3.89273043       0.00050941      -0.01072220      -0.00089323
C        4.96185622      -0.00560431       4.01817245      -0.00623623      -0.00154696      -0.00743656
C        3.72443759       2.14953497       4.00818302       0.00948329       0.00489709      -0.00292401
C        1.30779945       6.42708724       3.69321982       0.00061408      -0.00839743       0.00832264
C        0.01821346       8.54905639       3.91586964      -0.00485479       0.00847542       0.00536749
C        7.43423675       0.00796426       3.96391993       0.00037943      -0.00033116      -0.00699988
C        6.21213881       2.12382643       4.00494812       0.00059476       0.01148233      -0.00559018
C        4.96573499       4.22732284       3.91012917      -0.00294114       0.00548935       0.00214223
P        3.39561740       6.25210196       2.96929651       0.00422124      -0.01066294      -0.00017358
C        2.48286331       8.58557271       3.78053112      -0.00344183      -0.00273194       0.00467697
C        9.90659552       0.01218199       3.77501814       0.00506172       0.00118065       0.00964336
C        8.68012399       2.14115387       3.82004719       0.00043278      -0.00899733      -0.00040136
C        7.43970580       4.26348511       3.82171803       0.00437379       0.00520470       0.00059306
C        6.17127370       6.38542935       3.66567213       0.00679337      -0.01410707       0.00501751
C        4.94560982       8.53620085       3.63391077       0.00267265      -0.00329857       0.01037926
C        0.03405938       1.40798683       3.56233341      -0.00531014       0.00098802      -0.00069376
C       -1.19783315       3.56846941       3.46062756       0.00548597      -0.00065456       0.00169541
C       -2.43280927       5.70160784       3.68474646      -0.00678795      -0.00132199       0.00602313
C       -3.68366249       7.82318137       3.80725381      -0.00190685       0.00064999      -0.00813676
C       -4.91428515       9.95077803       3.79496339       0.00203903       0.00525259      -0.00517092
C        2.49485958       1.39905535       3.81882540       0.00087671       0.01122433       0.00227660
S        1.37370758       3.53689141       2.57236596      -0.00573827       0.00462370       0.00217585
C        0.05944285       5.72827787       3.49916599      -0.00699219       0.00129627      -0.00736915
C       -1.21243942       7.83431537       3.85192124       0.00047160      -0.00059517      -0.00050377
C       -2.44333273       9.95706748       3.96614977      -0.00147835      -0.01045303       0.00186521
C        4.96920036       1.41490773       4.03989553       0.00541251       0.00179098      -0.00910264
C        3.76781124       3.53077202       4.14595374       0.00233264       0.00069121      -0.00755442
C        1.25679746       7.83643667       3.81916813      -0.00782836       0.00057042      -0.00344224
C        0.02890741       9.96965441       3.99105841      -0.00472355       0.00800592       0.00121864
C        7.44863839       1.42399491       3.95164351      -0.00312399      -0.00145961      -0.00861741
C        6.22277241       3.53817190       3.93065691      -0.00234656       0.01306506      -0.00924972
C        4.96035754       5.63673850       3.62794810       0.00391635      -0.00739261      -0.01447566
C        3.68379552       7.88424716       3.54160454       0.00157530      -0.00317941       0.00422301
C        2.49943061       9.99689393       3.87080384       0.00350378      -0.00061488       0.00615131
C        9.92078917       1.43856495       3.72125667       0.00430483      -0.00006669       0.00571828
C        8.67782160       3.56164061       3.76954368      -0.00079387      -0.00791104      -0.00760994
C        7.42439475       5.68643496       3.74814995       0.00923765       0.00150526      -0.00513272
C        6.17780952       7.81622308       3.65836371       0.00123802      -0.01246654      -0.00419824
C        4.95668355       9.96412299       3.71608898       0.00220713       0.00296499      -0.01068377
Cd       2.39286397       4.93312428       5.10669706       0.00296662       0.01453992       0.01278893
O        2.10420108       5.77126462       7.00653919      -0.00556895      -0.01556334      -0.00835407
O        1.94258077       4.56846132       7.85136116      -0.00297242      -0.00321164      -0.00128258
H        2.65466562       4.75240286       8.49341014      -0.00383320       0.00574677       0.00919742
