52
Lattice="12.336457 0.0 0.0 -6.168228499999997 10.683685154694365 0.0 0.0 0.0 15.0" Properties=species:S:1:pos:R:3:forces:R:3 energy=-440.5518010780364 free_energy=-440.5518010780364 stress="-0.002097832337189568 0.002715538693458656 -3.813770801824168e-05 0.002715538693458656 0.001444117561553647 -1.2850261113154103e-05 -3.813770801824168e-05 -1.2850261113154103e-05 -1.0438043475072545e-05" pbc="T T T"
C       -0.01113355       0.01303925       3.75075553      -0.00274265       0.00703318       0.00459962
C       -1.24121519       2.14662702       3.86234739       0.00520246       0.00319055      -0.00204110
C       -2.46568482       4.28745853       3.84209904       0.00355605      -0.00491561      -0.00401033
C       -3.71258510       6.42212511       3.71693364       0.00058361      -0.01004953       0.00354701
C       -4.96901483       8.55462983       3.65271193      -0.00579039      -0.00544315       0.01073979
C        2.44377120       0.06149803       3.76626867      -0.00347538       0.00177812      -0.00750195
C        1.19173108       2.16117288       3.87678041       0.00563873       0.00121748       0.00017134
C       -0.03064100       4.26172914       4.02156102       0.00100451       0.00370784       0.00235982
C       -1.25865398       6.42062671       3.91149012      -0.00279928      -0.00187640      -0.00017087
C       -2.50572235       8.56866191       3.79701099      -0.00285697       0.00374778       0.00316641
C        4.90477832       0.01489272       3.83256812      -0.00010721       0.01417009       0.00291815
C        3.72712079       2.15909561       3.74491399      -0.00083001      -0.00419761      -0.00263129
C        1.14346679       6.45877494       4.27078892       0.00578692      -0.00974890      -0.00625921
C       -0.04063311       8.56071578       3.94508364      -0.00266978       0.00300946      -0.00175899
C        7.38509819       0.00184382       3.89532948      -0.00514492       0.00185155       0.00246846
C        6.17724415       2.12081377       3.77214959      -0.00447637       0.00127490       0.00080954
C        5.00846302       4.20242011       3.51767049       0.00198723       0.00009637       0.00002435
S        3.44896499       6.25436695       3.03447180       0.00295978       0.00248670       0.00088467
C        2.43514135       8.55667277       3.87141958      -0.00279973      -0.00136685       0.01204118
C        9.85889713       0.00098837       3.82566308       0.00434481      -0.00794767      -0.00016506
C        8.63714459       2.13968297       3.83551985      -0.00133721      -0.00017770       0.00233261
C        7.42067515       4.27480092       3.69083292      -0.00447686       0.00532836      -0.00048121
C        6.15886970       6.39123164       3.50669153      -0.00287682       0.00030178       0.01078928
C        4.90308723       8.54017324       3.60760095       0.00330476      -0.00438110      -0.00234984
C       -0.00214346       1.44933486       3.82914557       0.00641953       0.00654984       0.00345375
C       -1.23258338       3.56827958       3.90919155       0.00472942       0.00238248       0.00034475
C       -2.47642713       5.70967064       3.82029845       0.00243939      -0.00913999      -0.00416504
C       -3.72892188       7.84875589       3.71212658      -0.00168008      -0.00899024       0.00795035
C       -4.95008289       9.99961146       3.71842633      -0.00675671       0.00003750      -0.00667388
C        2.45352841       1.51410637       3.79809806       0.00087539      -0.00231333      -0.00439661
O        1.14412316       3.53549476       4.05721174      -0.00277326      -0.00239127      -0.00131077
C       -0.00291165       5.70142570       4.06495142      -0.00181164       0.00230463      -0.00038842
C       -1.27321906       7.84851134       3.88899164      -0.00252772       0.00249006       0.00363722
C       -2.50290000      10.00445228       3.79506482       0.00140047       0.01061690       0.00171964
C        4.91848402       1.44291065       3.78630240      -0.00144279       0.00566507      -0.00984440
O        3.79428116       3.53663639       3.64051838       0.00506233      -0.01130269      -0.01039703
C        1.19313415       7.82375165       4.02745864      -0.00323576      -0.00705132      -0.00240674
C       -0.02775707       9.98224898       3.89199309      -0.00500425       0.00676089      -0.00413720
C        7.39720437       1.42235474       3.84145631      -0.00575183      -0.00066718       0.00033023
C        6.20399478       3.52909922       3.65790220      -0.00118244       0.00103107      -0.00328645
C        4.99585822       5.59584290       3.38015001       0.00051344       0.00276807      -0.00171350
C        3.64065591       7.88473810       3.57903920       0.00112774       0.00443461       0.00061079
C        2.45130330       9.97796649       3.88425109      -0.00297660      -0.00187896       0.00460735
C        9.87170029       1.43267637       3.84796620       0.00403685      -0.00141811      -0.00192154
C        8.64760202       3.56553931       3.79324208      -0.00136996       0.00347639      -0.00688123
C        7.40368914       5.69410415       3.63373907      -0.00589632       0.00172223      -0.00441937
C        6.13664772       7.82795781       3.55909694      -0.00209842      -0.00439411       0.00032429
C        4.91801237       9.97377935       3.73451157       0.00371103      -0.00399983       0.00262593
Cd       2.59424784       5.34133057       5.37949827       0.00611123      -0.00417424       0.00539259
O        3.59180943       4.96717854       7.14296365       0.00574644       0.00819282      -0.00339890
O        2.43372057       5.02650971       8.07044152       0.00713285      -0.01068530      -0.00630464
H        2.78685701       5.68936465       8.69476155       0.00321639       0.01088438       0.01116645
