52
Lattice="12.336457 0.0 0.0 -6.168228499999997 10.683685154694365 0.0 0.0 0.0 15.0" Properties=species:S:1:pos:R:3:forces:R:3 energy=-449.59231111687563 free_energy=-449.59231111687563 stress="-0.007430403998894919 -2.5280612429135486e-05 3.013272645248853e-05 -2.5280612429135486e-05 -0.0013370031696210895 2.534209730588806e-05 3.013272645248853e-05 2.534209730588806e-05 -2.5439593528451896e-05" pbc="T T T"
C        0.03369601       0.03069058       3.71111501      -0.00628160      -0.00402255      -0.00010881
C       -1.21383206       2.14279053       3.64808702      -0.00367751      -0.00008998      -0.00012872
C       -2.44141003       4.28849785       3.53293595       0.00064970      -0.00027950       0.00576765
C       -3.66673656       6.44017042       3.52314819      -0.00019270       0.00474046      -0.00411327
C       -4.88905856       8.59223735       3.62408764      -0.00390598       0.00233682       0.00533571
C        2.50206437       0.05847569       3.75047954      -0.00159639      -0.00783270       0.00392564
C        1.25233719       2.19149291       3.90794630      -0.00469357       0.00072413       0.00731350
C        0.01184296       4.27055226       3.80889387       0.00348234       0.00153650       0.00654441
C       -1.22491406       6.44801874       3.61400677       0.00924460       0.00163960       0.00412387
C       -2.44338753       8.59285855       3.60881396       0.00163257       0.00145748       0.00499703
C        4.97045489       0.03131009       3.71385390       0.00112673      -0.00509977      -0.00490792
C        3.75037711       2.19108912       3.92554971       0.00647586       0.00021499      -0.00310534
C        1.15818907       6.45519030       4.05727567      -0.00226323       0.00296996       0.00505942
C        0.01549922       8.56742171       3.73205902      -0.00277070      -0.00263799       0.00880688
C        7.44040682      -0.00080704       3.69517595      -0.00422845       0.00467035      -0.00585092
C        6.21769410       2.14383111       3.67695156       0.00334685      -0.00373200      -0.00609580
C        4.99209335       4.27066106       3.85649536      -0.00078140      -0.00009640      -0.00471835
C        3.84273549       6.45810725       4.08402072       0.01420150       0.00287182      -0.00359625
C        2.50086478       8.54371066       3.87913445       0.00174711      -0.00037121       0.00666839
C        9.89989557      -0.00152512       3.69140714      -0.00034183       0.00894649       0.00824776
C        8.66982545       2.14042090       3.57789341       0.00098404       0.00363630      -0.00035107
C        7.44465235       4.28898322       3.56054658      -0.00350565      -0.00380792       0.00113865
C        6.22933679       6.44804399       3.65988271      -0.00510986       0.00168377      -0.00347254
C        4.98840164       8.56766480       3.75877585       0.00285122       0.00182957      -0.01022375
C        0.01643539       1.44630236       3.74793878      -0.00808394      -0.00474067      -0.00222865
C       -1.22479238       3.56455723       3.62462183       0.00204089       0.00036153       0.00012489
C       -2.44152006       5.72368660       3.52924114       0.00625685       0.00270324       0.00044746
C       -3.66646410       7.87222121       3.56925828      -0.00047075       0.00760069      -0.00508866
C       -4.89524126      10.01441738       3.69541290      -0.00440762      -0.00241188      -0.00667181
C        2.50134945       1.47015017       3.89419306       0.00009637      -0.00463268      -0.00046650
C        1.15692348       3.55848482       4.07371827       0.01267485       0.00870934       0.00169820
C        0.01195717       5.74218229       3.80091827       0.00312073      -0.00089396       0.01602168
C       -1.21426139       7.87011527       3.63363958       0.00174259       0.00122152       0.00106396
C       -2.43703497      10.01486043       3.69018018       0.00120649      -0.00354157       0.00179604
C        4.98738397       1.44658118       3.76826525       0.00713934      -0.00718680      -0.00452701
C        3.84330015       3.55688429       4.09831899      -0.00149402       0.00528456       0.01106985
C        1.25189280       7.82206623       3.88956866      -0.00199830      -0.00022289       0.00886803
C        0.03247133       9.98331178       3.70583812      -0.00210324      -0.00479006      -0.00210913
C        7.44661438       1.42122859       3.63201523       0.00347735       0.00397807      -0.00399415
C        6.22898263       3.56556189       3.66706065      -0.00349816      -0.00325266      -0.00613322
C        4.99224317       5.74311871       3.85163497       0.00341612      -0.00325062      -0.01220217
C        3.75025693       7.82329989       3.91062075       0.00774995      -0.00120520       0.00322731
C        2.50179879       9.95550243       3.74584779      -0.00143947       0.00386485      -0.00203588
C        9.89338951       1.42028850       3.61936492      -0.00230826       0.00740490      -0.00778310
C        8.66963591       3.57232854       3.52911184      -0.00114471      -0.00142861      -0.00658283
C        7.44486311       5.72396109       3.55813892      -0.00701224      -0.00012871      -0.00808019
C        6.21835703       7.86984782       3.66730496      -0.00163588       0.00165640      -0.00270444
C        4.97160548       9.98280758       3.71185832      -0.00456513       0.00122245      -0.00146009
Cd       2.48874778       5.01033500       5.12791548       0.00190104      -0.00315297      -0.00372223
O        2.72495746       5.24484993       7.31734797      -0.00563884      -0.01455713       0.00640453
O        1.60608306       4.55676523       7.95963373      -0.00099024      -0.00991030      -0.00585716
H        2.12068745       3.89328276       8.45362406      -0.01042539       0.01001093       0.00966912
