52
Lattice="12.336457 0.0 0.0 -6.168228499999997 10.683685154694365 0.0 0.0 0.0 15.0" Properties=species:S:1:pos:R:3:forces:R:3 energy=-441.7715356699521 free_energy=-441.7715356699521 stress="-0.0037682219738307578 -9.065247490012684e-05 -3.423434832539834e-05 -9.065247490012684e-05 -0.006143417617832347 -5.8154457384314924e-05 -3.423434832539834e-05 -5.8154457384314924e-05 -1.624852191027462e-05" pbc="T T T"
C        0.03273200      -0.05425006       3.46092524      -0.00065754       0.00433512       0.00788423
C       -1.20142761       2.09336324       3.47434445       0.00213259       0.00214995      -0.00724999
C       -2.43744197       4.22915680       3.62175962      -0.00226899       0.00703401      -0.01396465
C       -3.66801607       6.36605042       3.60136625       0.00434887      -0.00673309      -0.00298390
C       -4.89586141       8.49690829       3.52506935       0.00646848      -0.00768899      -0.00510778
C        2.50716541      -0.09404875       3.50089280      -0.00155460       0.00653653      -0.00525358
C        1.28902744       2.02393731       3.30520054       0.00447972       0.00344296       0.00157290
C        0.01249110       4.28043619       3.55429561      -0.00088263      -0.00736222       0.00039441
C       -1.23000591       6.38363305       3.72521016      -0.00151111       0.00635877       0.00111721
C       -2.43003433       8.49617431       3.61251276      -0.00357908      -0.00092308       0.00726319
C        4.97528091      -0.05961503       3.73446354       0.00277907      -0.00377576       0.00150466
C        3.70226927       2.00120936       3.86162720      -0.00529764       0.00040317       0.00563430
C        1.14194100       6.40186944       4.25065597      -0.00178944       0.00092470      -0.01393968
C        0.03333002       8.50146002       3.83802222       0.00559346      -0.00242285       0.00998028
C        7.44217677      -0.04814598       3.82144402       0.00237799      -0.00879727      -0.00138661
C        6.19536714       2.09824245       3.87102920      -0.00235538       0.00018699      -0.00623023
C        5.00786142       4.31372539       4.07642244      -0.00757840      -0.00542336      -0.00211648
N        3.91514490       6.48107521       4.38544493      -0.00575410       0.00165317      -0.01143402
C        2.52581095       8.49428169       4.00966388      -0.00092186       0.00773196      -0.00281533
C        9.90488097      -0.04600421       3.69030989      -0.00388735      -0.00742968      -0.00392953
C        8.66790643       2.09274546       3.70198823       0.00230074      -0.00809208      -0.00299473
C        7.43309098       4.23475964       3.74427199       0.00107117       0.00607336       0.00346088
C        6.22984803       6.39774322       3.74278523      -0.00034657      -0.00060025      -0.00398500
C        4.98873903       8.51539618       3.73937565      -0.00565145       0.00001097      -0.00255982
C        0.03268826       1.37358751       3.37943848       0.00555291       0.00858443       0.00163137
C       -1.18912646       3.52568024       3.53556175      -0.00347985       0.00191244      -0.00507752
C       -2.44239875       5.65500043       3.63651087       0.00253638       0.00542765      -0.00065053
C       -3.66220508       7.78564724       3.55909349       0.00386733      -0.01250019       0.00075952
C       -4.90401204       9.90900430       3.46419926      -0.00017760      -0.00093772       0.00178479
C        2.50165335       1.30876295       3.52496499      -0.00162471       0.00548465       0.00702336
P        1.56623614       3.71677457       2.90572558      -0.00549028      -0.00972736      -0.00635808
C        0.00947838       5.69211594       3.83645937      -0.00646234      -0.00481204       0.00630183
C       -1.20236183       7.79685119       3.72940394       0.00085595       0.00440717      -0.00399993
C       -2.42113111       9.90736732       3.61071048      -0.00240800       0.00183777       0.00127416
C        4.96867406       1.36385865       3.84091824      -0.00482621       0.00072407      -0.00040012
P        3.43738390       3.62008769       4.46828280      -0.00117992      -0.00139076       0.00126690
C        1.26701629       7.76509085       4.03885081       0.00618313       0.00482148       0.00858054
C        0.04121292       9.91848806       3.79716740       0.00473454      -0.00624392       0.01278284
C        7.43153591       1.38272054       3.79795509      -0.00095839      -0.00916855      -0.00330317
C        6.18824673       3.53957397       3.89528897      -0.00118488       0.00193402       0.00333641
C        5.01722145       5.74694820       4.04830151      -0.00169958      -0.00223948       0.00292310
C        3.79336066       7.79580340       4.04758788      -0.00710683       0.00711362       0.00130600
C        2.51266793       9.90807529       3.84273357      -0.00069683       0.00050059      -0.00401361
C        9.90427203       1.38176308       3.61076461       0.00468242      -0.00977325       0.00166001
C        8.66639017       3.51925774       3.67811652       0.00042360       0.00110541      -0.00232052
C        7.43964242       5.65673071       3.66890140       0.00433188       0.00483995       0.01032507
C        6.21307942       7.80374774       3.64378403      -0.00017270       0.00056430      -0.00122709
C        4.97050611       9.92883574       3.61408808      -0.00333848      -0.00053649       0.00358712
Cd       2.33428650       5.50182689       5.82710057       0.00589791      -0.00324546       0.00217772
O        2.00291394       4.99298867       7.82184223       0.00392240       0.00465441       0.00785942
O        1.70569744       6.27781506       8.49832636       0.00861924       0.01233087      -0.00007448
H        2.31862658       6.17345452       9.25092086       0.00168298       0.00673936      -0.00001585
