52
Lattice="12.336457 0.0 0.0 -6.168228499999997 10.683685154694365 0.0 0.0 0.0 15.0" Properties=species:S:1:pos:R:3:forces:R:3 energy=-440.3453660536644 free_energy=-440.3453660536644 stress="-0.0018619736742922477 0.0044631071910765825 1.993375072784357e-06 0.0044631071910765825 0.003233764131251602 -1.5936932482479864e-05 1.993375072784357e-06 -1.5936932482479864e-05 -1.6388950967668266e-05" pbc="T T T"
C        0.11409614       0.03967692       3.79880443       0.00315086      -0.00309143      -0.00197585
C       -1.10066004       2.18787071       3.57862460      -0.00301034      -0.00075096      -0.00008303
C       -2.36962878       4.32101310       3.63633835       0.00553796      -0.00012959       0.00078700
C       -3.61917934       6.45058158       3.81383262      -0.00156386      -0.00076815       0.00748560
C       -4.83797331       8.58733474       3.90788141       0.00725026      -0.00002346       0.00597922
C        2.58311640       0.05962902       3.91643966       0.00114063      -0.00450384       0.00525378
C        1.39023296       2.14530190       3.54876120      -0.00023642       0.00377724       0.00239243
C        0.02272712       4.41820590       3.26425970       0.00045632       0.00365839      -0.00210998
C       -1.18842753       6.48935367       3.56691924      -0.00089479       0.00418735       0.00276875
C       -2.37772351       8.59538905       3.83151573       0.00503924       0.00534506       0.00585919
C        5.04904938       0.02996582       3.89628826      -0.00074157       0.00348868       0.00570395
C        3.87592022       2.15298701       4.01814653       0.00115432      -0.00212755      -0.01548852
O        1.21382729       6.50161449       3.46248630       0.00230048      -0.00345755      -0.00940408
C        0.09021258       8.57992863       3.74175914       0.00097783       0.00009363       0.01045293
C        7.52766026       0.00644671       3.82624482      -0.00219029      -0.00629072       0.00411244
C        6.31407084       2.15260702       3.95065885       0.00424326      -0.00247581       0.00587692
C        5.10062517       4.25549553       4.21469966      -0.00325354       0.00645044       0.00318522
C        3.87789228       6.44297659       4.40557819      -0.01166607      -0.00227973       0.00034846
C        2.54796534       8.51639347       3.87103783      -0.00392207      -0.00534019       0.00401991
C        9.98457800       0.01439531       3.79137867       0.00023311      -0.00394001      -0.00609951
C        8.76786377       2.16326083       3.77077619      -0.00137074       0.00110647       0.00755780
C        7.51995910       4.30099709       3.90327111      -0.00306057      -0.00130246      -0.00021508
C        6.27155577       6.42748137       4.01999297       0.00220870       0.00775101       0.01098995
C        5.03248692       8.56161614       3.95701864      -0.00007465      -0.00623052       0.00846399
C        0.13801182       1.47703523       3.63078116      -0.00151964       0.00067809      -0.00233070
C       -1.12786134       3.62312823       3.47945056       0.00338102       0.00036616      -0.00324957
C       -2.39801190       5.74172879       3.66929540      -0.00178740       0.00129321      -0.01556744
C       -3.61473902       7.87683399       3.85668215       0.00598695       0.00172652      -0.00691345
C       -4.82679762      10.01930802       3.88199369       0.00326628      -0.00353900       0.00530279
C        2.61597312       1.49091085       3.87703865      -0.00059738      -0.00664156      -0.01039453
S        1.55683393       3.74093069       2.90208086      -0.00128788       0.00126381       0.00514098
C        0.00128950       5.81878247       3.36298753      -0.00261516       0.00207745       0.00181055
C       -1.16261404       7.89954864       3.71286383       0.00249333       0.00510294      -0.00218927
C       -2.36154420      10.02276862       3.90672579       0.00240145       0.00281590      -0.00362672
C        5.06933004       1.45701524       3.96342323       0.00366646       0.00073036       0.00270109
O        3.94883368       3.49812288       4.34602571       0.00249813      -0.00450885       0.00362488
C        1.29298874       7.86872044       3.70667661      -0.00136940      -0.00474623       0.00094474
C        0.11760956       9.99915342       3.83312659      -0.00503262       0.00095936      -0.01015653
C        7.53361073       1.44424668       3.85123143       0.00124509      -0.00566837      -0.00659023
C        6.29968930       3.57174186       4.02326463      -0.00406498      -0.00013450       0.00272065
C        5.03361332       5.69747828       4.22088706      -0.00296040       0.01082796      -0.00368115
C        3.79983288       7.79545338       4.07501599      -0.00520170      -0.00533592      -0.00445296
C        2.57918801       9.95445525       3.82194868      -0.00087774      -0.00549043      -0.00429027
C       10.00688242       1.45520095       3.70802654      -0.00458341      -0.00121485      -0.01170823
C        8.74915172       3.59185979       3.76923881       0.00213261       0.00212930       0.00352280
C        7.49491925       5.72442224       3.91239561      -0.00391067      -0.00021429      -0.00611077
C        6.26594104       7.85714448       3.96293133       0.00547562       0.00354929      -0.00304238
C        5.04489625       9.99109746       3.84025489       0.00199330      -0.00666647       0.00041538
Cd       2.44622139       5.28397528       5.45027051      -0.00253239       0.01125701       0.00641671
O        0.67458087       4.87396522       6.43823532      -0.00024386       0.00715653       0.00247058
O        1.18938962       5.11570460       7.80962503       0.00817792      -0.00586884       0.00828099
H        0.96809820       4.25076216       8.20858287      -0.00584158       0.00494910      -0.00490942
