51
Lattice="12.336457 0.0 0.0 -6.168228499999997 10.683685154694365 0.0 0.0 0.0 15.0" Properties=species:S:1:pos:R:3:initial_magmoms:R:1:forces:R:3 energy=-436.7265836775755 free_energy=-436.7265836775755 stress="-0.003213231790185204 0.0005667982227726554 -2.2085843587916057e-05 0.0005667982227726554 -0.003458118876191339 -4.3591393839637785e-05 -2.2085843587916057e-05 -4.3591393839637785e-05 3.52789899905686e-05" pbc="T T T"
C       -0.04419940       0.01399473       3.81838873       0.00000000      -0.00612712       0.00100100       0.00320374
C       -1.27963903       2.14440902       3.86932994       0.00000000       0.00890930      -0.00113666       0.00147445
C       -2.50286716       4.28225199       3.79826005       0.00000000       0.00563086       0.00459997      -0.00328541
C       -3.73663267       6.41894127       3.71122124       0.00000000       0.00678532      -0.01156864       0.00067153
C       -4.98487714       8.55365942       3.71756815       0.00000000       0.00030255       0.00479344      -0.01181151
C        2.42229083       0.00552311       3.81919289       0.00000000      -0.00196029       0.00011625      -0.00085032
C        1.20094196       2.17996086       3.88254208       0.00000000       0.00566853      -0.00810472       0.00966216
C       -0.02739927       4.26067708       3.97752808       0.00000000      -0.01101415       0.00347998       0.00505153
C       -1.28009366       6.42597144       3.90981753       0.00000000      -0.01257539       0.00884241      -0.00237933
C       -2.51946866       8.55466187       3.86701961       0.00000000      -0.00560388       0.00548656      -0.00148744
C        4.89173739       0.00305836       3.78508056       0.00000000      -0.01025330       0.01348388       0.00174635
C        3.64770154       2.04081936       3.33156934       0.00000000      -0.00340432       0.00707163       0.00336819
C        1.17182194       6.43640692       4.02013421       0.00000000       0.00655977       0.00360783      -0.00228828
C       -0.05241246       8.55910313       3.95530323       0.00000000      -0.00123664      -0.00582703      -0.00842595
C        7.35241826       0.01812182       3.84392456       0.00000000      -0.00821354      -0.01288527      -0.00812832
C        6.13072086       2.13303982       3.48669723       0.00000000       0.00440226      -0.00650024       0.00113268
C        5.03483746       4.27753987       2.91948095       0.00000000       0.00000290      -0.00700065       0.01014238
P        3.39073864       6.36924678       2.66530860       0.00000000      -0.01597005      -0.00174043       0.00492466
C        2.41931605       8.58027940       3.80068648       0.00000000       0.00702268       0.00327840      -0.00354524
C        9.82629865       0.01545799       3.82778035       0.00000000      -0.00151763      -0.00307850      -0.01498230
C        8.59203078       2.14804060       3.74806480       0.00000000       0.01224760       0.00819939       0.00273884
C        7.38946317       4.28005401       3.50569238       0.00000000      -0.00015070      -0.00061526       0.01419507
C        6.15894043       6.43017702       3.34720586       0.00000000       0.01063211       0.00772428      -0.00587687
C        4.89135740       8.56691094       3.57713828       0.00000000      -0.00650060       0.00158751       0.00716729
C       -0.04385465       1.43837563       3.87672473       0.00000000       0.00490639       0.00022503      -0.00536427
C       -1.28156394       3.56354867       3.88060495       0.00000000      -0.00229559      -0.00222975      -0.00391505
C       -2.50410687       5.71058661       3.81032925       0.00000000       0.00108397      -0.00629072       0.00099057
C       -3.74721452       7.84301035       3.77140466       0.00000000       0.00002969      -0.00572799      -0.00131758
C       -4.98264577       9.97598644       3.81185588       0.00000000      -0.00735017       0.00701233      -0.00728250
C        2.43005736       1.42369121       3.71848030       0.00000000       0.00174253      -0.00872131      -0.00866404
C        1.16012455       3.55042532       4.08758822       0.00000000      -0.00105486      -0.00923409      -0.00981334
C       -0.02609165       5.72264186       3.97373682       0.00000000      -0.01259990       0.01285016       0.00806000
C       -1.28383543       7.84676157       3.92595803       0.00000000      -0.00863073       0.00458369      -0.00159726
C       -2.51222865       9.97717312       3.83623927       0.00000000      -0.00342714       0.00744434      -0.00099831
C        4.89955538       1.41270224       3.53866317       0.00000000      -0.00339147       0.01016240       0.00104514
S        3.58597218       3.47760885       2.37917018       0.00000000      -0.00061080      -0.01926750       0.00078159
C        1.18876778       7.83385749       3.94116352       0.00000000       0.00983809       0.00088802       0.00688161
C       -0.04485912       9.97970867       3.87905019       0.00000000      -0.01491259      -0.00512838      -0.00309690
C        7.34981011       1.43793626       3.70782688       0.00000000       0.00827506      -0.00587255       0.00261364
C        6.17290591       3.54458039       3.29515447       0.00000000       0.00663386      -0.00828336      -0.00856718
C        4.99291270       5.68948277       2.99323054       0.00000000       0.00609322      -0.00205039       0.00496310
C        3.63048098       7.90918004       3.47101885       0.00000000       0.00029881      -0.00397103      -0.00234707
C        2.41986130       9.99455763       3.86073169       0.00000000      -0.00139214      -0.00336118       0.00249219
C        9.81981178       1.43492014       3.83166412       0.00000000       0.01030862      -0.00241050       0.00045989
C        8.60488044       3.57025645       3.69360912       0.00000000       0.00730459       0.01165570      -0.00613829
C        7.38226842       5.70799203       3.51939866       0.00000000       0.00686717      -0.00377400       0.01314933
C        6.12812664       7.84922306       3.53179371       0.00000000      -0.00238584       0.00766360       0.01023074
C        4.89103261       9.98497292       3.76052393       0.00000000      -0.00457551      -0.00392146       0.01180364
Cd       2.58545418       4.98916079       4.95575290       0.00000000       0.00574549      -0.00575490       0.00411557
O        3.37619477       4.73846281       7.71365237       1.00000000       0.00897626       0.00562734      -0.01467264
O        4.01082164       4.73332334       6.57186560       1.00000000       0.00088670       0.01307137       0.00376952
