51
Lattice="12.336457 0.0 0.0 -6.168228499999997 10.683685154694365 0.0 0.0 0.0 15.0" Properties=species:S:1:pos:R:3:initial_magmoms:R:1:forces:R:3 energy=-434.9359484802069 free_energy=-434.9359484802069 stress="-0.0004057669475397475 -0.004361148568685818 3.427262096287371e-05 -0.004361148568685818 -0.003879958470949603 3.9663171777406596e-06 3.427262096287371e-05 3.9663171777406596e-06 -1.6688741167135776e-05" pbc="T T T"
C       -0.00606754       0.03125196       3.91874712       0.00000000      -0.00019930       0.00357218       0.00324855
C       -1.27300961       2.15447655       3.94992029       0.00000000      -0.00594299       0.00505210      -0.00333386
C       -2.50001104       4.30205514       3.84367054       0.00000000       0.01006722       0.00818682       0.00401428
C       -3.70402827       6.44140504       3.76904765       0.00000000       0.00363695      -0.00288272       0.01681004
C       -4.92623589       8.58159731       3.85294979       0.00000000      -0.00552411      -0.00739143      -0.00291985
C        2.45252821       0.04426436       3.80944120       0.00000000      -0.00557446      -0.00091927      -0.00423374
C        1.17222112       2.15102679       3.87067088       0.00000000      -0.01124185      -0.00544050       0.00492482
C       -0.06291624       4.23143625       3.90841179       0.00000000       0.00417002      -0.00084283      -0.00306854
C       -1.20880914       6.40083796       3.71923901       0.00000000       0.00647810       0.00567872       0.01243816
C       -2.45390377       8.56608912       3.74963819       0.00000000      -0.00165113      -0.00237584       0.00156605
C        4.91933164       0.02853221       3.64781232       0.00000000       0.00427691       0.00154286       0.00170391
C        3.64738290       2.13752176       3.38798435       0.00000000       0.00710734      -0.00167910      -0.00635109
P        1.60871662       6.22786382       3.14894218       0.00000000      -0.00184102      -0.00298192       0.00613565
C        0.01062308       8.56706591       3.62600555       0.00000000      -0.00106527      -0.00232479       0.00377443
C        7.37604029       0.05337875       3.71302908       0.00000000      -0.00400576      -0.00483157       0.00143056
C        6.13143346       2.18539450       3.52295796       0.00000000       0.00518796       0.00339114       0.01106635
C        4.94598308       4.35978488       3.30650475       0.00000000       0.00249990      -0.00103065      -0.00581645
C        3.65812618       6.48352404       3.79988553       0.00000000      -0.00588119      -0.00969519      -0.00713332
C        2.47677713       8.63337229       3.73046637       0.00000000      -0.00092061       0.00369233       0.00506910
C        9.85266949       0.04875056       3.87702699       0.00000000       0.00310076      -0.00010767       0.00402497
C        8.59617206       2.17909903       3.79121396       0.00000000       0.00006125      -0.00642938      -0.00044376
C        7.37548271       4.31927096       3.66478097       0.00000000       0.00339580      -0.00025765      -0.00024479
C        6.15392664       6.46170742       3.70535911       0.00000000       0.00274893       0.00357663       0.00547712
C        4.94366365       8.60048959       3.85760672       0.00000000      -0.00533195       0.00707913       0.00194233
C       -0.02673748       1.45348973       3.93481511       0.00000000      -0.01271620       0.00134479      -0.00344404
C       -1.27928142       3.56406729       3.93779785       0.00000000       0.00550285       0.00502989      -0.00949986
C       -2.46769255       5.71919975       3.78238249       0.00000000       0.00875097       0.00700128      -0.00057684
C       -3.69339999       7.86473968       3.79736339       0.00000000      -0.00258197      -0.00561310      -0.00574553
C       -4.93624017      10.00858622       3.88463939       0.00000000      -0.00515002      -0.00615022      -0.00225203
C        2.42233500       1.47330681       3.71611316       0.00000000      -0.00517587       0.00318748      -0.01372285
O        1.12413324       3.51633804       4.06400198       0.00000000      -0.00903731      -0.00836517       0.00422928
C        0.00345821       5.61867419       3.70955237       0.00000000       0.00210549       0.00211105       0.00775958
C       -1.21683910       7.83999459       3.68017912       0.00000000      -0.00038253       0.00059179      -0.01377981
C       -2.47532407       9.99928945       3.73848643       0.00000000      -0.00015565       0.00072520      -0.00933852
C        4.89836918       1.46114091       3.50862230       0.00000000       0.00981934       0.00318900       0.01046980
P        3.57838617       3.64019741       2.49766662       0.00000000       0.00092078       0.00278858      -0.00262940
C        1.27696867       7.90788546       3.55831251       0.00000000       0.00009877       0.00256113      -0.00471359
C       -0.01221251      10.00346487       3.66177080       0.00000000      -0.00164358      -0.00475390      -0.00528016
C        7.36239790       1.47622760       3.68277719       0.00000000      -0.00137301      -0.00572232      -0.00413892
C        6.14409804       3.61202130       3.49050940       0.00000000       0.00257575       0.00165621      -0.00823975
C        4.90247050       5.77077156       3.56302371       0.00000000       0.00814820      -0.00161298      -0.00185313
C        3.70735409       7.90545844       3.79355063       0.00000000      -0.00274984      -0.00247775       0.00562414
C        2.45047601      10.04386156       3.79305844       0.00000000       0.00004111       0.00356870       0.00006248
C        9.83776618       1.46561150       3.89112005       0.00000000       0.00064029      -0.00336688      -0.00932245
C        8.59759523       3.60124087       3.77670454       0.00000000       0.00778786      -0.00083873      -0.00125846
C        7.38760515       5.74294777       3.71379082       0.00000000       0.00343958       0.00071387       0.00107967
C        6.17567185       7.87916094       3.83044156       0.00000000      -0.00816836       0.00432495      -0.00111619
C        4.92668136      10.01694925       3.90267388       0.00000000       0.00327090       0.00682353       0.00279422
Cd       2.55131292       5.54273784       5.50331148       0.00000000       0.01088793       0.00551935       0.01266003
O        3.15986072       4.91475513       7.90213727       1.00000000      -0.01086505       0.00149156       0.00270310
O        2.68927062       4.02698062       7.03662303       1.00000000      -0.00754193      -0.00630872      -0.00055166
