51
Lattice="12.336457 0.0 0.0 -6.168228499999997 10.683685154694365 0.0 0.0 0.0 15.0" Properties=species:S:1:pos:R:3:initial_magmoms:R:1:forces:R:3 energy=-439.1423747251322 free_energy=-439.1423747251322 stress="-0.0029369993882091393 -0.003211345615684821 -4.884108014611831e-06 -0.003211345615684821 0.0029951236555201236 -1.1327086717284236e-05 -4.884108014611831e-06 -1.1327086717284236e-05 1.7599926993533538e-05" pbc="T T T"
C       -0.05502732      -0.02705338       3.81414630       0.00000000      -0.00033722       0.00276581      -0.00036778
C       -1.31021666       2.08998871       3.83644870       0.00000000      -0.00191143       0.00251122       0.00161429
C       -2.52612428       4.23556465       3.75934945       0.00000000      -0.00028890       0.00306405      -0.00128187
C       -3.73088463       6.38543858       3.68718413       0.00000000      -0.00405064      -0.00454091       0.00040234
C       -4.97110016       8.53169089       3.73175226       0.00000000       0.00012159      -0.00105517      -0.00056650
C        2.41520771      -0.00731706       3.80749121       0.00000000      -0.00180596       0.00109691      -0.00003123
C        1.13902441       2.13342931       3.91710821       0.00000000       0.00086855       0.00101919       0.00245799
C       -0.07716416       4.20702365       4.01395941       0.00000000      -0.00156962      -0.00400339       0.00299171
C       -1.28159350       6.37526114       3.85726741       0.00000000       0.00056262       0.00244798       0.00071436
C       -2.50597126       8.52473217       3.78418817       0.00000000      -0.00074534      -0.00023795      -0.00027643
C        4.88799577      -0.02824340       3.67909554       0.00000000       0.00096842       0.00146015      -0.00102717
C        3.61616866       2.08624232       3.43693889       0.00000000       0.00059239      -0.00095219       0.00068416
N        1.10908149       6.37789664       4.13538021       0.00000000      -0.00236768      -0.00144436       0.00113003
C       -0.03605390       8.48909656       3.81386236       0.00000000       0.00428937      -0.00019701      -0.00131767
C        7.35449717      -0.05774898       3.68355312       0.00000000      -0.00252502      -0.00456627       0.00015451
C        6.11197345       2.11203470       3.46719211       0.00000000       0.00271433      -0.00213932      -0.00025951
C        4.94260025       4.33035965       3.17278123       0.00000000       0.00293418       0.00056283       0.00379840
O        3.77836795       6.43529281       3.43267692       0.00000000       0.00317651       0.00201432      -0.00159117
C        2.43712529       8.43451352       3.76599297       0.00000000      -0.00055228       0.00415745      -0.00025801
C        9.80421114      -0.06274515       3.74601329       0.00000000       0.00129571       0.00023895      -0.00270244
C        8.57089235       2.09332692       3.66115350       0.00000000      -0.00364823      -0.00221224       0.00102109
C        7.36248655       4.24980420       3.51665796       0.00000000       0.00107937      -0.00034749       0.00089696
C        6.17118059       6.42159172       3.46000978       0.00000000       0.00198421       0.00314958       0.00110454
C        4.89918482       8.51520378       3.67379450       0.00000000      -0.00135103      -0.00202251       0.00113686
C       -0.07504008       1.39551369       3.86691883       0.00000000      -0.00030781       0.00444669      -0.00088834
C       -1.30572177       3.51488707       3.86463699       0.00000000      -0.00233248       0.00084838       0.00241469
C       -2.50886625       5.66086884       3.76777085       0.00000000      -0.00045261       0.00232080      -0.00142917
C       -3.73439074       7.81287554       3.73869836       0.00000000      -0.00150904      -0.00468403       0.00104515
C       -4.98000433       9.95693128       3.81042739       0.00000000      -0.00139163       0.00033238       0.00008374
C        2.39683123       1.41714371       3.75521703       0.00000000      -0.00112462       0.00036967      -0.00184654
N        1.07682774       3.48536623       4.13312053       0.00000000       0.00093209       0.00013506      -0.00012697
C       -0.05253797       5.67832273       4.00681682       0.00000000      -0.00261594      -0.00337274       0.00483097
C       -1.27479780       7.79882684       3.81991495       0.00000000       0.00314431       0.00282689       0.00118734
C       -2.51273984       9.95403988       3.76513769       0.00000000      -0.00051534       0.00193140      -0.00267568
C        4.87613688       1.39883982       3.51829904       0.00000000       0.00238442       0.00070520      -0.00438003
P        3.44096730       3.62939352       2.61541589       0.00000000      -0.00033562      -0.00415712       0.00221211
C        1.17588414       7.72671163       3.90348661       0.00000000       0.00305686      -0.00117321      -0.00178601
C       -0.04412041       9.92242223       3.71858591       0.00000000      -0.00083354      -0.00214925       0.00391305
C        7.34013434       1.38159424       3.59851944       0.00000000      -0.00189830      -0.00652916      -0.00202537
C        6.12809476       3.54892250       3.36790389       0.00000000       0.00373118      -0.00089023       0.00013282
C        4.97999471       5.74329361       3.27538554       0.00000000       0.00361929       0.00201811       0.00025748
C        3.69954363       7.80530454       3.64315702       0.00000000      -0.00184790       0.00056715       0.00426885
C        2.41515962       9.87797439       3.73102662       0.00000000      -0.00044579       0.00255257      -0.00085482
C        9.79788321       1.37366390       3.75274484       0.00000000      -0.00166180       0.00065091      -0.00209095
C        8.57962108       3.52367440       3.64490477       0.00000000       0.00028331       0.00002269       0.00103094
C        7.38606239       5.67534175       3.54807599       0.00000000      -0.00331631      -0.00149128      -0.00110818
C        6.14964772       7.82889268       3.62198904       0.00000000       0.00024972       0.00119208       0.00030866
C        4.87865014       9.93611546       3.75838917       0.00000000       0.00087662      -0.00182665      -0.00027664
Cd       2.63425991       4.84223360       4.95631585       0.00000000      -0.00254519      -0.00040773       0.00504450
O        3.59513072       5.35953136       7.61807994       1.00000000       0.00444680       0.00438933       0.00218598
O        4.03128837       5.67994766       6.42774537       1.00000000       0.00097542       0.00060245      -0.01785500
