52
Lattice="12.336457 0.0 0.0 -6.168228499999997 10.683685154694365 0.0 0.0 0.0 15.0" Properties=species:S:1:pos:R:3:forces:R:3 energy=-443.1869599876022 free_energy=-443.1869599876022 stress="-0.004507180927316427 0.002826688154635966 8.489993727073638e-06 0.002826688154635966 0.002874120315624626 2.2392011962819626e-05 8.489993727073638e-06 2.2392011962819626e-05 -4.172550579516217e-05" pbc="T T T"
C        0.00296241       0.00478119       3.77766841      -0.01248218      -0.00508600      -0.00925026
C       -1.22814188       2.13117108       3.85112337      -0.00114055      -0.00615743      -0.00782929
C       -2.45535621       4.26841462       3.77916847      -0.00414290      -0.00631963      -0.00198031
C       -3.70192977       6.40614743       3.67862790       0.00331985       0.00398528       0.00766631
C       -4.94227985       8.55290548       3.65288968       0.00251341      -0.00031484       0.00547325
C        2.46228529       0.05018547       3.80789444      -0.00525508      -0.00459121      -0.00224989
C        1.21867618       2.19775438       3.98246368       0.00160299       0.00892360      -0.00256044
C       -0.01339884       4.27096248       4.03719760      -0.00268692       0.00104343      -0.00111548
C       -1.25192288       6.41109351       3.89297389       0.00726108      -0.00543910      -0.00449883
C       -2.47914994       8.55563434       3.79563244       0.00434822       0.00502719      -0.01305664
C        4.93124004       0.00220582       3.78596324       0.00796520       0.00153413      -0.00076371
C        3.73516839       2.17697213       3.75652775       0.00502718       0.00380280       0.00413669
O        1.10331094       6.45563210       4.09172123       0.00142607      -0.00295538       0.00933255
C       -0.01771542       8.53299240       3.85607826      -0.01003865      -0.00141690       0.00054229
C        7.40875689      -0.03355281       3.80390897      -0.00019142       0.01091911      -0.00765389
C        6.20153538       2.10151249       3.65139766      -0.00479296      -0.00176068       0.00600700
C        5.00338113       4.18667556       3.43574226       0.00784081       0.00461348      -0.00460450
P        3.53314171       6.28606265       2.63618147       0.00841997      -0.00411133      -0.00518742
C        2.43602246       8.49507558       3.73506698      -0.00490306      -0.00227888      -0.00302529
C        9.86980145      -0.03034534       3.77922877      -0.00248862      -0.00139848       0.00090156
C        8.65374785       2.11354581       3.74307405      -0.00214464      -0.00181885      -0.00416111
C        7.44038774       4.25181967       3.57392493      -0.00855471       0.00005494       0.00184507
C        6.18920530       6.39121925       3.43079088      -0.00422189       0.00464088      -0.00713391
C        4.92530630       8.52881306       3.54634675       0.01137233      -0.00386713       0.00992303
C        0.00335827       1.43394378       3.87235724      -0.00102125      -0.00266156      -0.01245965
C       -1.23389066       3.55875794       3.87826999      -0.00193759      -0.00454927      -0.00157494
C       -2.47397878       5.68946037       3.78397457       0.00623238      -0.00397026      -0.00191853
C       -3.71237764       7.83832963       3.70912138       0.00671588       0.00576273      -0.00328024
C       -4.93349210       9.98815917       3.75110726      -0.01014759      -0.00538149      -0.00016017
C        2.47205135       1.48425963       3.86837905       0.00065013      -0.00066733       0.01168557
N        1.14235319       3.54587189       4.19657167       0.00346942       0.01225866       0.00667657
C       -0.06529815       5.70547783       4.02388885       0.00502207      -0.00343753       0.00401570
C       -1.25986214       7.84043636       3.85705288      -0.00344830      -0.00455582      -0.00744133
C       -2.47936352       9.99305571       3.79770052       0.00528051       0.00436242      -0.00113406
C        4.95094304       1.42133695       3.71715288       0.00104620      -0.00107875       0.00488569
N        3.82834575       3.54033193       3.68304000       0.01009025       0.00688601       0.00165490
C        1.18014224       7.82806093       3.85663384      -0.00964600      -0.00253682       0.01328905
C       -0.00154168       9.96181332       3.81363658       0.00407069       0.00122717      -0.00429649
C        7.42416486       1.39249690       3.73450856      -0.00315343       0.00696093       0.00053924
C        6.23066611       3.50904403       3.52093883      -0.00356750      -0.00306232       0.00463957
C        5.00215222       5.62421682       3.27333494      -0.00020990       0.00152756      -0.00432259
C        3.67668807       7.83512856       3.44143230       0.00889272       0.00367009      -0.00617855
C        2.46187245       9.92593015       3.80059039      -0.00354486       0.00444292      -0.01175096
C        9.87985583       1.40161548       3.79894114      -0.00229790      -0.00199102       0.00068642
C        8.65921907       3.54065253       3.69344068      -0.00872590      -0.00371442       0.00613220
C        7.42261047       5.68216307       3.55532482      -0.00748210       0.00555629       0.00757635
C        6.16896023       7.82619138       3.51366348       0.00773479      -0.00004182      -0.00119101
C        4.93626593       9.95630980       3.71301351      -0.00638024      -0.00553968       0.00258875
Cd       2.68376211       4.86933936       5.14106763       0.01045368       0.00475396       0.01115768
O        3.14737614       5.71719182       7.01262876      -0.00779931       0.00584157      -0.01038799
O        2.44961384       4.82737499       7.96632969       0.00246721      -0.01564760       0.00620541
H        3.21192805       4.61353968       8.53745594      -0.00081757      -0.00144364       0.01360662
