51
Lattice="12.336457 0.0 0.0 -6.168228499999997 10.683685154694365 0.0 0.0 0.0 15.0" Properties=species:S:1:pos:R:3:initial_magmoms:R:1:forces:R:3 energy=-438.9608509848523 free_energy=-438.9608509848523 stress="-0.0048831926300177304 0.0018986585604549115 3.0801337829844067e-07 0.0018986585604549115 0.001805254858684323 -1.1343520999362685e-05 3.0801337829844067e-07 -1.1343520999362685e-05 -9.26690896742644e-06" pbc="T T T"
C       -0.03835346      -0.01201199       3.64773717       0.00000000      -0.00156564      -0.00113368      -0.00107731
C       -1.27624097       2.11404512       3.48451722       0.00000000       0.00507054       0.00353520       0.00405609
C       -2.52660000       4.25758065       3.56183580       0.00000000      -0.00186438      -0.00065982       0.00409275
C       -3.76196770       6.39780122       3.68254425       0.00000000      -0.00193701      -0.00121527       0.00007003
C       -4.98668524       8.53594094       3.74141853       0.00000000      -0.00293713      -0.00218600       0.00578200
C        2.43414405       0.00632245       3.72802328       0.00000000       0.00188767       0.00299805       0.00537541
C        1.21968982       2.09534973       3.38642493       0.00000000      -0.00418897      -0.00006726      -0.00511543
C       -0.10187441       4.31275065       3.31136050       0.00000000       0.00059999      -0.00090703       0.00146986
C       -1.32743007       6.42682271       3.58008664       0.00000000       0.00050801       0.00039306      -0.00252569
C       -2.52263828       8.54656526       3.72151095       0.00000000      -0.00038865      -0.00060760       0.00596897
C        4.90275027      -0.01672290       3.75537377       0.00000000       0.00448423      -0.00045146       0.00466187
C        3.70271898       2.15640593       3.78764638       0.00000000      -0.00287153      -0.00015920       0.00201736
N        1.06878267       6.39057973       3.79632280       0.00000000      -0.00165263       0.00374803      -0.00217211
C       -0.04391933       8.51376824       3.73002513       0.00000000       0.00032968       0.00073377      -0.00033007
C        7.37891930      -0.05130425       3.74122263       0.00000000      -0.00233502      -0.00340399      -0.00087484
C        6.14816768       2.10795632       3.75766343       0.00000000       0.00192738       0.00048684      -0.00400527
C        4.90843777       4.24615761       3.87084227       0.00000000       0.00049617      -0.00107025      -0.00099085
O        3.76951545       6.42223164       3.95804135       0.00000000       0.00625753       0.00289034      -0.00146886
C        2.44048593       8.44879063       3.80832783       0.00000000      -0.00051768       0.00133684      -0.00202823
C        9.82781418      -0.04591090       3.68669343       0.00000000      -0.00246713       0.00022111      -0.00243559
C        8.60361777       2.10388515       3.65278918       0.00000000       0.00253420      -0.00356366       0.00140915
C        7.35985617       4.25021641       3.71068945       0.00000000       0.00169869       0.00122350       0.00204999
C        6.12423988       6.38728895       3.79356287       0.00000000       0.00011143      -0.00368380      -0.00398542
C        4.89424437       8.51573750       3.78139003       0.00000000       0.00043375      -0.00166607       0.00123331
C       -0.03564715       1.41089860       3.49770184       0.00000000       0.00046681      -0.00012403      -0.00202996
C       -1.29205424       3.55042104       3.44096392       0.00000000      -0.00110355       0.00191901      -0.00878551
C       -2.53866705       5.68638336       3.59885271       0.00000000      -0.00139293       0.00000154      -0.00575172
C       -3.75333934       7.82577566       3.71869528       0.00000000      -0.00262584      -0.00153932      -0.00045627
C       -4.97355460       9.96836227       3.71102350       0.00000000      -0.00005435       0.00031655       0.00369881
C        2.44863278       1.42811608       3.65418251       0.00000000      -0.00410575       0.00288003       0.00419801
P        1.34013661       3.65152882       2.58378118       0.00000000      -0.00241380      -0.00237186      -0.00053225
C       -0.09877485       5.74859512       3.51847616       0.00000000       0.00110121       0.00164810      -0.01075596
C       -1.29776794       7.83405173       3.68130823       0.00000000       0.00084758       0.00054759       0.00039233
C       -2.50793960       9.96945143       3.75388113       0.00000000       0.00373810       0.00091751       0.00087505
C        4.91742951       1.40787692       3.76958778       0.00000000       0.00082532       0.00062079       0.00204911
N        3.74741114       3.51153997       3.97723823       0.00000000      -0.00177224       0.00104328       0.00467020
C        1.16401601       7.75275324       3.78187178       0.00000000      -0.00109886       0.00374300       0.00654727
C       -0.03005689       9.93707526       3.74938832       0.00000000       0.00086031      -0.00241332      -0.00109021
C        7.37797101       1.38431782       3.71978644       0.00000000       0.00115385      -0.00406856       0.00382998
C        6.14014398       3.53520337       3.76808572       0.00000000       0.00227115       0.00167158       0.00199335
C        4.93696184       5.67978600       3.87457308       0.00000000       0.00122763      -0.00160611      -0.00355257
C        3.69496513       7.80525724       3.84407330       0.00000000       0.00136819       0.00206604       0.00152122
C        2.43725626       9.89193717       3.74816009       0.00000000      -0.00345122      -0.00073756      -0.00237420
C        9.83495240       1.39201412       3.60486258       0.00000000       0.00574957       0.00145724       0.00275701
C        8.59569851       3.53402438       3.64008379       0.00000000      -0.00124945      -0.00239755      -0.00662373
C        7.35544191       5.67095264       3.72632468       0.00000000      -0.00046170      -0.00037941       0.00253512
C        6.12881157       7.81757799       3.77478855       0.00000000      -0.00139525      -0.00495373       0.00221333
C        4.89469922       9.94854657       3.70494321       0.00000000      -0.00311889      -0.00130060       0.00181301
Cd       2.20308265       4.78712286       4.94476492       0.00000000       0.00478583       0.00172693      -0.01835541
O        2.98740419       4.80925624       7.83166047       1.00000000       0.00095420       0.00380144       0.00280321
O        3.30583824       5.53617491       6.81528057       1.00000000      -0.00471940       0.00073976       0.00723367
