52
Lattice="12.336457 0.0 0.0 -6.168228499999997 10.683685154694365 0.0 0.0 0.0 15.0" Properties=species:S:1:pos:R:3:forces:R:3 energy=-433.6346934886466 free_energy=-433.6346934886466 stress="-0.0029875917682275393 -0.0029051990590031776 2.3863743187334385e-05 -0.0029051990590031776 -0.004652315686260061 2.650726282874145e-05 2.3863743187334385e-05 2.650726282874145e-05 4.999135869172248e-05" pbc="T T T"
C       -0.00156670      -0.01601345       3.96822601       0.00443542      -0.00930213       0.00396049
C       -1.25004801       2.12686180       4.05091455      -0.00427397       0.01452848      -0.00014025
C       -2.48870313       4.26303480       3.81126212      -0.00450309      -0.00042286       0.00387578
C       -3.69693932       6.40338888       3.70776162       0.00282690       0.00068703       0.00711485
C       -4.92438446       8.53493257       3.79623424      -0.00388007       0.00816932      -0.00411988
C        2.47669358      -0.05085211       3.84991421       0.01273585      -0.01190140       0.00320915
C        1.25439397       2.05456128       4.22133119      -0.00412973      -0.00676337      -0.01173502
C       -0.05291657       4.30472904       3.92138741      -0.00149088      -0.00050161      -0.00195047
C       -1.25188939       6.39741823       3.51193458       0.00500902      -0.00194324       0.00314442
C       -2.44427627       8.52172590       3.62415351      -0.00493233       0.00155511       0.00026891
C        4.93641906      -0.01472457       3.63111949       0.00010411       0.00589494       0.00490796
C        3.66005226       2.06423748       3.62357639       0.00526442      -0.00719180       0.00247828
S        1.28937698       6.28389823       2.62221120      -0.01695472      -0.00210582      -0.00243176
C        0.02033380       8.53201348       3.44722058       0.00208706       0.00236718      -0.00527880
C        7.40101449      -0.00259056       3.65666421      -0.00962117       0.00645120       0.00768999
C        6.14103503       2.15431686       3.60849909       0.00411791       0.00459290       0.00521899
C        4.96414842       4.37524989       3.50439399       0.00115365      -0.00268546       0.00637394
O        3.79869859       6.47338986       3.70162952      -0.00802433       0.00321769       0.00851274
C        2.50088284       8.53176675       3.55185702       0.00904773       0.00068269      -0.00078671
C        9.86232601      -0.00544945       3.84988249       0.00524745      -0.00300488      -0.00404001
C        8.61722622       2.13438121       3.80757265       0.00286255      -0.00637601       0.00381743
C        7.38517759       4.27944364       3.71258658       0.00620700      -0.00450589      -0.00544237
C        6.19441528       6.43588383       3.72623188      -0.00609126       0.00691665       0.00476028
C        4.94250544       8.54629495       3.76564737       0.00422411       0.00020625       0.00854850
C       -0.00334712       1.40801354       4.11421802      -0.00878392      -0.00217627       0.00036059
C       -1.26129635       3.55097790       3.95824472      -0.00529898       0.01170824      -0.00810687
C       -2.47909404       5.68317101       3.68475904       0.00456013      -0.00181152       0.00280119
C       -3.68535102       7.82211179       3.70643219      -0.00812613       0.00584100       0.00162317
C       -4.93367583       9.95017795       3.88495423       0.00709624       0.00002840       0.00783757
C        2.46706808       1.36142145       3.93469573       0.00793279      -0.01396705       0.00260490
P        1.38568531       3.72011934       4.76474172      -0.00791984       0.01627808      -0.00122218
C       -0.07498897       5.63418297       3.43989639      -0.00257526      -0.00950903      -0.01250645
C       -1.21797161       7.81462853       3.47803097      -0.00164620      -0.00039523      -0.00005918
C       -2.45403143       9.94496117       3.68926133       0.00814219      -0.00258109       0.01077546
C        4.91660427       1.42598222       3.60517708       0.00848066       0.00124756       0.00281892
S        3.42529381       3.70374352       3.12771824      -0.00373644      -0.00330469      -0.00702587
C        1.26113808       7.87630980       3.28796713       0.00600740       0.00341642      -0.01608836
C        0.00788706       9.96547781       3.58076478      -0.00635801       0.00581415       0.00065221
C        7.37768801       1.43436963       3.69441626      -0.00319381       0.00625510       0.00613688
C        6.13698792       3.58815542       3.61081479       0.00366768       0.00072115       0.00700714
C        4.99168308       5.77183163       3.63353759      -0.00583825       0.00173789       0.00614312
C        3.75157302       7.85319627       3.63795599       0.00645336       0.00249085      -0.00134858
C        2.47404413       9.95995322       3.70005993      -0.00289748       0.00472123      -0.00212817
C        9.85580547       1.42342095       3.91819439       0.00599963      -0.00135534      -0.00256478
C        8.61592544       3.55600999       3.79047498       0.00184893      -0.01064838      -0.00480972
C        7.40818699       5.69372613       3.72681990       0.00024163       0.00122152       0.00122014
C        6.18652407       7.84636097       3.77863966      -0.00228977       0.00978708      -0.00297533
C        4.92910700       9.97295666       3.86906836       0.00781949      -0.00726536      -0.00616924
Cd       2.32322416       4.85550597       6.80617897      -0.00290134      -0.01182609      -0.01260239
O        3.00105394       5.07955209       8.74564446      -0.00577150      -0.00032531      -0.00025375
O        2.00663581       4.51937354       9.68479365       0.00045338      -0.00315971      -0.00594754
H        2.48176257       4.68312890      10.52260406      -0.00278821      -0.00150858      -0.00412936
