53
Lattice="12.336457 0.0 0.0 -6.168228499999997 10.683685154694365 0.0 0.0 0.0 15.0" Properties=species:S:1:pos:R:3:forces:R:3 energy=-453.08835500280435 free_energy=-453.08835500280435 stress="0.005171901407045898 2.5107337127334416e-05 -2.1282887255153077e-05 2.5107337127334416e-05 0.005162258020851753 -4.995067183142881e-06 -2.1282887255153077e-05 -4.995067183142881e-06 9.572292962983782e-05" pbc="T T T"
C       -0.00874923      -0.00037771       3.67371647      -0.00055543       0.00012254      -0.00393247
C       -1.23042765       2.14779769       3.67500296       0.00101798      -0.00296218       0.00340981
C       -2.45638643       4.27069279       3.67506745       0.00976744      -0.00704006      -0.00052460
C       -3.70486126       6.40230405       3.67386845      -0.00685862      -0.00409370       0.00840239
C       -4.94606607       8.53940378       3.67362032      -0.00851149       0.00335244       0.00641394
C        2.46319203       0.00591112       3.67149202       0.00221907      -0.00299034       0.00913170
C        1.23723267       2.15230175       3.67232013      -0.00240973      -0.00022749      -0.00047734
C        0.05754816       4.30627216       3.67973640      -0.00309362      -0.00069135      -0.00419656
C       -1.21824653       6.40524225       3.67973221       0.00538102      -0.00620926      -0.01091908
C       -2.46378291       8.53964902       3.67803399       0.00661641       0.00616659      -0.00890089
C        4.93547088      -0.00057754       3.67477792      -0.00357189       0.00485130      -0.00060777
C        3.68966147       2.15187741       3.67086174      -0.00299438       0.00302543       0.01202727
O        2.46365222       4.20961492       3.72550048      -0.00430459       0.01193627      -0.00393055
O        1.17767057       6.43708977       3.70501062       0.00869720       0.00086477       0.01557656
C        0.00872911       8.52858079       3.68008518      -0.00228222      -0.00084782       0.00943190
C        7.40622797      -0.01516454       3.68239322      -0.00237097      -0.01211008      -0.01235404
C        6.15693494       2.14767974       3.67412881       0.00202977      -0.00554264       0.00817851
C        4.86868771       4.30573178       3.68445205       0.00153845       0.00631334      -0.00699501
O        3.74776014       6.43597671       3.72979417       0.00332543       0.00700629      -0.00349003
C        2.46357717       8.47305504       3.68836380      -0.00107277      -0.00677356      -0.00128862
C        9.85706293      -0.01593782       3.67950983       0.00492730       0.00100462       0.00536763
C        8.63171012       2.13383118       3.67663750      -0.00021056       0.00815297       0.00025031
C        7.38248762       4.27016222       3.67411110       0.00088650      -0.00103048       0.00673868
C        6.14414854       6.40406491       3.67528646      -0.00763905       0.00236935       0.00358223
C        4.91812923       8.52755287       3.67971532      -0.00383558      -0.00177155      -0.00784240
C       -0.00470456       1.43105239       3.67130219      -0.00186888      -0.00120996       0.00973794
C       -1.19897931       3.58147930       3.67628675       0.00494452      -0.00828136      -0.00311762
C       -2.46365975       5.69048899       3.67567901       0.00121012      -0.00856826       0.00062474
C       -3.70489949       7.82808588       3.67618249      -0.00182174       0.00515956      -0.00838354
C       -4.94183132       9.97019418       3.67411006      -0.00159460       0.00260861      -0.01032703
C        2.46336756       1.42773373       3.67217099      -0.00083964      -0.00408343      -0.01247936
C        1.26266864       3.54721921       3.68400336      -0.00451928       0.00346175       0.00840477
C        0.00243850       5.72916035       3.68279807       0.00883380       0.00016655       0.00407055
C       -1.23221293       7.82927325       3.67961307       0.00335664      -0.00333611      -0.00113534
C       -2.46816613       9.97024734       3.67434966       0.00374552       0.00537055       0.00164762
C        4.93150463       1.43061119       3.67138230      -0.00202618       0.00135229       0.00472114
C        3.66427801       3.54683362       3.68577398      -0.00036036       0.00811790       0.00794752
C        1.20427877       7.80885751       3.68816127      -0.00126668      -0.00003287      -0.00624242
C        0.00503327       9.96465795       3.67994972      -0.00940988      -0.00215509      -0.00591306
C        7.39832246       1.42245021       3.67688231       0.00292798      -0.00704746       0.00633016
C        6.12517429       3.58094587       3.67753052       0.00256290      -0.00247557      -0.00703107
C        4.92301065       5.72827059       3.68828246      -0.00354108       0.00825203       0.01406539
C        3.72255112       7.80784609       3.69255882      -0.00086285       0.00172187       0.00727116
C        2.46326007       9.92395952       3.68389943       0.00507072      -0.00781451      -0.00147154
C        9.86494372       1.42185859       3.67874472      -0.00130192       0.00531702      -0.01241410
C        8.63135794       3.55784309       3.67351579       0.00633458       0.00643571       0.00823849
C        7.39035692       5.68986443       3.67387956      -0.01128827      -0.00298186      -0.00577416
C        6.15897063       7.82829235       3.67487161      -0.00861167      -0.00212360       0.00498875
C        4.92196751       9.96414615       3.67641174       0.00430740      -0.00302348       0.00478727
Cd       2.23621888       5.61818403       7.53045809       0.00605560       0.00226641      -0.01127524
O        3.32638080       5.60639905       9.34921306      -0.00010790       0.00003132       0.00128132
O        2.47569963       5.60737202      10.54747151       0.00929293       0.00007268      -0.01497808
H        3.16392009       5.60717349      11.24274171      -0.00591744      -0.00007608      -0.00662579
