52
Lattice="12.336457 0.0 0.0 -6.168228499999997 10.683685154694365 0.0 0.0 0.0 15.0" Properties=species:S:1:pos:R:3:forces:R:3 energy=-433.68945144739257 free_energy=-433.68945144739257 stress="-0.0007011279590674777 0.0029804598190580943 -1.1746350425879204e-05 0.0029804598190580943 -0.002654075481586347 2.2038974847048796e-06 -1.1746350425879204e-05 2.2038974847048796e-06 8.414292625773393e-05" pbc="T T T"
C       -0.02564123      -0.04942574       3.52477894      -0.00917191      -0.00239019       0.00245592
C       -1.23084710       2.11514972       3.36138644      -0.00543616      -0.00463365       0.00067351
C       -2.48667896       4.24186201       3.44799483       0.00240783       0.00319513      -0.00041943
C       -3.73786379       6.36269023       3.60976572      -0.00440164       0.00178614      -0.00114403
C       -4.97994755       8.48792043       3.66849577      -0.00081968       0.00402368       0.00446233
C        2.43947773      -0.07666298       3.63457275      -0.00348193      -0.00860381      -0.00253613
C        1.25459299       2.04533926       3.42482230       0.00553488      -0.00203813      -0.01012434
C       -0.06360060       4.33288995       3.19266311      -0.01089601       0.00252648      -0.00564227
C       -1.28906810       6.39570554       3.39427599       0.00351904      -0.00364784       0.00006703
C       -2.50238308       8.49477009       3.54778219       0.00013777       0.00187705       0.00277151
C        4.91561652      -0.05888370       3.64661009       0.00232869       0.00609561      -0.00886230
C        3.68229730       1.99698808       4.05261748       0.00268128       0.00305459       0.00035735
O        1.12591593       6.41986931       3.28778970       0.00542353      -0.00276873       0.01432771
C       -0.03125817       8.49843905       3.46961631      -0.00959514      -0.00448512       0.00546543
C        7.38015320      -0.04784066       3.53751482       0.00312126       0.00402665       0.00190198
C        6.16168573       2.07908145       3.85156757       0.00112455      -0.00491697      -0.00327908
C        5.04104586       4.21718663       4.39331766       0.01056476       0.00456823       0.00647686
P        3.58968682       6.42241814       5.05166524      -0.00183631      -0.00296425      -0.00028745
C        2.41150701       8.48287671       3.63368664       0.00207039       0.00065248       0.00372170
C        9.84519773      -0.04444717       3.49665222       0.00518061       0.00408792       0.00847362
C        8.62394795       2.09694002       3.53567863       0.00079289       0.00208173       0.00399507
C        7.39830988       4.22288488       3.77254963       0.00557310      -0.00964361       0.00464242
C        6.16878072       6.36676056       3.99824743      -0.00584077       0.00522714      -0.01355076
C        4.88930092       8.50538445       3.80703170       0.00616208      -0.00135674       0.01597405
C       -0.00274760       1.39126915       3.40765600      -0.00189706      -0.00337869      -0.01113275
C       -1.23727897       3.54935275       3.32247000      -0.00663947      -0.00244026      -0.00522822
C       -2.50740707       5.65604075       3.47434775       0.00129768       0.00170652      -0.00370424
C       -3.74261371       7.78358158       3.60666916      -0.00094333       0.00555343      -0.00179390
C       -4.97216848       9.91065022       3.59069207      -0.00952190      -0.00129194       0.00863859
C        2.45518953       1.33770000       3.71222194       0.00305432      -0.00734559      -0.00124325
S        1.48500411       3.66376623       2.88894058      -0.00337164       0.01587185       0.00302655
C       -0.08328385       5.73462769       3.26967361       0.00459257       0.00144993      -0.00144719
C       -1.27689952       7.80595354       3.46160791      -0.00653702      -0.00617325       0.00476723
C       -2.49095262       9.91307750       3.61708755       0.00307172       0.00123117      -0.00324332
C        4.92482102       1.36047673       3.85432457       0.00155526       0.00297908      -0.00164539
S        3.64171190       3.41824610       5.02955982      -0.00464472      -0.00359987       0.00393686
C        1.16508201       7.79052617       3.49002407      -0.00364022       0.00214590       0.00341938
C       -0.01747791       9.92537533       3.54630838      -0.00039316      -0.00045100      -0.00318397
C        7.38295672       1.38380259       3.62716196       0.00203185       0.00265654      -0.00249961
C        6.18170461       3.49325145       3.99377809       0.00691956      -0.00708842       0.01334920
C        5.01664100       5.63014606       4.39809913      -0.00658133       0.00658301      -0.01384786
C        3.63752513       7.84561202       4.01003186       0.00678236      -0.00510321       0.00018261
C        2.43453779       9.91251923       3.51511418       0.00640736       0.00511911      -0.00360078
C        9.86618539       1.39250612       3.44038601      -0.00346691       0.00229753       0.00610379
C        8.62130863       3.51834715       3.57227355       0.00771873      -0.00189416       0.00122373
C        7.38323103       5.64769924       3.78255093      -0.00678244      -0.00533988      -0.00666990
C        6.13030787       7.78586675       3.83892068       0.00379987       0.00329436       0.00210030
C        4.90479217       9.92562522       3.57526244      -0.00205918      -0.00443916       0.01120089
Cd       3.38537695       6.69269530       7.60764629       0.00942680       0.00150876      -0.01415203
O        3.46147331       6.48970053       9.66984040      -0.00775298       0.00302432       0.00600613
O        2.10057000       6.37041895      10.23229790      -0.00583637      -0.00567158      -0.01093682
H        2.32511458       6.39576267      11.18300926       0.00826652       0.00304168      -0.00954671
