52
Lattice="12.336457 0.0 0.0 -6.168228499999997 10.683685154694365 0.0 0.0 0.0 15.0" Properties=species:S:1:pos:R:3:forces:R:3 energy=-448.4386064531582 free_energy=-448.4386064531582 stress="-0.00802937593004489 -3.774495430674771e-05 -2.350440557679898e-05 -3.774495430674771e-05 -0.0037550625857693735 -2.533956466335306e-05 -2.350440557679898e-05 -2.533956466335306e-05 3.682268188695518e-05" pbc="T T T"
C       -0.01527735      -0.00947859       3.78421276       0.01074200       0.00642587      -0.00485911
C       -1.26210188       2.09936450       3.95877402      -0.00522061       0.00532259      -0.00671826
C       -2.50821128       4.24952197       3.98849351      -0.00401219      -0.00179866       0.00640869
C       -3.72747772       6.39559104       3.83543371      -0.00497718      -0.00166362      -0.00070600
C       -4.95811641       8.53362598       3.69002322      -0.00045722      -0.00727192       0.00221670
C        2.44996269       0.00375483       3.77673912       0.00036240       0.00052457      -0.00685211
C        1.21547177       2.14639821       3.81219320      -0.00206407       0.00016956       0.00468841
C       -0.07519482       4.22692008       3.93587222       0.00212020      -0.00857865      -0.00027460
C       -1.28260018       6.39744375       3.91616873      -0.00224697      -0.00974119       0.00053006
C       -2.49086415       8.53787362       3.83039015       0.00310485       0.00832414      -0.00464842
C        4.91863550      -0.01417163       3.81055689      -0.00329503       0.00250111      -0.00323775
C        3.69621981       2.14184404       3.65435861      -0.00755377       0.00195562      -0.01433932
B        1.20267452       6.36665331       3.71179768       0.01243906       0.00288171      -0.00079884
C       -0.02080905       8.52923530       3.78976125       0.00211735      -0.00087828       0.00399354
C        7.38881772      -0.02687215       3.83880455      -0.00244643       0.00019500       0.00180902
C        6.16719520       2.10145690       3.79061862      -0.00198323       0.00089805       0.00510719
C        4.98247380       4.21769538       3.40253772       0.00291375       0.00768843      -0.00158144
S        3.68865105       6.39577164       2.36489894       0.01273498       0.00826910       0.00466015
C        2.46044351       8.54134173       3.56446573       0.00480453      -0.00448595       0.00985981
C        9.85633199      -0.02469261       3.80791312      -0.00250875       0.00012861      -0.00229810
C        8.61936173       2.10568560       3.93551554       0.00275138       0.00521348      -0.00440292
C        7.39892349       4.25021168       3.79502218      -0.00199034      -0.00656805      -0.00141165
C        6.17527824       6.39104871       3.46758505       0.00156229      -0.00233841       0.00579011
C        4.92832430       8.53896921       3.48563607      -0.00848431      -0.00622830       0.00192517
C       -0.02405035       1.40920578       3.87108761      -0.00144763       0.00963700       0.01175483
C       -1.29213292       3.51469303       4.01726530      -0.00370216       0.00023980      -0.00596520
C       -2.51150480       5.67821577       3.93975870      -0.00873110      -0.00538418       0.00415209
C       -3.72375749       7.82246437       3.78842293       0.00287047       0.00292824       0.00090440
C       -4.95061651       9.96565531       3.74931703       0.00631662      -0.00391202      -0.00275296
C        2.45288096       1.43076391       3.74460365      -0.00727249      -0.00003814      -0.00287017
C        1.15542468       3.54843778       3.80121819       0.00340888      -0.00262192      -0.00652638
C       -0.09165446       5.64450081       3.88622024       0.00377759      -0.00748857       0.00336385
C       -1.25977554       7.82247259       3.85120654      -0.00058926      -0.00354875       0.00080073
C       -2.48800290       9.96430347       3.80234539      -0.00059939       0.00721263       0.00007247
C        4.93366132       1.40420079       3.75714198      -0.00594888       0.00125405      -0.00428220
C        3.76636272       3.51918626       3.42825529       0.00764114       0.00137387      -0.01586639
C        1.22673811       7.84271237       3.66570220       0.00757239       0.00428887       0.00535554
C       -0.01789967       9.95360080       3.81976293      -0.00299475       0.00036003      -0.00477415
C        7.39422600       1.39104243       3.87786904       0.00266736       0.00484047       0.00233192
C        6.19487296       3.51657773       3.68382228      -0.00388163       0.00050224       0.00556531
C        5.02776561       5.62841034       3.18127193       0.00300511       0.00710701       0.00328613
C        3.68507976       7.89356523       3.26335929      -0.00529047      -0.01734342       0.00536975
C        2.45822032       9.95663117       3.76048944      -0.00241685      -0.00288515      -0.00071166
C        9.84656097       1.39119250       3.92834809      -0.00175666       0.00042221       0.00225408
C        8.61343315       3.53291649       3.93591747      -0.00105921       0.00014098       0.00498053
C        7.39284233       5.67579229       3.72151728      -0.00045667      -0.00687465       0.00773059
C        6.15774191       7.82117840       3.51281630      -0.00657693      -0.00459446      -0.00287771
C        4.92193172       9.95601139       3.71183117       0.00495108      -0.00065399       0.00370673
Co       2.39117494       4.85190941       3.35083807      -0.01181034      -0.00123588       0.00633093
O        2.58508068       5.22630370       6.82065428      -0.00122167       0.00821755      -0.00722089
O        2.66059596       5.31077298       8.17202696       0.01037690       0.00750761      -0.00498082
H        3.52009171       4.91430729       8.43675500       0.00475589      -0.00039629      -0.00399168
