51
Lattice="12.336457 0.0 0.0 -6.168228499999997 10.683685154694365 0.0 0.0 0.0 15.0" Properties=species:S:1:pos:R:3:initial_magmoms:R:1:forces:R:3 energy=-445.9946828710427 free_energy=-445.9946828710427 stress="-0.00312634117032341 -0.0020721928730725926 -1.129159619613772e-06 -0.0020721928730725926 -0.0035855837856643546 -2.031805713835818e-06 -1.129159619613772e-06 -2.031805713835818e-06 -2.5326747697749557e-06" pbc="T T T"
C        0.04063241       0.03189886       3.84410717       0.00000000      -0.00397337       0.00251259       0.00255370
C       -1.21828646       2.16688948       4.06789235       0.00000000       0.00146523      -0.00241783      -0.00449543
C       -2.44296381       4.31771121       3.85929318       0.00000000       0.00208889       0.00098951       0.00775851
C       -3.63734357       6.46266539       3.62898890       0.00000000       0.00186954      -0.00492371       0.00791964
C       -4.87029754       8.60120871       3.64865454       0.00000000       0.00115853      -0.00049562       0.00048074
C        2.51379111       0.03462504       3.88231625       0.00000000      -0.00430970      -0.00236026      -0.00293524
C        1.26006878       2.06841258       4.42042394       0.00000000       0.00560384      -0.00837569      -0.00906996
C       -0.10252011       4.33324795       4.57625063       0.00000000      -0.00731266       0.00146564       0.00574010
C       -1.19845771       6.45153176       3.95856196       0.00000000       0.00468669       0.00692903       0.00289244
C       -2.40904635       8.59178660       3.76568589       0.00000000       0.00007163       0.00867204      -0.00746636
C        4.97506175       0.05882899       3.70045641       0.00000000       0.00225067       0.00797195       0.01053567
C        3.69272763       2.15924035       3.62826848       0.00000000      -0.00791636       0.00340766       0.00117684
B        1.29874348       6.44656954       4.04614519       0.00000000       0.00508010       0.00269628      -0.00161568
C        0.04676226       8.60552073       3.79837976       0.00000000      -0.00092278      -0.00906958      -0.00441903
C        7.44297849       0.05700923       3.63750929       0.00000000      -0.00568860       0.00133788       0.00569707
C        6.19873424       2.19198586       3.45060532       0.00000000      -0.00075189       0.00455663      -0.00005113
C        5.05653701       4.37650874       3.12688155       0.00000000      -0.00620873      -0.01032554      -0.00841154
C        3.80883545       6.46738877       3.39782739       0.00000000      -0.00231421       0.00622819      -0.00370247
C        2.52309521       8.60245580       3.66367241       0.00000000      -0.00012619       0.00317918       0.00416731
C        9.91389826       0.05032010       3.70262814       0.00000000       0.00060193      -0.00343220       0.00119452
C        8.67241566       2.18619352       3.65996341       0.00000000       0.00715533      -0.00413474       0.00170447
C        7.46815441       4.32968689       3.44611681       0.00000000      -0.00019387      -0.00719923      -0.00061596
C        6.27006096       6.49646722       3.34913365       0.00000000      -0.00088288      -0.00011851      -0.00004242
C        4.99405762       8.59860714       3.55303331       0.00000000      -0.00189092       0.00304167      -0.00171332
C        0.03201588       1.44062391       4.12011814       0.00000000      -0.00097441       0.00066296      -0.00590370
C       -1.24462180       3.59764687       4.18747353       0.00000000      -0.00051319      -0.00182152      -0.00191588
C       -2.42658510       5.74333155       3.81125921       0.00000000       0.00816210       0.00171521       0.00466604
C       -3.63946499       7.88553768       3.67611032       0.00000000       0.00242268      -0.00071010       0.00457008
C       -4.88454285      10.01196578       3.80388522       0.00000000      -0.00503687       0.00232758      -0.00769240
C        2.49254963       1.46156463       4.01903228       0.00000000      -0.00362829      -0.00689754       0.00358432
P        1.07306825       3.42688506       5.62529259       0.00000000       0.01151318       0.01469358      -0.00616428
C       -0.01532596       5.70273558       4.25471554       0.00000000       0.00053618       0.00244481       0.00679778
C       -1.17876236       7.87665352       3.83701566       0.00000000      -0.00208552       0.00301211      -0.00957701
C       -2.41721716      10.01802673       3.77994514       0.00000000       0.00099564       0.00908727      -0.00398348
C        4.95259040       1.49035205       3.57289893       0.00000000      -0.00565920       0.01218306       0.00936159
P        3.45986373       3.71289196       2.76858955       0.00000000      -0.00210013      -0.00910597       0.00090855
C        1.29465180       7.91788298       3.81790505       0.00000000       0.00546831      -0.00274603       0.00440190
C        0.03998938      10.03269749       3.69897553       0.00000000      -0.00262811      -0.00843136      -0.00699219
C        7.43382378       1.48215879       3.56613587       0.00000000       0.00066841       0.00318335       0.00227783
C        6.23104527       3.61585665       3.30483765       0.00000000       0.00528453      -0.00395935      -0.00243627
C        5.04630651       5.80077481       3.21785660       0.00000000       0.00209054      -0.00124758       0.00233245
C        3.75545449       7.87032791       3.53670863       0.00000000      -0.00528581       0.00291214      -0.00396056
C        2.51491050      10.02866095       3.64892083       0.00000000      -0.00427531       0.00422429      -0.00200281
C        9.90788545       1.47436817       3.80038281       0.00000000       0.00720048      -0.00574226      -0.00112674
C        8.67750520       3.61096657       3.64214120       0.00000000       0.00249981      -0.00385926       0.00488400
C        7.48169162       5.75668082       3.45334763       0.00000000      -0.00104258      -0.00522132      -0.00130802
C        6.23940544       7.90428699       3.50600603       0.00000000      -0.00030591       0.00267369      -0.00201373
C        4.98113989      10.01501165       3.69541821       0.00000000       0.00115071       0.00174479      -0.00651077
Co       2.72357774       5.14579131       4.21865458       0.00000000       0.00073998      -0.00036242       0.00673910
O        0.47717861       3.00097375       6.91775364       1.00000000      -0.01439880      -0.00961875       0.00403804
O        2.44991327       4.19957595       5.74359860       1.00000000       0.00966136      -0.00127671      -0.00025631
