51
Lattice="12.336457 0.0 0.0 -6.168228499999997 10.683685154694365 0.0 0.0 0.0 15.0" Properties=species:S:1:pos:R:3:initial_magmoms:R:1:forces:R:3 energy=-438.45445497174046 free_energy=-438.45445497174046 stress="-0.0046280138461043206 -0.0029987629939622266 -3.599511573514746e-06 -0.0029987629939622266 -0.006052536546171476 1.0499675080677327e-05 -3.599511573514746e-06 1.0499675080677327e-05 -1.2332851279709124e-06" pbc="T T T"
C        0.02350936       0.01601481       4.03864910       0.00000000      -0.00031563       0.00921779       0.00154189
C       -1.23599294       2.13875881       4.02053654       0.00000000       0.00308587       0.00571835      -0.00889410
C       -2.45834262       4.29046187       3.91071285       0.00000000       0.00648892      -0.00622497       0.00059949
C       -3.65556232       6.43166499       3.85230386       0.00000000       0.00701001       0.00341511       0.01248632
C       -4.89394809       8.57114432       3.94194710       0.00000000      -0.00194063       0.00059133       0.00827435
C        2.48524745       0.02424799       3.82609041       0.00000000       0.00292729      -0.00102845       0.00154283
C        1.19978585       2.10454694       3.74326609       0.00000000       0.00289819       0.00559005       0.00667727
C       -0.06667386       4.22423629       3.65197079       0.00000000      -0.00137631      -0.00371980      -0.00161416
C       -1.18792571       6.40305096       3.66653326       0.00000000       0.00237111      -0.00650081      -0.00173673
C       -2.42375543       8.55791563       3.78669491       0.00000000       0.00038253       0.00340806       0.00694819
C        4.95297912       0.02282932       3.70083148       0.00000000      -0.00561823      -0.00128287       0.00197273
C        3.69098991       2.11412746       3.37520016       0.00000000      -0.00220024      -0.00668960       0.00064270
P        1.54209735       6.30180868       2.82771763       0.00000000       0.00866579       0.00286389       0.00634929
C        0.03623406       8.56768704       3.63699249       0.00000000      -0.00865555       0.00892449      -0.00097261
C        7.40772434       0.04097774       3.85467097       0.00000000      -0.00176621      -0.00266896       0.00308808
C        6.18502327       2.16397670       3.59816791       0.00000000      -0.00553301       0.00076715       0.00918970
C        5.06833423       4.34183079       3.26519632       0.00000000      -0.01203626      -0.00338232       0.00211666
B        3.67381981       6.43515826       3.66104596       0.00000000       0.00317307      -0.00312701       0.00026940
C        2.49255672       8.62649366       3.81196745       0.00000000       0.00635778      -0.00831490      -0.00932331
C        9.88409590       0.03126791       4.06164475       0.00000000      -0.00588400       0.01054263      -0.00285180
C        8.63752233       2.16261124       3.93591715       0.00000000      -0.00431191       0.00795778       0.00947333
C        7.43821983       4.30291831       3.75302162       0.00000000       0.00181728       0.00273314       0.00355872
C        6.22739467       6.45375726       3.76000694       0.00000000      -0.00370768      -0.01363398       0.00528355
C        4.97255596       8.58326961       3.97430606       0.00000000       0.00521278      -0.00311101      -0.01111973
C        0.00463747       1.43620626       3.98349447       0.00000000       0.00321526       0.00926259      -0.00945744
C       -1.24674946       3.54633538       3.91243671       0.00000000       0.00327424      -0.00160105      -0.00829626
C       -2.42724428       5.70939667       3.82560815       0.00000000       0.00439686      -0.00750072      -0.00112652
C       -3.65775508       7.85537293       3.86826978       0.00000000       0.00032072       0.00581448      -0.00880279
C       -4.90421450       9.99768449       3.96108576       0.00000000       0.00070494       0.00476118       0.00723276
C        2.45533207       1.45191176       3.65477463       0.00000000       0.00150126      -0.00223331       0.00234408
O        1.09583492       3.46911178       3.48614215       0.00000000      -0.00718903      -0.00112156      -0.00043010
C       -0.00325153       5.61044631       3.50139002       0.00000000       0.00339784      -0.00504066      -0.00015379
C       -1.19229437       7.83755501       3.67053676       0.00000000      -0.00431695      -0.00069941       0.00077893
C       -2.44305580       9.98990593       3.77429450       0.00000000      -0.00115139      -0.00045068      -0.01229542
C        4.93953816       1.45278672       3.54823351       0.00000000      -0.00522942      -0.00610546       0.01040937
P        3.64998777       3.64587183       2.44061942       0.00000000       0.00783130       0.00290961      -0.01361625
C        1.29359146       7.92830728       3.52436630       0.00000000      -0.00581105       0.00580581       0.00253632
C        0.01828730      10.00104926       3.74188516       0.00000000      -0.00624564       0.00568744       0.00275539
C        7.40311347       1.46093685       3.81771158       0.00000000      -0.00215180      -0.00021371       0.00091141
C        6.22851656       3.58281066       3.52206310       0.00000000      -0.00548554       0.00320061       0.00161596
C        5.02285963       5.73296598       3.53197488       0.00000000      -0.00819168      -0.00678388       0.01111793
C        3.72666548       7.92101104       3.84864326       0.00000000       0.00887724      -0.00870531      -0.00675066
C        2.47639169      10.03294554       3.96166093       0.00000000       0.00163541      -0.00491233      -0.01886129
C        9.87507150       1.44955722       4.04788181       0.00000000      -0.00246228       0.01425510      -0.00402823
C        8.64771255       3.58386247       3.89414080       0.00000000       0.00251042       0.00393814       0.00471683
C        7.45047428       5.72661977       3.80266014       0.00000000       0.00625262       0.00065577      -0.00070520
C        6.21251328       7.86816441       3.91822295       0.00000000       0.00173467      -0.01146821      -0.00048245
C        4.95891521      10.00189796       4.06755325       0.00000000      -0.00322151       0.00545305      -0.01194971
Co       2.60709658       4.78873104       3.98378539       0.00000000       0.00607160       0.00872606       0.00671576
O        1.28433232       4.36345226       6.13470931       1.00000000       0.00091772      -0.01134924       0.01301234
O        2.52317936       4.32495373       5.73043089       1.00000000       0.00176919      -0.00432943      -0.01069305
