52
Lattice="12.336457 0.0 0.0 -6.168228499999997 10.683685154694365 0.0 0.0 0.0 15.0" Properties=species:S:1:pos:R:3:forces:R:3 energy=-447.36441312303623 free_energy=-447.36441312303623 stress="-0.002421104973687392 0.0065066467040588525 -1.2430789559399736e-05 0.0065066467040588525 0.0010914250566365863 -2.3354663857965763e-06 -1.2430789559399736e-05 -2.3354663857965763e-06 -1.5184884541206757e-06" pbc="T T T"
C        0.05722144      -0.07526069       3.85613147       0.00049782       0.00632437      -0.00611848
C       -1.14698954       2.07505036       3.64974018       0.00111323       0.00081161       0.00050343
C       -2.40200391       4.20770739       3.68321416       0.00582179      -0.00256358       0.00634274
C       -3.66853156       6.33015888       3.82756871       0.00942330      -0.00185356      -0.00777589
C       -4.91511244       8.45418480       3.93559251      -0.00430685       0.00093186      -0.00339403
C        2.51570158      -0.07474439       3.85120788       0.00792017       0.00112739      -0.00033545
C        1.32965229       2.05932609       3.60645566      -0.00269718       0.01066266      -0.00038988
C        0.01541657       4.28724864       3.38538477      -0.00328756      -0.00612728       0.01202274
C       -1.21341393       6.36990389       3.65956917       0.00334890      -0.00830480       0.01324229
C       -2.44900076       8.48015314       3.80110861       0.00289137       0.00009656      -0.00042231
C        4.97959623      -0.08874962       3.78071639       0.00042409       0.00672997      -0.00125084
C        3.81574459       2.01283971       3.86215978      -0.01201730      -0.00385466       0.00046111
O        1.17424879       6.41697396       3.44825261      -0.00088977       0.00419612      -0.00267247
C       -0.00801733       8.48855626       3.86067438      -0.00747434       0.00457566       0.00791738
C        7.47339012      -0.10950532       3.82842868      -0.00478431      -0.00585931      -0.00931043
C        6.26176142       2.02797662       3.80867157       0.00075669      -0.00846347      -0.00574776
C        5.06817744       4.13724480       4.04907812      -0.00508118       0.00853170      -0.01166864
B        3.76144538       6.25812370       4.65085040      -0.00594075       0.00442727       0.00623404
C        2.52473648       8.43292678       4.06550435       0.00887592       0.00493358       0.00342828
C        9.93540642      -0.09442904       3.84743147      -0.00237225      -0.00643189       0.00451066
C        8.72034510       2.04447568       3.75582303       0.00597996       0.00852947      -0.00557418
C        7.47892809       4.17724660       3.83461856      -0.00452500       0.00628675       0.00027514
C        6.20353863       6.28269470       4.04368901       0.00425439       0.00191261      -0.01080476
C        4.95564710       8.44954154       4.07784996       0.00148386      -0.01077371      -0.00887046
C        0.08321599       1.36285052       3.70001430       0.00164091       0.00892037      -0.00435116
C       -1.16192861       3.51101931       3.56744164      -0.00005072      -0.00403794       0.00465432
C       -2.42897254       5.63165749       3.71771208       0.00734783      -0.00733406      -0.00781861
C       -3.68083845       7.75468793       3.85700902      -0.00135032       0.00043781      -0.00694121
C       -4.89247748       9.88770128       3.89237347       0.00356677       0.00495697      -0.00441166
C        2.56296443       1.35630525       3.80425897      -0.01069805       0.00049051       0.00873312
S        1.42632174       3.55729401       2.63708786      -0.01352596      -0.00527340       0.00334607
C       -0.00402959       5.71146283       3.46996279       0.00054340      -0.00474000      -0.00519363
C       -1.21174562       7.79425232       3.75963798       0.00206541      -0.00387249       0.00037892
C       -2.42708620       9.90299719       3.81890470       0.00911104       0.00120939      -0.00556529
C        5.01776573       1.33201138       3.79932216      -0.00730846       0.00152846       0.00664518
O        3.88350866       3.38143480       4.13710291      -0.00356490      -0.00371769       0.00581046
C        1.19005514       7.68827168       4.27274973       0.00237369      -0.00296688       0.00797331
C        0.04932018       9.87479493       3.81580046      -0.00851693       0.00555340       0.01434013
C        7.48340232       1.31836251       3.78887022       0.00750382      -0.00676881      -0.00691102
C        6.25999706       3.44176916       3.87234649      -0.00553281      -0.00193150      -0.00503230
C        5.01501634       5.51750105       4.18530357       0.00038511       0.01111888       0.00572468
C        3.70829118       7.75582352       4.24066428       0.00639923      -0.00307868      -0.00368167
C        2.52751264       9.84738932       3.89555943      -0.00269194      -0.00732804      -0.00345882
C        9.95610628       1.34171074       3.74550241       0.00171072      -0.00022672      -0.00841417
C        8.71256245       3.47133021       3.75087040       0.00056451       0.01121847       0.00648806
C        7.44860444       5.59720329       3.89160953       0.00590137       0.00458744       0.00682256
C        6.19047118       7.72671692       4.04264559       0.00053225      -0.00465976      -0.00110464
C        4.98722504       9.88299799       3.92362316      -0.00187199      -0.00603728       0.00793252
Co       2.08359773       4.05876550       4.78465910      -0.00152776      -0.00012557      -0.00198770
O        2.88836517       5.65146877       5.50259976       0.01256755      -0.00230064      -0.00062688
O        1.03909377       7.34202801       5.60407527      -0.00279805      -0.00137119       0.00872318
H        1.80743071       6.69039753       5.76345193      -0.00219071      -0.00009638      -0.00267599
