52
Lattice="12.336457 0.0 0.0 -6.168228499999997 10.683685154694365 0.0 0.0 0.0 15.0" Properties=species:S:1:pos:R:3:forces:R:3 energy=-454.32678615528033 free_energy=-454.32678615528033 stress="-0.006571253721917734 -0.0006084578995004997 7.683762456447861e-06 -0.0006084578995004997 -0.0002501163053755326 -8.710944873835752e-06 7.683762456447861e-06 -8.710944873835752e-06 8.210757329961484e-07" pbc="T T T"
C        0.04658615       0.03386176       3.75901555      -0.00454969       0.00004746      -0.00834710
C       -1.20238016       2.14559758       3.71024578       0.01053971      -0.00604958      -0.00399033
C       -2.43845534       4.29481491       3.62717105       0.00392152      -0.00097132       0.00002487
C       -3.65374804       6.44529772       3.62438081       0.00461576       0.00004517       0.00055426
C       -4.87618326       8.59392381       3.69533255      -0.00240767       0.00179578       0.00733249
C        2.51799333       0.06054222       3.75710405      -0.00304971       0.00058378       0.00157864
C        1.27579945       2.20829027       3.84099955       0.01036788      -0.00170599      -0.00023972
C        0.00060767       4.27511185       3.79536532      -0.00134984      -0.00553106       0.00667065
C       -1.20395840       6.43966660       3.71612367       0.00036206      -0.00051536      -0.00720080
C       -2.41876475       8.59005306       3.69800395      -0.00086835       0.00144651       0.00753703
C        4.98295371       0.04125035       3.72299019      -0.00120333       0.00783979      -0.00024819
C        3.75150220       2.21133717       3.79973272      -0.00356058      -0.00084740       0.00112951
B        1.31441790       6.38459702       3.96844951      -0.00845198       0.00059623      -0.00072284
C        0.04468114       8.57573715       3.77811845      -0.00230610       0.00091800       0.00520620
C        7.45434298       0.01539664       3.71643850      -0.00199199       0.00116185       0.00811810
C        6.22549142       2.15443723       3.65618956      -0.00363177       0.00440616       0.00122051
C        5.01982180       4.29358027       3.72479399       0.00097308      -0.00319509       0.00933920
C        3.78315130       6.39218897       3.91999016       0.00070079       0.00600629      -0.01461116
C        2.52205239       8.55971514       3.84433278      -0.00554770       0.00411976      -0.00597170
C        9.91662240       0.01066634       3.73711852      -0.00129849      -0.00396594       0.00069363
C        8.68194905       2.14998395       3.63585155       0.00156460      -0.00042071       0.00215432
C        7.45876492       4.30002001       3.59488856       0.00320635       0.00423992      -0.00450150
C        6.23629104       6.45276767       3.66724571       0.00271445      -0.00241895       0.00001323
C        4.98806375       8.55858444       3.77839115      -0.00316167      -0.00367325      -0.00498702
C        0.03737876       1.45686843       3.77219518       0.01299182      -0.00090173      -0.01006061
C       -1.22364667       3.56336421       3.68572482       0.00196089      -0.00623721      -0.00084991
C       -2.43637586       5.72430207       3.64053634       0.00394874      -0.00056572      -0.00452612
C       -3.64999273       7.87593652       3.66447284      -0.00069487       0.00028628       0.00292759
C       -4.88031676      10.01849885       3.74178515      -0.00598043       0.00287375      -0.00131978
C        2.51621082       1.48729724       3.81592303       0.00329923      -0.00305875       0.00614438
C        1.22786829       3.60484290       3.92503822      -0.00116141      -0.00348884       0.00152448
C       -0.00969561       5.69406159       3.80861843      -0.00242480      -0.00411478      -0.00839166
C       -1.19155705       7.86967621       3.73089136      -0.00089503      -0.00005910      -0.00326708
C       -2.42044711      10.01893305       3.72613958      -0.00081443       0.00414220       0.00650250
C        4.98787904       1.46610321       3.71921968      -0.00522253       0.00803645       0.00804677
C        3.80370362       3.61712533       3.87559676       0.00217849      -0.00445291       0.00951882
C        1.28815123       7.87824725       3.86238021      -0.00316196       0.00152286      -0.00610947
C        0.04632780      10.00178459       3.73436028      -0.00201996       0.00250137       0.00080201
C        7.45580161       1.43685116       3.65710385      -0.00314627       0.00121373      -0.00369113
C        6.23906627       3.57569013       3.62657118       0.00315596       0.00288496       0.00810755
C        5.00836840       5.73355432       3.75058409      -0.00024006      -0.00119768      -0.00328814
C        3.74895364       7.80582687       3.85798151      -0.00563697       0.00491238      -0.00462189
C        2.52006894       9.98336061       3.76183655      -0.00311556       0.00103526       0.00535228
C        9.90723439       1.43154160       3.68534373       0.00546546      -0.00352934      -0.00620002
C        8.67783168       3.57946978       3.60076433       0.00248210       0.00268055      -0.00101276
C        7.45738314       5.72970747       3.61231311       0.00472192       0.00200867      -0.00746816
C        6.22891351       7.87337118       3.70942501      -0.00032060      -0.00274928       0.00878759
C        4.98378755       9.98521975       3.75993165      -0.00414798      -0.00506067       0.00173814
Co       2.55367356       4.92178035       4.48269258       0.00692305      -0.00781274       0.00157306
O        2.53474381       5.07649758       6.26611931      -0.00031006       0.00042332      -0.00269888
O        1.93316517       3.89294182       6.92197567       0.00164808      -0.00998057      -0.00104443
H        1.27710984       4.36337219       7.47304354      -0.00507015       0.01477550       0.00277260
