51
Lattice="12.336457 0.0 0.0 -6.168228499999997 10.683685154694365 0.0 0.0 0.0 15.0" Properties=species:S:1:pos:R:3:initial_magmoms:R:1:forces:R:3 energy=-435.2800947141042 free_energy=-435.2800947141042 stress="-0.0049281960720721565 -0.0008885218634703305 -1.228140645265748e-05 -0.0008885218634703305 -0.004893896370216529 -4.541179643353516e-06 -1.228140645265748e-05 -4.541179643353516e-06 -1.1160950391938896e-05" pbc="T T T"
C        0.01105746      -0.01196878       3.82974899       0.00000000       0.00075866      -0.00032713       0.00283841
C       -1.23232861       2.12575645       3.80621894       0.00000000       0.00592265       0.00063958       0.00861845
C       -2.48064644       4.26193334       4.07249380       0.00000000       0.00410351       0.01069906      -0.00522850
C       -3.69662091       6.40400671       4.08138765       0.00000000       0.00284576      -0.00308534      -0.00239002
C       -4.93015748       8.53334716       3.92213849       0.00000000      -0.00682215      -0.01331898       0.00606693
C        2.48038201      -0.02382663       3.79759830       0.00000000       0.00381411       0.00342273       0.00539011
C        1.22776390       2.05423060       3.36661199       0.00000000       0.00252292       0.00328149      -0.00814258
C       -0.11053919       4.30755582       3.65032450       0.00000000       0.01111312      -0.01203492       0.00268476
C       -1.23899121       6.39750450       4.15731069       0.00000000      -0.00268292       0.00567448       0.00682959
C       -2.45435542       8.53485690       4.08135304       0.00000000      -0.00551742      -0.00590925       0.00297104
C        4.94552950      -0.01667045       3.88356962       0.00000000      -0.00080798       0.00149503      -0.00566344
C        3.73245367       2.03131545       3.27486146       0.00000000      -0.01182025       0.00448814      -0.01530592
B        1.27373626       6.36450133       4.33868260       0.00000000      -0.00433734       0.00757500      -0.00162056
C        0.02352760       8.53503439       4.08732180       0.00000000       0.01047957       0.00410654      -0.00028180
C        7.40879742      -0.00602947       3.96633640       0.00000000      -0.00432689      -0.00581756       0.00806797
C        6.18515326       2.11834081       3.70584297       0.00000000      -0.00226155      -0.00455146       0.00721776
C        5.13857325       4.27919299       3.13446765       0.00000000       0.00043506      -0.00161336      -0.00672724
S        3.64539641       6.44919273       2.57116008       0.00000000      -0.00582236      -0.00196564      -0.00788241
C        2.47546596       8.54809761       3.86811714       0.00000000       0.00083753       0.01139759      -0.00858642
C        9.88247038      -0.00598530       3.91518069       0.00000000      -0.01062776      -0.00475214       0.00498771
C        8.64165411       2.12669778       3.97178264       0.00000000       0.00750708       0.00749887       0.00224144
C        7.42213168       4.26517636       3.90291945       0.00000000      -0.00376317       0.01122349      -0.00780728
C        6.21885475       6.41474542       3.64507636       0.00000000       0.01102419      -0.00777944       0.00145653
C        4.94457698       8.53638958       3.72098003       0.00000000      -0.00703192      -0.00278550       0.00114839
C        0.00695730       1.41515131       3.69104741       0.00000000       0.00579995       0.00008426       0.00118538
C       -1.26640995       3.54124942       3.87137835       0.00000000       0.00451738      -0.00067720       0.00194227
C       -2.47521054       5.68605977       4.14398294       0.00000000       0.00156531       0.00930488      -0.01661376
C       -3.69282748       7.82686387       4.04875783       0.00000000      -0.00535711      -0.01505832       0.00187187
C       -4.92417171       9.96075222       3.86951875       0.00000000       0.00524554      -0.00764333       0.00347942
C        2.47808673       1.38375739       3.46606065       0.00000000      -0.00613980       0.00422024      -0.01032250
S        1.09095514       3.62186213       2.60466180       0.00000000       0.00124780      -0.00173416       0.00304497
C       -0.03263613       5.65412045       4.02678830       0.00000000      -0.00868410      -0.00846015       0.01005340
C       -1.22328650       7.82375006       4.15266195       0.00000000       0.00418099       0.00811092       0.00508189
C       -2.45588726       9.95728694       3.93711977       0.00000000       0.00196898      -0.00125544       0.00188091
C        4.95016956       1.40127978       3.62955474       0.00000000      -0.01189513       0.00616272      -0.00666393
S        3.83946065       3.46719379       2.26519826       0.00000000      -0.00060712      -0.00313671       0.01226570
C        1.26036134       7.85738676       4.04777916       0.00000000       0.01046257       0.01035600      -0.00332784
C        0.01074596       9.96624591       3.99356425       0.00000000      -0.00121242       0.00051204       0.00649042
C        7.40267440       1.41895413       3.90885591       0.00000000       0.00665793      -0.00723730      -0.00089553
C        6.22966915       3.53558214       3.61336001       0.00000000       0.00042021      -0.00368731      -0.00860107
C        5.11426503       5.67795344       3.17663539       0.00000000       0.00713079      -0.00466528       0.00594042
C        3.70066673       7.88569488       3.54581802       0.00000000      -0.00469591       0.00187713       0.00012183
C        2.47987551       9.97503264       3.94919447       0.00000000      -0.00919988      -0.00012974      -0.00350416
C        9.88277182       1.41988655       3.93032146       0.00000000       0.00508240      -0.00060371       0.00171288
C        8.63595480       3.54514796       4.02911296       0.00000000       0.00033461       0.01723736      -0.00034975
C        7.42281828       5.68955133       3.91182498       0.00000000       0.00619769       0.00514391       0.00030751
C        6.18440887       7.83071150       3.75167538       0.00000000      -0.00650053      -0.00801515      -0.00868261
C        4.94456421       9.96442413       3.85992769       0.00000000      -0.00935379       0.00218379       0.00649882
Co       2.67410650       4.74704182       3.57371736       0.00000000       0.00042139      -0.00335485      -0.00343085
O        1.76732576       4.81181803       6.01911168       1.00000000       0.00615101      -0.00858022       0.00251722
O        2.35409059       5.80641140       5.16632413       1.00000000       0.00071877       0.00148434       0.00711418
