51
Lattice="12.336457 0.0 0.0 -6.168228499999997 10.683685154694365 0.0 0.0 0.0 15.0" Properties=species:S:1:pos:R:3:initial_magmoms:R:1:forces:R:3 energy=-446.15422926251176 free_energy=-446.15422926251176 stress="-0.004903930112617006 0.0012416807105625684 2.5013791750815962e-06 0.0012416807105625684 -0.003972550867628281 -4.964306832614545e-06 2.5013791750815962e-06 -4.964306832614545e-06 -9.226380881709848e-06" pbc="T T T"
C        0.00734571      -0.03953361       3.70967961       0.00000000      -0.00475469       0.00263156       0.01471261
C       -1.22760564       2.08696130       3.82188617       0.00000000      -0.00135460       0.00810519      -0.00112403
C       -2.46232251       4.22677738       3.81358694       0.00000000       0.00601141      -0.00336879       0.00054988
C       -3.68936915       6.36355137       3.67733740       0.00000000       0.00448160       0.00473548       0.00119580
C       -4.93755243       8.49873090       3.60859594       0.00000000      -0.00229293      -0.00074829       0.00288320
C        2.47220261      -0.03349464       3.69589977       0.00000000       0.01147514       0.00357019      -0.00763850
C        1.24413028       2.11854820       3.82471478       0.00000000       0.00437894       0.01315970       0.01290030
C       -0.01868061       4.22010986       4.07437369       0.00000000      -0.00264004       0.00721463      -0.00448319
C       -1.24038846       6.35994934       4.00731226       0.00000000       0.00150891      -0.00487933       0.00130886
C       -2.46200184       8.50304101       3.78031414       0.00000000       0.00161810      -0.00411880       0.00626907
C        4.94205735      -0.04117745       3.71190606       0.00000000       0.00300534       0.00579666      -0.00439814
C        3.71629848       2.10734671       3.59095875       0.00000000       0.00625181       0.00015398       0.00632353
B        1.14166957       6.46864426       4.72925846       0.00000000      -0.00728456      -0.00407221      -0.00246048
C        0.00957485       8.51490622       3.94272893       0.00000000      -0.00886740       0.00579921      -0.00920266
C        7.40920768      -0.03794392       3.78038999       0.00000000      -0.00041517      -0.00343930      -0.01053451
C        6.19607543       2.07310851       3.59076777       0.00000000      -0.00208076      -0.00769727       0.00206871
C        5.00077587       4.18390486       3.33155456       0.00000000       0.00230205       0.00177219       0.00642031
S        3.48966383       6.28859328       2.80845526       0.00000000       0.00340556       0.00057169       0.00343359
C        2.45650086       8.51874738       3.83838131       0.00000000      -0.00504303       0.00182477      -0.00710807
C        9.88029219      -0.04280147       3.75469046       0.00000000       0.00520288       0.00214748      -0.00071103
C        8.65372670       2.08909977       3.72041729       0.00000000      -0.01000156      -0.01354509      -0.00060603
C        7.43834558       4.22194786       3.55275505       0.00000000       0.00820445      -0.00102537      -0.00371839
C        6.18954206       6.36165238       3.38369747       0.00000000      -0.00212032       0.00078887      -0.00163155
C        4.93084375       8.49657107       3.55791361       0.00000000      -0.00286995      -0.01577917       0.00239970
C        0.00380842       1.38265613       3.79280695       0.00000000      -0.00266849       0.01011627       0.01409370
C       -1.24360493       3.50449312       3.90826661       0.00000000       0.00767988       0.00678859      -0.01411455
C       -2.46956929       5.64945967       3.82804493       0.00000000       0.00595769      -0.00360027      -0.00343906
C       -3.69697009       7.78958546       3.68578487       0.00000000      -0.00011692       0.00283227      -0.00963230
C       -4.92995596       9.92987403       3.67466849       0.00000000       0.00310470       0.00412877      -0.01036093
C        2.47537470       1.39581035       3.70503920       0.00000000       0.00768121       0.01191374      -0.00591690
C        1.20570921       3.50838309       4.00829584       0.00000000      -0.01865555      -0.00119494      -0.00424339
C       -0.05052886       5.63113311       4.22121638       0.00000000       0.00046840      -0.00183580       0.00551797
C       -1.23721499       7.79520697       3.93674532       0.00000000      -0.00533991      -0.00496617       0.01515618
C       -2.46390467       9.93111333       3.72267081       0.00000000       0.01091805      -0.00267138       0.00223252
C        4.95754372       1.37574322       3.61344034       0.00000000       0.00202693       0.00084842      -0.00633386
C        3.77728184       3.50302783       3.47927572       0.00000000      -0.00394041       0.00023488       0.00484652
C        1.23827228       7.85035200       4.06616694       0.00000000      -0.00310515      -0.00176461      -0.00333007
C        0.00559216       9.94014386       3.79560403       0.00000000      -0.00298987       0.01034170       0.00801589
C        7.42430232       1.37556945       3.69552886       0.00000000      -0.00845981      -0.01232747      -0.00399893
C        6.22810687       3.48390287       3.47280178       0.00000000       0.00561759      -0.00523172      -0.00722654
C        5.02297861       5.59549636       3.20705800       0.00000000      -0.00707439       0.00301945      -0.00771485
C        3.67456093       7.84263936       3.53500822       0.00000000      -0.00705056      -0.01013753       0.00961109
C        2.47476004       9.94294711       3.80570614       0.00000000       0.00389135       0.00723705      -0.00129475
C        9.87925756       1.37732937       3.76836149       0.00000000      -0.00346185       0.00118375       0.00590707
C        8.65617743       3.51195043       3.69252021       0.00000000       0.00532510      -0.01061536      -0.00814528
C        7.42903249       5.64667881       3.52810231       0.00000000       0.00102577       0.00506025       0.01274049
C        6.16763836       7.78707470       3.48849349       0.00000000      -0.00353986      -0.00576651      -0.00897151
C        4.94177787       9.92804341       3.69102624       0.00000000      -0.00141134      -0.01188223      -0.00057278
Co       2.57609493       4.74993468       4.16568360       0.00000000       0.00161969       0.00851946       0.00052901
O        2.78273265       5.48490078       5.84984256       1.00000000       0.00443857      -0.00493451       0.00067482
O        1.66157239       6.38830825       6.08682457       1.00000000      -0.00006199       0.00510592       0.00912146
