52
Lattice="12.336457 0.0 0.0 -6.168228499999997 10.683685154694365 0.0 0.0 0.0 15.0" Properties=species:S:1:pos:R:3:forces:R:3 energy=-442.86427893024404 free_energy=-442.86427893024404 stress="-0.003105254797339036 -0.004813767215409493 5.915223643669102e-07 -0.004813767215409493 -0.0029887192049057464 4.772406382807152e-08 5.915223643669102e-07 4.772406382807152e-08 -1.5991131951462892e-05" pbc="T T T"
C       -0.05476222      -0.10151199       3.90655501      -0.00493663      -0.00280581       0.00038805
C       -1.32820696       2.01671557       4.12444621      -0.00274448       0.00286192      -0.00214923
C       -2.55802103       4.16947062       3.92973197       0.00474514       0.00487871       0.00731301
C       -3.73322477       6.31890525       3.69067305       0.00530745       0.00233746      -0.00030613
C       -4.96086636       8.46278954       3.68289730      -0.00050135      -0.00436141      -0.00298007
C        2.42462091      -0.12557294       3.94320440       0.00477345       0.00082421      -0.00158107
C        1.16397172       1.93208925       4.41253841       0.00014923      -0.00671936      -0.00167804
C       -0.21099594       4.18658441       4.55408027      -0.00215781      -0.00845530      -0.00490030
C       -1.30206053       6.30971387       4.01890005      -0.00816683       0.00086386       0.00060980
C       -2.49055575       8.44399538       3.81902899       0.00564868       0.00168504      -0.00425547
C        4.89012573      -0.09378900       3.78762403      -0.00448466      -0.00316828      -0.00541816
C        3.59885005       2.00687799       3.79329820       0.00177069      -0.00115460       0.00034702
B        1.19985720       6.28422820       4.33567466       0.00186836      -0.00285392      -0.00100469
C       -0.01696301       8.43692045       3.89296674      -0.00003872      -0.00001889      -0.00625702
C        7.35174449      -0.09710105       3.71851769       0.00102042      -0.00476004      -0.00370121
C        6.09101482       2.06361309       3.59225050      -0.00332563      -0.00022304       0.00192997
C        4.91625394       4.29243991       3.34614007      -0.00755914       0.00084281      -0.00753264
O        3.78103371       6.41071766       3.46064114       0.00566364       0.00124625       0.00052400
C        2.46036995       8.42896516       3.74145101       0.00759815      -0.00018122      -0.00263050
C        9.81420886      -0.09944062       3.76121801      -0.00102902       0.00580787      -0.00986790
C        8.56159629       2.04161477       3.74999868       0.00916488       0.00362885      -0.00098971
C        7.34364673       4.19580921       3.56272361       0.00761360       0.00142024      -0.00358138
C        6.17636554       6.37447228       3.39141430      -0.00397737      -0.00477223      -0.00471871
C        4.91685848       8.47813350       3.56110730      -0.00651093       0.00147739       0.00364039
C       -0.08032398       1.30088317       4.17541682      -0.00560243      -0.00149813       0.00120322
C       -1.36284698       3.43872974       4.22168890      -0.00762792      -0.00142541       0.00637371
C       -2.52889933       5.59548794       3.87271766      -0.00072115       0.00114937       0.00399868
C       -3.72373672       7.74265427       3.72253975       0.00673711       0.00049251       0.00504131
C       -4.97911925       9.87172266       3.85613101       0.00256829      -0.00216153      -0.00259183
C        2.40466604       1.28274829       4.08667229       0.00414680      -0.00036148       0.00109849
P        1.18986666       3.44418544       5.35242183       0.00452384      -0.00676427      -0.00027502
C       -0.12976946       5.57697221       4.32417544      -0.01324606      -0.00509173       0.00795824
C       -1.25923892       7.72844167       3.90702060      -0.00032256       0.00007307      -0.00061932
C       -2.50085380       9.86575017       3.84363642       0.00064957      -0.00038093       0.00239544
C        4.86053347       1.34451415       3.70418462      -0.00489819      -0.00469964      -0.00190296
P        3.26765867       3.64917827       3.18364392       0.00241420       0.00972192       0.00560275
C        1.23312060       7.73481638       3.96368589       0.00419114       0.00762545      -0.00502499
C       -0.04315491       9.87304959       3.78161473      -0.00445362      -0.00179728      -0.00197144
C        7.32813480       1.33790355       3.66652238       0.00590669       0.00022182       0.00435145
C        6.09931838       3.49856227       3.47494566      -0.00372812       0.00245797      -0.00375753
C        4.97468613       5.69465364       3.30606855      -0.00470737      -0.00232923      -0.00728839
C        3.71298771       7.78486432       3.57469972       0.00141758      -0.00511410      -0.00441190
C        2.42613630       9.86400644       3.71171321       0.00509570      -0.00126379       0.00450021
C        9.79664007       1.32485066       3.87091401       0.00197581       0.00218211       0.00998666
C        8.55947691       3.46789445       3.73703868       0.01002510       0.00482680       0.00607353
C        7.37799903       5.61903559       3.53156414       0.00448316       0.00140931       0.00348689
C        6.15983962       7.78064385       3.51615787      -0.00733491      -0.00275654      -0.00571458
C        4.88944961       9.88814895       3.73631902      -0.00722182       0.00132200       0.00279644
Co       2.64185269       4.95696756       4.84556922      -0.00857411       0.01213870       0.00726003
O        3.87602962       5.36030455       6.05088779       0.00322852       0.00214701       0.00630841
O        3.81255628       6.81611152       6.27580221       0.00150197      -0.00416683       0.01320636
H        3.58495297       6.79835690       7.22930868      -0.00031834       0.00564233      -0.00928385
