51
Lattice="12.336457 0.0 0.0 -6.168228499999997 10.683685154694365 0.0 0.0 0.0 15.0" Properties=species:S:1:pos:R:3:initial_magmoms:R:1:forces:R:3 energy=-441.98342022704 free_energy=-441.98342022704 stress="0.0003950351284044039 0.0024923456337070144 -7.820216598365493e-06 0.0024923456337070144 0.0008542723438005352 1.8505246690024643e-05 -7.820216598365493e-06 1.8505246690024643e-05 -1.3402783973817361e-06" pbc="T T T"
C       -0.01859656       0.01001686       3.68658548       0.00000000      -0.00497516      -0.00323809       0.00444566
C       -1.24408016       2.14840284       3.71546524       0.00000000       0.00475526      -0.00730084       0.00099397
C       -2.47416288       4.28062801       3.65992725       0.00000000      -0.00103516      -0.00355066       0.00042314
C       -3.72272521       6.41227928       3.60900109       0.00000000      -0.00539835      -0.00090506      -0.00962915
C       -4.97787218       8.54351723       3.61191133       0.00000000       0.00002289       0.00082721       0.00141428
C        2.43556165       0.05053289       3.67563679       0.00000000       0.00130274       0.00624383       0.00784340
C        1.18986147       2.17188226       3.77586137       0.00000000       0.00318309      -0.00366254      -0.00337369
C       -0.03161460       4.25417179       3.89885677       0.00000000      -0.00188700       0.00705044      -0.00713187
C       -1.24748560       6.39129320       3.85402980       0.00000000      -0.00659766      -0.00002742       0.01232814
C       -2.50096101       8.55138086       3.74236174       0.00000000       0.00516506      -0.00241896      -0.00557644
C        4.89612990       0.01268598       3.71129642       0.00000000       0.00404607      -0.00397335      -0.00356708
C        3.70730202       2.13706797       3.53858858       0.00000000      -0.00279358       0.00382119       0.00719527
B        1.15083644       6.44310899       4.57153832       0.00000000       0.00239228      -0.00126785      -0.01099813
C       -0.03056446       8.56427405       3.93483798       0.00000000      -0.00372734      -0.00709340      -0.01289927
C        7.37076262       0.01752262       3.77753323       0.00000000       0.00785514      -0.00545392      -0.00539761
C        6.16102518       2.12023034       3.55510716       0.00000000      -0.00489472      -0.00224091      -0.01131816
C        4.98647350       4.19863239       3.35569124       0.00000000       0.00610422       0.00352206       0.00635837
S        3.33714771       6.21315820       3.28252628       0.00000000       0.00454519      -0.00353500      -0.00662639
C        2.41162760       8.58279406       3.89336991       0.00000000      -0.00243797       0.00216860      -0.00209105
C        9.85184754       0.00952853       3.74028566       0.00000000       0.00291683       0.01038631       0.00013867
C        8.62716597       2.14178916       3.64745110       0.00000000      -0.00374252       0.00477730      -0.00429410
C        7.40520526       4.27110837       3.49863908       0.00000000       0.00289221       0.00299740      -0.00165838
C        6.13295538       6.38846345       3.45326320       0.00000000      -0.00424564      -0.00240685      -0.00545313
C        4.88469423       8.52881433       3.62793542       0.00000000       0.00370699       0.00175230       0.00500189
C       -0.00372691       1.45043683       3.73019633       0.00000000       0.00636299      -0.00975590      -0.00691244
C       -1.24137194       3.56288888       3.73332101       0.00000000      -0.00176229      -0.00569354       0.00361257
C       -2.48664296       5.69716236       3.68640742       0.00000000      -0.00527834      -0.00199707       0.00360973
C       -3.73549293       7.83733022       3.64748953       0.00000000       0.00270399      -0.00089350       0.01153095
C       -4.95883952       9.98962762       3.66121232       0.00000000      -0.00046639       0.00431781       0.00206797
C        2.44287897       1.50542208       3.66999545       0.00000000       0.00223455       0.00537657       0.00220488
O        1.16492250       3.54838380       3.96299748       0.00000000      -0.00112765      -0.00345928       0.00027988
C       -0.04745557       5.64873948       4.02173507       0.00000000       0.00244853       0.01020131      -0.00519996
C       -1.27145843       7.83496407       3.86532050       0.00000000      -0.00268425      -0.00631793       0.01268803
C       -2.50919203       9.99376721       3.71292730       0.00000000       0.00183151       0.00027199      -0.00456352
C        4.90520508       1.43673514       3.59223898       0.00000000      -0.00974287       0.00183310       0.00885129
O        3.75998890       3.52101082       3.38183301       0.00000000      -0.00698208       0.00227664       0.00969754
C        1.19329506       7.89817289       4.06716341       0.00000000      -0.00453607       0.00511046       0.00712516
C       -0.03660033       9.99685374       3.80564633       0.00000000       0.00484620      -0.00846386      -0.00028360
C        7.38273553       1.43273091       3.65882526       0.00000000      -0.00130530      -0.00404596      -0.00283223
C        6.18856644       3.52497238       3.43525944       0.00000000       0.00037740       0.00425057      -0.01400213
C        4.95737467       5.60000302       3.36449476       0.00000000      -0.00088534       0.00574598       0.00395455
C        3.62732524       7.87709736       3.67522752       0.00000000       0.00363243       0.00520355       0.00297650
C        2.43893558      10.00493739       3.81822706       0.00000000       0.01009688       0.00258867       0.00930021
C        9.86414095       1.43681452       3.69975479       0.00000000      -0.00218919       0.00876800       0.00358730
C        8.63334097       3.56264134       3.59144973       0.00000000       0.00160711       0.00311616      -0.00110556
C        7.38578874       5.69014412       3.50560962       0.00000000      -0.00715268      -0.00001488      -0.00539951
C        6.12292217       7.82012737       3.55063008       0.00000000      -0.00055727      -0.00432287      -0.00216317
C        4.90940689       9.97307700       3.69555113       0.00000000      -0.00397174       0.00515980       0.00469633
Co       3.17826627       4.90885312       5.30728028       0.00000000       0.00165450      -0.00727625      -0.01547949
O        3.69223433       3.76132206       6.32490606       1.00000000       0.00288752      -0.00705906       0.00639053
O        1.85917689       6.01345190       5.65334581       1.00000000       0.00080497      -0.00139228       0.00923989
