52
Lattice="12.336457 0.0 0.0 -6.168228499999997 10.683685154694365 0.0 0.0 0.0 15.0" Properties=species:S:1:pos:R:3:forces:R:3 energy=-442.7440072427788 free_energy=-442.7440072427788 stress="-0.006606545962054555 0.0052184432900666345 -7.992907127621524e-05 0.0052184432900666345 -0.0010842659276399595 1.0423350475457733e-06 -7.992907127621524e-05 1.0423350475457733e-06 0.00034090341654515003" pbc="T T T"
C       -0.01763180       0.09962306       3.60565113       0.02235667      -0.01296817       0.10043192
C       -1.24491721       2.24534487       3.64875441       0.01065995       0.00078777      -0.01039045
C       -2.52658781       4.36686473       3.83866977       0.04279119       0.04187896      -0.08038791
C       -3.75466361       6.50308279       3.80407054      -0.03489106       0.01810040       0.06422404
C       -4.97379289       8.63885404       3.75921238      -0.03413323      -0.04633849      -0.08853301
C        2.45581468       0.09745976       3.65524323      -0.01889574      -0.00932954      -0.02959548
C        1.24697383       2.22948646       3.54311063      -0.00112950       0.02485401       0.03212728
C       -0.14912293       4.40794085       4.23668481       0.05536703       0.00977252      -0.01285015
C       -1.36026236       6.52702954       4.29825499      -0.01673391       0.02529784      -0.02876928
C       -2.50900486       8.64471451       3.91368148      -0.02246970       0.02356330       0.02350556
C        4.92251334       0.06653641       3.65887095       0.00635951       0.00725974      -0.02751514
C        3.75318168       2.16650283       3.51936449      -0.00663164      -0.00335593       0.01638199
P        1.23079050       6.54521548       5.32041356       0.01162250       0.00449975       0.01313302
C       -0.04728900       8.66242021       4.12642902       0.00412577      -0.01197662       0.01051258
C        7.38707794       0.07568827       3.65534610       0.00016770      -0.00827698       0.00647189
C        6.18328134       2.19077345       3.43125460       0.00511861      -0.00037877       0.02492015
C        4.99544533       4.28928234       3.64967501      -0.00512542      -0.01005051      -0.03868580
B        3.64909793       6.43442848       4.19618155      -0.02256008       0.04792457      -0.06358308
C        2.44064240       8.67308767       4.04538984      -0.01755526       0.00229790       0.03412173
C        9.85639996       0.09306021       3.63826646       0.01497782       0.00267574       0.00018167
C        8.63247950       2.22058102       3.51477456      -0.02439754       0.00410405       0.09619160
C        7.39052468       4.35647084       3.53636053       0.01264834       0.00753275       0.02930029
C        6.12764607       6.47407307       3.74241661      -0.00455633      -0.03401624      -0.01212199
C        4.90000740       8.63230047       3.80998196       0.02085270       0.00898632       0.00614221
C        0.00218642       1.54289481       3.57295228       0.01378433      -0.00188308       0.10379453
C       -1.30136914       3.65168534       3.89432521       0.03399732       0.01275215       0.00331656
C       -2.54687923       5.79260347       3.97468888      -0.01814056       0.02089731      -0.01431440
C       -3.74689117       7.92999619       3.84407473      -0.02523805       0.00933741      -0.09191366
C       -4.95775565      10.06973268       3.67269627      -0.00102606      -0.04694395       0.02656229
C        2.48497284       1.52921378       3.56533728      -0.01707718       0.00713314      -0.02506289
P        1.34276108       4.00396209       3.43091855       0.02587312      -0.02132403      -0.01102789
C       -0.22484243       5.77277442       4.62800962       0.00558477      -0.00246554      -0.01791078
C       -1.30021610       7.94918881       4.15573766      -0.00429120       0.02919583      -0.01602861
C       -2.49192243      10.06405483       3.75055522      -0.00508214       0.00476473      -0.03404491
C        4.95193171       1.48010565       3.47974377      -0.00564677       0.00703648      -0.01333671
O        3.86040364       3.51762089       3.81817434       0.02063445      -0.04156799      -0.01797018
C        1.20038364       8.04617203       4.38013368      -0.01956403      -0.06056916      -0.00908875
C       -0.02079824      10.05288995       3.79167277       0.00256729      -0.00440243      -0.00994420
C        7.40128435       1.49429079       3.48404412      -0.01099574      -0.00467334       0.05066823
C        6.18519967       3.60939264       3.45521480       0.01300591       0.00473621       0.00112980
C        4.92774857       5.69032733       3.84276182      -0.00685890      -0.02037329       0.02878063
C        3.66332199       7.93904538       4.01486599       0.00213951       0.04622497       0.02296256
C        2.45196600      10.07097142       3.75170543      -0.00393309      -0.00501714       0.01337105
C        9.86743038       1.51935003       3.57795227      -0.01337917       0.00162204      -0.02537536
C        8.61595996       3.64718185       3.59118442       0.00936201       0.01836343       0.01124285
C        7.36337525       5.77768179       3.65486895      -0.00382146      -0.00979912       0.05565464
C        6.12851059       7.91137593       3.77213541      -0.02052990      -0.04580149       0.01027372
C        4.91762888      10.06526663       3.67662482       0.02596078       0.00010475       0.01064371
Co       2.60176637       4.95676566       5.01719851      -0.02247981       0.00317916      -0.01132114
O        3.41131373       4.17717742       6.38130015      -0.07665030      -0.01053744      -0.05235014
O        2.92374271       2.78232851       6.45368302      -0.01184891       0.08812213       0.22333779
H        2.52670492       2.84328144       7.35554203       0.11568538      -0.07095611      -0.27726237
