52
Lattice="12.336457 0.0 0.0 -6.168228499999997 10.683685154694365 0.0 0.0 0.0 15.0" Properties=species:S:1:pos:R:3:forces:R:3 energy=-448.5872182581432 free_energy=-448.5872182581432 stress="-0.006183910811848488 -0.00022386046533981284 -3.597308541141318e-06 -0.00022386046533981284 -0.003369205054106815 4.5140224281641265e-05 -3.597308541141318e-06 4.5140224281641265e-05 4.586281281942396e-05" pbc="T T T"
C       -0.01285196       0.03008945       3.84775484      -0.00805573      -0.00460880       0.00550134
C       -1.26250667       2.14253632       3.91925838       0.00306688      -0.00299868       0.00386957
C       -2.49926926       4.28496581       3.95694220       0.00386981       0.00289681      -0.01208442
C       -3.71479390       6.42825496       3.89468235       0.00771044      -0.00036275       0.00804722
C       -4.94812742       8.57156170       3.84429522       0.00129446       0.00548322      -0.00049654
C        2.45289835       0.02591192       3.78031989       0.00121130       0.00023629       0.00207840
C        1.21714742       2.19165266       3.71653804      -0.00092230       0.00016384       0.00200895
C       -0.04969034       4.27276463       3.91987665      -0.00035526       0.00154060      -0.00533777
C       -1.26622759       6.43248002       3.98636561       0.00667907       0.00503867      -0.00407840
C       -2.48761526       8.56822253       3.90486302      -0.00886351      -0.00639108      -0.00072894
C        4.92162370       0.00382455       3.72258762       0.00310285       0.00843140       0.00312015
C        3.68116220       2.06771628       3.27763521       0.00102742       0.00662916      -0.00905717
C        1.18624017       6.39467623       3.78603937      -0.00549940      -0.00968009      -0.00332171
C       -0.01701398       8.54449226       3.86408336      -0.00649410      -0.00356740      -0.00324554
C        7.38059857       0.00511695       3.77758940      -0.00151333       0.00399160       0.00373868
C        6.16083462       2.13478050       3.50789630      -0.00163783       0.00333139       0.00576877
C        5.05237287       4.30462885       3.11142658      -0.00275074      -0.00546055       0.00221862
B        3.69882642       6.44476314       3.37106083      -0.01070060      -0.00333273       0.00000234
C        2.44644041       8.56045689       3.75205179      -0.00040768       0.00324861      -0.01317166
C        9.84754953       0.01214111       3.84661771       0.00190562       0.00098902      -0.00321731
C        8.61102452       2.14469509       3.82018631       0.00171157      -0.00957136       0.00945915
C        7.40644131       4.28594716       3.68942673      -0.00578864      -0.00127415       0.01095328
C        6.18722453       6.43588024       3.61822178       0.00103731       0.00666969      -0.00075037
C        4.93414593       8.58114497       3.73222629       0.00761493       0.00862631       0.00241868
C       -0.02054943       1.45261874       3.85038123      -0.00262402      -0.00883315      -0.00003758
C       -1.28052257       3.55988694       3.97270080       0.00321412      -0.00004886       0.00802043
C       -2.49287422       5.71240588       3.96813715       0.01303548       0.00671046      -0.00326975
C       -3.71624508       7.85607787       3.89633914      -0.00487204      -0.00589991       0.00072442
C       -4.94815403       9.99823878       3.84343526      -0.00351262       0.00129097       0.00188375
C        2.45503734       1.44860760       3.60097281       0.00191437       0.00448632      -0.00136698
C        1.15190703       3.57827929       3.74064681      -0.00128488      -0.00054550      -0.00532678
C       -0.03890758       5.71375393       3.92963229      -0.00419810      -0.00446022      -0.00719781
C       -1.25520528       7.85220925       3.93222475      -0.00683362       0.00133512       0.00038902
C       -2.48449050       9.99074773       3.80931886       0.00328217      -0.00264872       0.00048491
C        4.92899292       1.41858710       3.49744224      -0.00013504       0.01407575       0.00932952
S        3.69635901       3.52872056       2.33273971       0.01279011      -0.00429740       0.00732648
C        1.22430790       7.80912283       3.80162687      -0.00385754      -0.00889621      -0.00683464
C       -0.01465571       9.96851283       3.79449988      -0.00067357       0.00101902      -0.00005174
C        7.37753349       1.43236420       3.71163290      -0.00291487      -0.00114924       0.01178075
C        6.19899219       3.55647368       3.42197122      -0.00372534      -0.00478129       0.00561475
C        5.00406298       5.69816565       3.32969577      -0.00221346      -0.00698300       0.01189311
C        3.68725100       7.90343102       3.63055969       0.00735827       0.00609475      -0.00056501
C        2.44357827       9.98354976       3.81090448       0.00087156       0.00812120       0.00557642
C        9.83925438       1.43120673       3.88564525       0.00662736      -0.00293603      -0.01069088
C        8.61680143       3.56944506       3.84472471      -0.00032343      -0.00432124      -0.00134730
C        7.40652967       5.71263832       3.74805918       0.00235942       0.00607466      -0.00380647
C        6.16330769       7.85922796       3.73908741       0.00489072       0.01126293       0.00216525
C        4.92361205       9.99942529       3.83168346      -0.00465768       0.00376599      -0.01068311
Co       2.41816193       5.01764984       3.39185332      -0.00404973       0.00459085      -0.00166024
O        2.43565928       4.47373849       6.87469765      -0.00306412      -0.00862462      -0.00317430
O        2.68015053       4.65954762       8.19498354      -0.00415863      -0.01818902      -0.00424100
H        3.58217447       5.04260298       8.26775740       0.00951259       0.00375737      -0.00863055
