52
Lattice="12.336457 0.0 0.0 -6.168228499999997 10.683685154694365 0.0 0.0 0.0 15.0" Properties=species:S:1:pos:R:3:forces:R:3 energy=-444.63520154410855 free_energy=-444.63520154410855 stress="-0.006602663897604187 -0.000822185817937733 -2.6790624520061282e-05 -0.000822185817937733 -0.004343554073449406 3.458931030100273e-05 -2.6790624520061282e-05 3.458931030100273e-05 -2.3714525979009577e-05" pbc="T T T"
C       -0.00270114      -0.01347809       3.66580671       0.00298170       0.00103977       0.00573525
C       -1.25129152       2.11474830       3.78751507      -0.00791573      -0.00249051       0.00462174
C       -2.48755635       4.26312965       3.52470897       0.00328786       0.00153853       0.00478037
C       -3.70030933       6.40860837       3.38222969       0.00106537       0.00251128      -0.00558261
C       -4.92464716       8.55431698       3.44904223      -0.00515584       0.00471228       0.00324715
C        2.46801114      -0.00934777       3.73804294       0.00361320      -0.00169143      -0.00025121
C        1.20659988       2.03772592       4.25104737      -0.00212738      -0.00520570       0.00273433
C       -0.11307760       4.28680288       4.03593202      -0.00206309      -0.00283539       0.01204634
C       -1.25255973       6.40889306       3.52260763       0.00495742       0.00265073      -0.00653628
C       -2.46700116       8.55016338       3.46738724      -0.00011978       0.00415690      -0.00085194
C        4.93088206      -0.00046289       3.66793329      -0.00621129       0.00770524      -0.00144239
C        3.71872498       2.05599816       4.24858442      -0.00056584      -0.00630119       0.00946451
B        1.26261158       6.40255344       3.78363244      -0.00459629       0.00075540       0.00789936
C       -0.01025678       8.55537368       3.54789706      -0.00087790      -0.00310744      -0.01429780
C        7.40052970      -0.00223150       3.58085979      -0.01066031      -0.00545133      -0.00178697
C        6.17098270       2.12960461       3.76983970       0.00169780      -0.00184654      -0.00583989
C        5.01996017       4.31331949       4.00008476       0.00092465       0.01002519       0.00783873
C        3.74390482       6.40388965       3.78145938       0.00339174      -0.00318587      -0.01317325
C        2.47349268       8.54963040       3.59961284       0.00168588       0.00254393      -0.00879497
C        9.86937408      -0.01024365       3.58271312       0.00349345       0.00649688      -0.00329315
C        8.63091694       2.12719284       3.56263975      -0.00426029       0.00046763       0.00428407
C        7.40476329       4.27028087       3.50368950      -0.00280919      -0.00626080      -0.00212388
C        6.19139659       6.42239363       3.48343189       0.00600989       0.00115613       0.00734381
C        4.94127165       8.53514644       3.53046494      -0.00218045      -0.00290942       0.00673732
C       -0.01279230       1.39720617       3.90036245      -0.00362492      -0.00033948      -0.00243082
C       -1.28138809       3.53880936       3.77560333       0.00148543      -0.00474944      -0.00449785
C       -2.48168300       5.68951127       3.44592326       0.00533991       0.00334046      -0.00945334
C       -3.69756156       7.83738164       3.40604940      -0.00272454       0.00534572      -0.00025294
C       -4.92964937       9.97061214       3.59944660       0.00451804       0.00255506      -0.00351200
C        2.46575412       1.38481731       4.10655392      -0.00196634      -0.00545963      -0.00637993
P        1.04177582       3.55724543       5.19852029       0.00378585       0.00278813       0.00128623
C       -0.06436672       5.67760506       3.76679757       0.00031775      -0.00256835       0.00867359
C       -1.23879027       7.83567611       3.49230147       0.00102719       0.00312441      -0.00957200
C       -2.47063866       9.97205017       3.60550469       0.00181151       0.00289213       0.00380158
C        4.93622439       1.41339012       3.89203308       0.00018091       0.00491157       0.00411101
P        3.91258642       3.57777936       5.20070632       0.00705072       0.00167382       0.00063442
C        1.23778669       7.87649483       3.61559473       0.00275232      -0.00080385      -0.00077489
C       -0.00666897       9.97818813       3.57347334      -0.01419264      -0.00469597       0.00543915
C        7.39525613       1.42172976       3.61411088      -0.00080590      -0.00676281      -0.00415936
C        6.18803535       3.55846455       3.74061571      -0.00348123      -0.00117663       0.01124899
C        4.97030384       5.72606633       3.74170550       0.00739427       0.00742362       0.00557662
C        3.69958346       7.79787902       3.62508227      -0.00155069      -0.00420839       0.00387333
C        2.47001362       9.97062520       3.56423069       0.00025764       0.00523562      -0.00491507
C        9.86553064       1.41265975       3.62033125      -0.00643699       0.00617114      -0.00605777
C        8.62593573       3.55107960       3.49577868       0.00160133      -0.00030503      -0.00514865
C        7.40814435       5.69586451       3.42535535       0.00046597      -0.00534872      -0.00263887
C        6.17949334       7.84088613       3.45643711      -0.00308211       0.00028557      -0.00028628
C        4.93514069       9.95636359       3.57126436       0.00266845       0.00046323       0.00229249
Co       2.45236694       4.92256045       4.28251164       0.00554979      -0.00056901      -0.00549732
O        2.42381762       5.21696384       7.59574058       0.00497826      -0.00579225       0.00326149
O        2.42692458       4.78292621       8.89054925       0.00276629      -0.00681656      -0.00017535
H        3.34503876       4.92036143       9.21567370       0.00034815      -0.00108867       0.00279485
