51
Lattice="12.336457 0.0 0.0 -6.168228499999997 10.683685154694365 0.0 0.0 0.0 15.0" Properties=species:S:1:pos:R:3:initial_magmoms:R:1:forces:R:3 energy=-441.8250259469546 free_energy=-441.8250259469546 stress="-0.0005783346189260248 0.00606455154707915 2.534452156376722e-05 0.00606455154707915 0.0012897573358911277 5.857456167944219e-06 2.534452156376722e-05 5.857456167944219e-06 7.176597906091268e-06" pbc="T T T"
C        0.01374578       0.02934088       3.70366975       0.00000000       0.00262656      -0.00491716      -0.00230566
C       -1.18622842       2.18813594       3.48690722       0.00000000       0.00067245       0.00619818      -0.00226635
C       -2.46272956       4.31821944       3.49809400       0.00000000      -0.00016734       0.00314450      -0.00532082
C       -3.72768030       6.43670187       3.68524337       0.00000000       0.00278653      -0.00537985      -0.00234421
C       -4.96162431       8.55994138       3.82276239       0.00000000      -0.00026310      -0.00401537      -0.00513906
C        2.48076304       0.02976069       3.82126754       0.00000000      -0.00411165       0.00306927       0.00188733
C        1.30407500       2.13869941       3.55735448       0.00000000       0.00417795      -0.00174506      -0.00003900
C       -0.06136373       4.42647468       3.24539753       0.00000000       0.00421116      -0.00478581      -0.00343826
C       -1.28462424       6.48555034       3.45564200       0.00000000       0.00299585       0.00450612       0.00730999
C       -2.48636498       8.57748369       3.71087606       0.00000000      -0.00662431       0.00054493       0.00037561
C        4.95043010       0.00968364       3.74038948       0.00000000      -0.00163282      -0.00199825       0.00129973
C        3.78306194       2.12351056       3.92573585       0.00000000       0.00205952       0.00166717      -0.00178901
O        1.13881507       6.50666438       3.26128741       0.00000000      -0.00780431      -0.00434276       0.00236294
C       -0.00819062       8.56467781       3.59289934       0.00000000       0.01140110      -0.00057527      -0.00308335
C        7.42746108       0.00323830       3.62090845       0.00000000       0.00424180      -0.00062748       0.00161980
C        6.21616958       2.13797786       3.75422914       0.00000000       0.00807341       0.00087678       0.00319695
C        5.01824854       4.23711305       4.05155400       0.00000000      -0.00158369      -0.00557789       0.00045329
B        3.67316595       6.39998638       4.44575606       0.00000000      -0.00724950       0.00778042      -0.00871038
C        2.45626160       8.52343930       3.67156587       0.00000000      -0.00377606      -0.00180504       0.00281104
C        9.88866475       0.01777368       3.61466885       0.00000000      -0.00372981      -0.00385146      -0.00243687
C        8.67385531       2.15814133       3.58374118       0.00000000       0.00040410       0.00336834      -0.00152223
C        7.42331227       4.28626344       3.72261482       0.00000000       0.00576329       0.00686116      -0.00751888
C        6.14253754       6.38730150       3.92385470       0.00000000      -0.00104897       0.00018055      -0.00522495
C        4.89955140       8.55218965       3.85085616       0.00000000      -0.00407955      -0.00128654      -0.00024185
C        0.05059435       1.47496182       3.56733471       0.00000000       0.00491422       0.00125258       0.00084721
C       -1.21135330       3.62531710       3.39611189       0.00000000      -0.00258744       0.00590457      -0.00562806
C       -2.49619305       5.73643035       3.53493923       0.00000000       0.00399023      -0.00024954       0.01074522
C       -3.72722853       7.85952272       3.74944300       0.00000000      -0.00306084      -0.00750146      -0.00549357
C       -4.93551407       9.99604820       3.79575052       0.00000000       0.00170466      -0.00287526       0.00324772
C        2.52261603       1.46321003       3.81718144       0.00000000       0.00394604      -0.00250084       0.00198892
S        1.53058759       3.81229588       3.13009267       0.00000000      -0.00300893       0.00681959      -0.00891040
C       -0.07753473       5.83012043       3.28706789       0.00000000      -0.00159794      -0.00102774       0.00029961
C       -1.26518033       7.88783098       3.58516036       0.00000000       0.00340599       0.00764390       0.00584690
C       -2.46363965      10.00061396       3.78123137       0.00000000      -0.00899428       0.00230068       0.00096846
C        4.97441487       1.43592553       3.80245140       0.00000000       0.00372183      -0.00003325       0.00869698
O        3.87073653       3.46887718       4.29730803       0.00000000      -0.00716452       0.00159264      -0.00281633
C        1.18843157       7.85436892       3.53555606       0.00000000       0.00429940      -0.01087377      -0.00809763
C        0.01749847       9.98706448       3.65772260       0.00000000       0.00540578      -0.00010300       0.00057269
C        7.43709770       1.43712046       3.64566479       0.00000000       0.00549318      -0.00189353      -0.00419250
C        6.20943440       3.55106022       3.82322701       0.00000000       0.00697284       0.00333187       0.00276470
C        4.95567158       5.62842573       4.09379853       0.00000000       0.00074956      -0.00515934      -0.00131853
C        3.66731808       7.85547895       3.91850739       0.00000000      -0.00761838       0.00509860      -0.00161063
C        2.48145697       9.96597777       3.60979850       0.00000000      -0.00085574      -0.00451584       0.01294558
C        9.91686414       1.45909057       3.54858997       0.00000000      -0.00362974       0.00171874       0.00355108
C        8.65838735       3.58307689       3.59402997       0.00000000       0.00312952       0.00431546      -0.00094822
C        7.39022473       5.70392207       3.77209860       0.00000000       0.00238867       0.00386925       0.00213766
C        6.14014563       7.83157572       3.88939218       0.00000000      -0.00136261       0.00103048       0.00690020
C        4.94175353       9.99380322       3.70899087       0.00000000      -0.00242962      -0.00444460       0.00542321
Co       2.11913635       4.31299876       5.50663460       0.00000000      -0.01177166       0.00326230      -0.00310921
O        1.76537263       3.15877704       6.59914155       1.00000000      -0.00903635      -0.00904711      -0.01119415
O        2.75756942       5.96858950       5.32691447       1.00000000       0.00565351       0.00479516       0.01644727
