51
Lattice="12.336457 0.0 0.0 -6.168228499999997 10.683685154694365 0.0 0.0 0.0 15.0" Properties=species:S:1:pos:R:3:initial_magmoms:R:1:forces:R:3 energy=-451.7213414184044 free_energy=-451.7213414184044 stress="-0.002883857237855075 0.0007079007247042499 -5.1444735784972925e-05 0.0007079007247042499 -0.004981138754602364 -8.948035185927403e-05 -5.1444735784972925e-05 -8.948035185927403e-05 -3.5771680188765e-05" pbc="T T T"
C        0.02984338       0.01556660       3.64539424       0.00000000      -0.01313998       0.00001261      -0.00546162
C       -1.21429959       2.15685609       3.70191277       0.00000000       0.00560123       0.00714734      -0.01094935
C       -2.46085910       4.29693221       3.53948255       0.00000000       0.03061279      -0.00508797       0.00777898
C       -3.68871691       6.42976768       3.52241607       0.00000000       0.01090324       0.00104864       0.00307088
C       -4.91720362       8.55958951       3.60070917       0.00000000      -0.00816373      -0.01401625      -0.00414563
C        2.49420411       0.02907185       3.70392994       0.00000000       0.00178171      -0.00722933       0.00047542
C        1.24929661       2.09834410       4.05391598       0.00000000       0.00028997       0.04405995       0.00425116
C       -0.07161251       4.29744615       4.07230402       0.00000000       0.01908441      -0.00836878       0.02881082
C       -1.21945440       6.41964250       3.70121344       0.00000000       0.00890115      -0.01114142       0.01472929
C       -2.44500321       8.56403218       3.58376890       0.00000000      -0.00127195      -0.00011845      -0.00302936
C        4.95511933       0.02399113       3.58287640       0.00000000       0.00123543      -0.00103167      -0.03214457
C        3.77129869       2.16074462       3.93060987       0.00000000      -0.00116910       0.01161358      -0.02698220
B        1.26461554       6.46299351       4.10749781       0.00000000       0.00589881      -0.01662347       0.01269519
C        0.02500753       8.57855413       3.62604769       0.00000000      -0.00451277      -0.00115132       0.01882570
C        7.42430810       0.03020199       3.47481515       0.00000000      -0.01397785       0.00229449      -0.00850216
C        6.19400101       2.15077148       3.52386417       0.00000000      -0.00769938      -0.01226531      -0.01900377
C        4.99027134       4.23723879       3.86119386       0.00000000      -0.00524386       0.00815701      -0.00832658
B        3.70745759       6.44403396       4.06436254       0.00000000      -0.05223885      -0.01061862      -0.01072946
C        2.49098877       8.60186056       3.66353913       0.00000000      -0.00703814       0.01213305       0.01830360
C        9.90171867       0.03397516       3.53240484       0.00000000      -0.00813017      -0.00339806      -0.02641457
C        8.66365249       2.16033813       3.43023787       0.00000000      -0.00663358       0.00815197       0.02904951
C        7.42017786       4.28957637       3.46986069       0.00000000       0.00657521       0.00639253       0.02522506
C        6.17640245       6.40535560       3.67756655       0.00000000       0.01240114       0.00180723      -0.00275957
C        4.95512792       8.57718577       3.67486317       0.00000000      -0.00227401      -0.00604744      -0.04399209
C        0.03179799       1.43743083       3.78605801       0.00000000      -0.01182755      -0.01612254      -0.01081397
C       -1.24015858       3.58473239       3.75556302       0.00000000      -0.00198901      -0.00549022      -0.01473433
C       -2.45640617       5.71836540       3.55807555       0.00000000       0.00803499      -0.00594010       0.01993404
C       -3.68216602       7.85259058       3.56227544       0.00000000       0.00289568      -0.00236608       0.00925476
C       -4.90580470       9.99094288       3.64350145       0.00000000      -0.01181331      -0.00967878       0.01160943
C        2.49232986       1.46125956       3.91640664       0.00000000       0.02653775      -0.03311350      -0.00141563
B        0.95598352       3.40187506       4.81200265       0.00000000       0.01527405       0.04969197       0.03121541
C       -0.02484609       5.67647734       3.95989681       0.00000000       0.02150187       0.01509720       0.01574482
C       -1.21325309       7.85036499       3.63524354       0.00000000      -0.00145592      -0.00757812      -0.01135255
C       -2.44728258       9.99453498       3.61988970       0.00000000       0.00244318       0.00020036      -0.00672939
C        4.96358105       1.44711793       3.64045196       0.00000000      -0.00515086      -0.00043307      -0.00105621
N        3.88739351       3.49402048       4.22530646       0.00000000      -0.00760974       0.02650140      -0.01623932
C        1.25763557       7.91141612       3.74859642       0.00000000       0.00201796       0.00769026       0.03665558
C        0.02087514      10.00412488       3.52874400       0.00000000      -0.00717557       0.00043312       0.00412470
C        7.42793729       1.44959973       3.43315043       0.00000000      -0.00664558       0.00306101       0.01542670
C        6.19893016       3.56193104       3.56259983       0.00000000       0.00640881      -0.01020517       0.01352474
C        4.97541956       5.66106493       3.86752444       0.00000000      -0.00236051      -0.00198810      -0.00789564
C        3.72008619       7.91260000       3.76715243       0.00000000      -0.00704937       0.00621144      -0.03238874
C        2.49533268      10.01675373       3.51868400       0.00000000      -0.01342003       0.01175613      -0.00163968
C        9.90269886       1.45607830       3.51800436       0.00000000      -0.00357066      -0.00503450      -0.00635591
C        8.65516249       3.58058377       3.43325060       0.00000000       0.00539115       0.00854815       0.03186413
C        7.41832429       5.71019188       3.53391637       0.00000000       0.01238044       0.00334735       0.00513747
C        6.18571110       7.84483356       3.65653130       0.00000000      -0.00172750      -0.00850668       0.00604134
C        4.96389080      10.00466945       3.60131007       0.00000000      -0.00844301      -0.00695952      -0.04445530
Co       2.86306529       4.25494683       5.65563459       0.00000000      -0.00599014       0.00083404       0.02498914
O        1.21364879       3.56283076       6.12414777       1.00000000       0.05118106       0.08150020       0.02068473
O        2.48750359       5.92494982       4.56759449       1.00000000      -0.02962992      -0.10717655      -0.05190501
