52
Lattice="12.336457 0.0 0.0 -6.168228499999997 10.683685154694365 0.0 0.0 0.0 15.0" Properties=species:S:1:pos:R:3:forces:R:3 energy=-443.5993906496737 free_energy=-443.5993906496737 stress="-0.0003135292327322065 0.0014945015859514478 6.916510193643863e-06 0.0014945015859514478 0.0002782824310634857 -1.5255282365274524e-05 6.916510193643863e-06 -1.5255282365274524e-05 2.355540063542351e-05" pbc="T T T"
C        0.02555521       0.00596065       3.81232292      -0.00190014      -0.01547067      -0.00209462
C       -1.20749378       2.13521015       3.85134453      -0.00299832       0.00026989       0.00653918
C       -2.43861041       4.27298626       3.84207460       0.00029405       0.00560755       0.00439701
C       -3.68339082       6.40962728       3.79329485      -0.00298325       0.00330853      -0.00375730
C       -4.92596670       8.54587219       3.75837772       0.00212773      -0.00384511       0.00001277
C        2.48244631       0.05111234       3.79886682      -0.00187124      -0.00658998      -0.00020947
C        1.23052047       2.16543811       3.82052671      -0.00914712      -0.00556495       0.00433551
C        0.01503773       4.22216144       3.90955559       0.00383263       0.00417865       0.00608510
C       -1.20606372       6.39247158       3.92496909      -0.00072935       0.00853397       0.00198628
C       -2.45699472       8.55050369       3.85908851      -0.00558544      -0.00690946       0.00121648
C        4.93821909       0.01300015       3.83129164       0.00113216      -0.00708837       0.00862397
C        3.75115303       2.15034556       3.67670747      -0.00131428       0.00242761       0.01302101
B        1.27135718       6.41499840       4.15370907      -0.00739518      -0.00219671      -0.00160061
C        0.00045939       8.56123685       3.93920196       0.00245854       0.00600478       0.00574838
C        7.41159719       0.01119222       3.86679569       0.00947476       0.00071445      -0.00780958
C        6.19427591       2.12567643       3.73752354       0.00766576       0.00280153       0.00030750
C        5.00658142       4.19690952       3.46016863      -0.00361653       0.00091271      -0.00518388
S        3.60195147       6.41871109       2.57659509      -0.00254814       0.00888200       0.00019629
C        2.46718816       8.58523738       3.84465346      -0.00091855       0.00036748      -0.00363795
C        9.89514460       0.00743384       3.83956436       0.00295986      -0.00377408       0.00348429
C        8.66267558       2.13815316       3.82184787       0.00614068      -0.00553430      -0.00132640
C        7.43607445       4.26781241       3.71458829       0.00335787       0.00228068       0.00813731
C        6.17741435       6.38906461       3.60140969       0.00011716       0.00155299      -0.00167188
C        4.94694762       8.53375870       3.71543397       0.00449526      -0.00097927       0.00018232
C        0.03388826       1.44083893       3.83632939      -0.00863859      -0.01163619      -0.00641996
C       -1.20751045       3.54599958       3.86578350       0.00292520       0.00499713       0.01024573
C       -2.44765442       5.69394405       3.85363901      -0.00147403       0.00861840      -0.00082808
C       -3.68921624       7.83573679       3.80319359      -0.00400333      -0.00386132      -0.00010741
C       -4.91238338       9.98827249       3.79297682       0.00120248      -0.00961025      -0.00647857
C        2.48735641       1.49854762       3.76630735      -0.00533115      -0.00041275      -0.00270907
O        1.21079351       3.53601602       3.91756015       0.00423879       0.00135049       0.01416720
C        0.01331548       5.63324754       3.98931853      -0.00152375       0.00385941       0.00572452
C       -1.22194510       7.82747399       3.92294599       0.00102469       0.00643962      -0.01437787
C       -2.46307866       9.99169039       3.83192929      -0.00284330      -0.01049099      -0.00712225
C        4.94526759       1.43925662       3.75063938       0.00322265      -0.00112064       0.00083152
O        3.80639892       3.51011624       3.48561908      -0.01161087       0.00756170      -0.00419255
C        1.24759401       7.89205643       3.96679007      -0.00167119       0.00061086       0.00216460
C        0.00377952       9.98905908       3.88275888       0.00826492       0.00292503      -0.00212758
C        7.41913309       1.42914992       3.81543532       0.00788901       0.00052900       0.00556314
C        6.21203983       3.53270929       3.63727752      -0.00061069       0.00510142       0.00881807
C        4.97759380       5.62668716       3.41374335      -0.00296339      -0.00368011      -0.00027100
C        3.68681246       7.84427540       3.65539695       0.00420599       0.00400133      -0.00680164
C        2.48567520       9.99979979       3.85975815       0.00451061      -0.00186877      -0.00309304
C        9.90056251       1.42998974       3.84449114       0.00273440      -0.00514547       0.00273524
C        8.66619390       3.56018031       3.79838296       0.00460531      -0.00307833      -0.00902959
C        7.41867894       5.68977023       3.70625686      -0.00110297       0.00418089       0.00123706
C        6.17107727       7.81951719       3.67209324       0.00361351      -0.00034575       0.01163234
C        4.95476058       9.96468956       3.80722969      -0.00075570      -0.00723536      -0.00859659
Co       3.09553075       5.86419811       4.63748037      -0.00048216       0.00862432      -0.00987054
O        3.06553625       4.58869333       5.92680522      -0.00194129      -0.00031575      -0.01027251
O        1.71443477       4.38573358       6.40446093      -0.00820225      -0.00052702      -0.01012101
H        1.79034020       4.80262296       7.28936222       0.00166817       0.01063919       0.00231815
