51
Lattice="12.336457 0.0 0.0 -6.168228499999997 10.683685154694365 0.0 0.0 0.0 15.0" Properties=species:S:1:pos:R:3:initial_magmoms:R:1:forces:R:3 energy=-445.22758181143536 free_energy=-445.22758181143536 stress="-0.006370182511284149 0.001385540619823156 -1.3076164762433858e-05 0.001385540619823156 -0.0027368713966866146 5.796504898423855e-06 -1.3076164762433858e-05 5.796504898423855e-06 -3.857668689195878e-06" pbc="T T T"
C        0.05844262       0.14449781       3.67415790       0.00000000      -0.00152008      -0.00270506      -0.00439146
C       -1.16943608       2.27415121       3.50029915       0.00000000      -0.00510625      -0.00193149       0.00658895
C       -2.41372878       4.41979162       3.70152828       0.00000000       0.00012998       0.00257307      -0.00892581
C       -3.64573416       6.55900226       3.87609727       0.00000000       0.00220681      -0.00145198      -0.00880140
C       -4.88012353       8.69978015       3.85813584       0.00000000       0.00325854       0.00196692      -0.00176771
C        2.51792597       0.15836243       3.73259430       0.00000000       0.00677338       0.00058616       0.00274827
C        1.29944474       2.21072049       3.26111459       0.00000000       0.00056969      -0.01468153      -0.00074130
C       -0.03803275       4.46051970       3.20601571       0.00000000      -0.00500552       0.00175012      -0.00001120
C       -1.21628140       6.57947098       3.65843829       0.00000000      -0.00831610       0.00425463       0.00241433
C       -2.42348472       8.70851772       3.81956424       0.00000000       0.00636966      -0.00300485       0.00684242
C        4.99158964       0.15193159       3.80007894       0.00000000      -0.00684734       0.00298225      -0.00392452
C        3.75641691       2.31992173       3.70139451       0.00000000       0.00623879      -0.00205939      -0.00257174
C        1.23393126       6.55021863       3.53406818       0.00000000      -0.00045637      -0.00307576      -0.00787169
C        0.04371806       8.69004046       3.74729189       0.00000000       0.00477642      -0.00009576       0.00792783
C        7.46387875       0.13440371       3.79504760       0.00000000      -0.00142021      -0.00099998      -0.00656671
C        6.24488205       2.26020545       3.86186998       0.00000000       0.00305955       0.00346572       0.00180132
C        5.03899272       4.38205382       3.93318198       0.00000000      -0.00153058      -0.00765638       0.00099277
B        3.73055805       6.51652858       3.92131610       0.00000000      -0.00916237      -0.00664098      -0.00209560
C        2.51890350       8.68504300       3.78795438       0.00000000       0.00717296       0.00628405      -0.00270834
C        9.93087598       0.13827594       3.73521589       0.00000000       0.00177092       0.00610791      -0.00094231
C        8.70707451       2.27088576       3.77136152       0.00000000      -0.00097352       0.00789077       0.00459616
C        7.48636305       4.40691151       3.91731419       0.00000000      -0.00256214       0.00444057       0.00718610
C        6.24497893       6.55230105       3.97530045       0.00000000      -0.00366886      -0.00124668      -0.00520466
C        4.99772656       8.69365508       3.86081098       0.00000000      -0.00770832       0.00099107       0.00025674
C        0.05659667       1.55934138       3.47356328       0.00000000      -0.00643743      -0.00361524      -0.00132997
C       -1.19185452       3.70493838       3.46817458       0.00000000      -0.00319644      -0.00233686       0.00031431
C       -2.42348111       5.84677166       3.75403710       0.00000000      -0.00100793      -0.00153514       0.00429721
C       -3.64912125       7.98747989       3.86528755       0.00000000       0.00519194      -0.00092925      -0.00401838
C       -4.87884444      10.12328942       3.75443326       0.00000000       0.00270459       0.00573107       0.00772138
C        2.51732865       1.58028789       3.57277684       0.00000000       0.00952176      -0.00175597       0.00016082
S        1.27725241       3.68793875       2.34135536       0.00000000       0.00362589       0.00102068      -0.00853173
C        0.00754833       5.87171511       3.43661266       0.00000000      -0.01005726       0.00431067       0.00367131
C       -1.19460527       7.99603587       3.75370712       0.00000000       0.00327696       0.00018525       0.00426950
C       -2.41782840      10.13047084       3.79650465       0.00000000      -0.00149686      -0.00358883       0.00192641
C        4.99894926       1.57433952       3.80216808       0.00000000       0.00513726       0.00126371      -0.00141098
C        3.80816456       3.70762127       3.77891242       0.00000000      -0.00374089      -0.00556184      -0.00038126
C        1.28516042       7.94531770       3.70506051       0.00000000       0.00928119       0.00332585       0.00123818
C        0.05544539      10.11095508       3.79436286       0.00000000      -0.00706217       0.00062518      -0.00058845
C        7.47739872       1.55237389       3.82039487       0.00000000       0.00188130       0.00230985       0.00064252
C        6.27028489       3.67387771       3.93320838       0.00000000      -0.00191771       0.00215097       0.00662295
C        5.04958578       5.80228808       3.97839444       0.00000000      -0.00200693      -0.00983349       0.00165431
C        3.74993513       8.00674797       3.87204013       0.00000000      -0.00411022      -0.00661088       0.00274501
C        2.52624506      10.11019522       3.77998798       0.00000000       0.00493254       0.00602666      -0.01179194
C        9.94182820       1.56619307       3.66844273       0.00000000      -0.00382140       0.00265937       0.00770647
C        8.70954997       3.69665263       3.81221631       0.00000000      -0.00119010       0.00850916       0.00092570
C        7.47829378       5.83587835       3.94158350       0.00000000       0.00264429       0.00249235      -0.00173433
C        6.22986383       7.98043591       3.91002719       0.00000000      -0.00404074       0.00243150       0.00135979
C        4.99763337      10.11664192       3.75689070       0.00000000      -0.00201864      -0.00020821      -0.00011883
Co       2.49309407       5.10268492       3.54506054       0.00000000       0.00562927       0.00043808       0.00162535
O        0.95958656       0.75914421       6.41561013       1.00000000       0.01129107      -0.01099841       0.00868257
O        1.08943951       1.97289739       6.28227677       1.00000000      -0.00106235       0.00575035      -0.01048839
