52
Lattice="12.336457 0.0 0.0 -6.168228499999997 10.683685154694365 0.0 0.0 0.0 15.0" Properties=species:S:1:pos:R:3:forces:R:3 energy=-442.46563247273406 free_energy=-442.46563247273406 stress="-0.003286875479474582 0.001250000588037134 -2.0136591760769416e-05 0.001250000588037134 -0.00905047087003415 2.7014019264149208e-05 -2.0136591760769416e-05 2.7014019264149208e-05 8.51940239613233e-06" pbc="T T T"
C       -0.00405227       0.07082683       3.72264170       0.00498446       0.00330242       0.00449467
C       -1.22963220       2.21619541       3.57872781      -0.00501587       0.00201833       0.00982373
C       -2.47029378       4.35354902       3.65668540      -0.00061334       0.00081975       0.00762445
C       -3.69733288       6.48184618       3.77087544       0.00024972       0.00595565       0.00189151
C       -4.94711544       8.60540484       3.76363030       0.00317331       0.00367484       0.00295033
C        2.46094341       0.03622822       3.87731114       0.00667796       0.00497107       0.00131991
C        1.26471076       2.17960400       3.58940480      -0.01156854      -0.00746145      -0.00553229
C       -0.06815750       4.35718172       3.15593117       0.01280507      -0.01181319       0.00048288
C       -1.24187195       6.50002018       3.53319898      -0.00359563       0.00785344       0.00097348
C       -2.47016522       8.61467834       3.78791919       0.00137266      -0.00827055       0.00009354
C        4.92842727       0.07303955       4.03454245      -0.01014716      -0.00398716      -0.01503960
C        3.65563535       2.09538633       4.36233360       0.00470311      -0.00193585       0.00150213
B        1.31272050       6.52494277       3.44738054      -0.00545807       0.00992919       0.01214119
C       -0.02064593       8.66067867       3.73349528      -0.00345824       0.01088630      -0.00726115
C        7.39014043       0.11397192       3.94131798      -0.00070293      -0.00221311      -0.00587776
C        6.17629542       2.21430052       4.27719700       0.00332705       0.01164573      -0.00241796
C        5.06062136       4.41072731       4.57783950      -0.01083889      -0.00444863      -0.00604538
P        3.37375984       6.25061125       3.60632790       0.00312472      -0.01074512      -0.00955769
C        2.44910946       8.71236405       3.69614884      -0.00414482       0.00479574      -0.00898870
C        9.87401047       0.10708471       3.78454433       0.00887528       0.00469560      -0.00218919
C        8.64260782       2.22843699       3.91925955       0.00185167      -0.00782762       0.00606243
C        7.42973357       4.35357525       4.06563685       0.00469033       0.00762569       0.00498613
C        6.17997228       6.48346146       3.89803489       0.00032986      -0.00968686       0.00679363
C        4.92309022       8.62360221       3.71944399      -0.00315562      -0.00226907      -0.00402232
C        0.00447377       1.49831866       3.60890542      -0.00961545      -0.00259230      -0.00129501
C       -1.25954828       3.62631572       3.44717217       0.00174370      -0.00234718       0.00643034
C       -2.46845411       5.77619852       3.64874762      -0.00345796       0.00611659       0.01001312
C       -3.70644745       7.90249217       3.76566823       0.00150779       0.00017387      -0.00354792
C       -4.94358676      10.02533111       3.77279617       0.01040294       0.00703154      -0.01070804
C        2.46986659       1.45903661       3.94683866      -0.00102425       0.00728584       0.00082961
P        1.33001006       3.49171164       2.35190976      -0.00510162      -0.00759237      -0.00774841
C       -0.02793675       5.77822126       3.31982712      -0.00738540      -0.00151515       0.00497385
C       -1.24036168       7.91936847       3.68830764       0.00436738       0.00750095       0.00042041
C       -2.46874307      10.03101301       3.91424236      -0.00404636      -0.01180123       0.00282457
C        4.92609887       1.48699159       4.26209336       0.00200031       0.00377797      -0.01239720
P        3.49830299       3.71483659       5.11394649       0.00384743      -0.01154547      -0.00983181
C        1.22613606       8.01495856       3.61763985      -0.00708298       0.01060796      -0.00070173
C       -0.01160521      10.07525790       3.91651524      -0.00850062       0.00531030      -0.01296770
C        7.39925762       1.52613222       4.06326350       0.00072217      -0.00398088       0.00492877
C        6.21911678       3.64024839       4.36074066      -0.00350246       0.01386472      -0.01011595
C        4.98757808       5.71933787       4.09890168      -0.00295202      -0.00924780       0.00088833
C        3.66081971       7.97850225       3.65321024      -0.00756310      -0.00275132       0.00305672
C        2.45981847      10.11534283       3.81652964       0.00661955       0.00402206       0.00487439
C        9.87473667       1.52285736       3.76937857       0.00231959       0.00158335      -0.00076106
C        8.64859921       3.64669207       3.89040535       0.00026844      -0.00543101       0.00680344
C        7.41476882       5.77203019       3.91584778       0.00397067       0.00340958       0.00559566
C        6.15488562       7.89727922       3.76311676      -0.00051134      -0.00513090       0.01096157
C        4.93064503      10.05580452       3.73358331       0.00616442       0.00359207       0.00658324
Co       1.93523311       4.66338288       3.96947550       0.01412910      -0.00229103       0.00305751
O        3.65460373       3.60003782       6.71491402      -0.01370847      -0.00911310       0.00021669
O        2.39361448       2.86285169       7.25489733       0.01352305       0.01053157       0.00632132
H        2.03073846       3.63071038       7.74248371       0.00539939      -0.01698379      -0.00291269
