51
Lattice="12.336457 0.0 0.0 -6.168228499999997 10.683685154694365 0.0 0.0 0.0 15.0" Properties=species:S:1:pos:R:3:initial_magmoms:R:1:forces:R:3 energy=-449.8323040349669 free_energy=-449.8323040349669 stress="-0.007815692406938204 -0.0005170860975761688 -1.7933766693004451e-06 -0.0005170860975761688 -0.0012794197744780168 1.2627016136472988e-05 -1.7933766693004451e-06 1.2627016136472988e-05 -5.9600806147530454e-06" pbc="T T T"
C        0.00979001       0.02145427       3.70597612       0.00000000       0.00426293       0.00472434      -0.00482840
C       -1.23844891       2.13296633       3.66793171       0.00000000      -0.00054890       0.00724097      -0.00408783
C       -2.47427955       4.28463222       3.60192429       0.00000000      -0.01088644       0.00632462      -0.01392477
C       -3.68905903       6.43584148       3.59437256       0.00000000       0.00111614      -0.00628118      -0.00366450
C       -4.91241654       8.58375482       3.65741240       0.00000000       0.00233818      -0.00142574      -0.00293118
C        2.48160448       0.04968781       3.69921497       0.00000000      -0.00168201       0.00411662       0.00544961
C        1.24010449       2.19582983       3.76643496       0.00000000       0.00672957      -0.00571810      -0.00037369
C       -0.03705946       4.26429900       3.72734966       0.00000000      -0.00260657      -0.00172831      -0.00273288
C       -1.24172494       6.43102926       3.65626041       0.00000000      -0.00662389       0.00216828      -0.00519993
C       -2.45572283       8.58095824       3.64943543       0.00000000      -0.00137719       0.00081247      -0.00797962
C        4.94623455       0.03233102       3.66369606       0.00000000       0.00114563      -0.00161224       0.01198327
C        3.71692774       2.20023433       3.73335038       0.00000000      -0.00048722      -0.00673297       0.00172448
B        1.27346080       6.38393397       3.84455142       0.00000000      -0.00640942       0.00475342       0.00215989
C        0.00587638       8.56952697       3.69935999       0.00000000       0.00634012      -0.00308703      -0.00205147
C        7.41800502       0.00645957       3.66251395       0.00000000       0.00444744      -0.00537668      -0.00696101
C        6.19148130       2.14425219       3.61796211       0.00000000       0.00336735       0.00611683      -0.00839570
C        4.99111113       4.28394544       3.68119020       0.00000000       0.00005022      -0.00896438       0.00706826
C        3.74843074       6.38273633       3.86415533       0.00000000      -0.00975965       0.00400798      -0.00489938
C        2.48646794       8.55132614       3.76499567       0.00000000      -0.00275704       0.00158167       0.00152801
C        9.88066565       0.00024411       3.68881974       0.00000000       0.00009882      -0.00344046      -0.00342868
C        8.64721798       2.13994175       3.60608056       0.00000000      -0.00131730       0.00340265       0.00132840
C        7.42630042       4.29056045       3.57049141       0.00000000       0.00618892       0.00610167       0.00231122
C        6.20311311       6.44343353       3.63591477       0.00000000       0.00459182      -0.00549761      -0.00129635
C        4.95196202       8.54803771       3.72834675       0.00000000      -0.00220955       0.00282683      -0.00388668
C        0.00134840       1.44358548       3.71257333       0.00000000       0.00300927       0.00616498       0.00885867
C       -1.26120715       3.55123319       3.64751217       0.00000000      -0.01264521       0.00724522      -0.00272375
C       -2.47269304       5.71425553       3.60492039       0.00000000      -0.00446655      -0.00107637       0.00266993
C       -3.68625168       7.86633676       3.62789574       0.00000000       0.00060520      -0.00620416       0.00084602
C       -4.91694258      10.00779760       3.69120109       0.00000000       0.00177958       0.00428263       0.00289409
C        2.48077953       1.47608896       3.74579719       0.00000000       0.00421430      -0.00280159      -0.00102272
C        1.18901194       3.59170909       3.83020070       0.00000000       0.00814369      -0.00083660      -0.00019186
C       -0.04722195       5.68396522       3.72429891       0.00000000      -0.00591434       0.00143270      -0.00096804
C       -1.22887894       7.86129615       3.66697852       0.00000000       0.00152115       0.00212825      -0.00334768
C       -2.45675858      10.00961376       3.67014230       0.00000000      -0.00474193       0.00267048       0.00764979
C        4.95323626       1.45602514       3.66691306       0.00000000       0.00303748       0.00009172      -0.00319364
C        3.77592877       3.60297979       3.80231176       0.00000000      -0.01153976      -0.00501619       0.01041472
C        1.25091517       7.87344123       3.76166152       0.00000000       0.00168824      -0.00081394      -0.00136345
C        0.00908639       9.99422252       3.67025482       0.00000000       0.00559044      -0.00434565       0.00002409
C        7.42098687       1.42728613       3.61726993       0.00000000       0.00044011       0.00015304       0.00828413
C        6.20863598       3.56505891       3.59590272       0.00000000       0.00831554       0.00658121       0.00002291
C        4.97811352       5.72340794       3.71069084       0.00000000      -0.00081238      -0.00483666       0.00482218
C        3.71238592       7.79712481       3.79378072       0.00000000      -0.00729696       0.00876432       0.00257071
C        2.48382276       9.97504012       3.70140759       0.00000000       0.00078879      -0.00629606       0.00749697
C        9.87154931       1.42067990       3.64855063       0.00000000       0.00030034      -0.00088253      -0.00762490
C        8.64367763       3.56918195       3.57938046       0.00000000      -0.00365065       0.00373253      -0.00839015
C        7.42373740       5.71977932       3.58474867       0.00000000       0.00765577      -0.00332844       0.00734601
C        6.19335198       7.86356639       3.67209134       0.00000000       0.00083170      -0.00334308       0.00650521
C        4.94697246       9.97415321       3.70923921       0.00000000       0.00384390       0.00194128       0.00209677
Co       2.51374032       4.92527620       4.31136846       0.00000000       0.00535500      -0.00234881      -0.00421486
O        1.75090396       3.99891003       6.78703011       1.00000000       0.00690373      -0.00768707       0.00399342
O        2.46674385       4.87385390       6.18352616       1.00000000      -0.00696843       0.00031514      -0.00036564
