52
Lattice="12.336457 0.0 0.0 -6.168228499999997 10.683685154694365 0.0 0.0 0.0 15.0" Properties=species:S:1:pos:R:3:forces:R:3 energy=-445.906883917476 free_energy=-445.906883917476 stress="-0.003956034404603112 -0.0025306310661380275 -2.057428540289262e-05 -0.0025306310661380275 -0.00750744035452118 -1.0605026448943407e-05 -2.057428540289262e-05 -1.0605026448943407e-05 1.2494373038283324e-05" pbc="T T T"
C        0.04357949       0.05392421       3.81010311      -0.00599161      -0.00071867       0.00609696
C       -1.19888588       2.18438336       3.67736493      -0.00383401       0.00301226       0.00104733
C       -2.42301046       4.33068085       3.68538185       0.00030378      -0.00151497       0.00116110
C       -3.64770482       6.46286755       3.82778396      -0.00007890       0.00060349      -0.00417755
C       -4.88470886       8.59645476       3.90039130      -0.00016795       0.00063474       0.00677970
C        2.51187220       0.02244655       3.72932891      -0.00102044      -0.00143329       0.00887175
C        1.27190739       2.17010144       3.62666355      -0.00684436       0.00124678      -0.00131642
C        0.04235151       4.28212162       3.68375693      -0.00465809       0.00385983      -0.00086040
C       -1.17436115       6.45655751       3.87876160      -0.00104521      -0.00062137      -0.00349850
C       -2.40790749       8.58931198       3.87432927       0.00572943      -0.00243252      -0.00537778
C        4.97688419       0.05542848       3.70700784       0.00315235       0.00087409       0.00747117
C        3.71354386       2.12418843       3.36224991       0.00130866       0.00070567       0.00650412
P        1.58388482       6.28965110       4.38490730      -0.00601866       0.00304315      -0.00987143
C        0.04610903       8.62331053       4.01791231       0.00518833      -0.00448219      -0.00497266
C        7.43366460       0.09112619       3.81073804      -0.00033933      -0.00062423      -0.00086008
C        6.19875828       2.20478286       3.52473497       0.00328843       0.00021576       0.01039689
C        5.01747795       4.38416299       3.50329623      -0.00182377       0.00177369      -0.00134024
B        3.64715148       6.44497724       4.19888020       0.00326821       0.00101072      -0.00147608
C        2.52739466       8.69726838       4.11174866       0.00126608       0.00174523       0.00112316
C        9.91678956       0.08697092       3.84776248       0.00000337       0.00012352      -0.00425236
C        8.66889369       2.20673320       3.66297327      -0.00002249      -0.00207634      -0.00321833
C        7.44818384       4.34200350       3.66111856       0.00074241      -0.00053787       0.00383251
C        6.22083860       6.47715512       3.90283981       0.00227292       0.00065861       0.00495264
C        4.98925424       8.62532276       4.01378995       0.00037150      -0.00348637      -0.00542126
C        0.03450689       1.47025330       3.70484076      -0.00715128       0.00035199       0.00092408
C       -1.20169071       3.59910494       3.64156970      -0.00039359       0.00215291      -0.00902465
C       -2.41475482       5.75135852       3.78246716      -0.00091704      -0.00214690       0.00624817
C       -3.64661075       7.88372863       3.87627214       0.00256259       0.00059335       0.00665507
C       -4.89038340      10.01407121       3.83076126      -0.00468991      -0.00003081       0.00402508
C        2.50158114       1.43242322       3.56673021      -0.00217375       0.00026831       0.00474688
C        1.28310087       3.57983843       3.65740502      -0.00763643       0.00231343      -0.00451618
C        0.02206144       5.68920191       3.87905601      -0.00341575       0.00416191      -0.00645722
C       -1.17204073       7.88343235       3.94295663       0.00595449      -0.00312938      -0.00108278
C       -2.41543616      10.01030870       3.77701869       0.00234359      -0.00092573       0.00360739
C        4.96633734       1.47794265       3.50552900       0.00461108       0.00116458       0.00665501
P        3.50037006       3.78715858       2.72671126      -0.00172329      -0.00834400      -0.00504476
C        1.30202736       7.98947013       4.20419939       0.00404031      -0.00312127      -0.00577164
C        0.03916631      10.04729705       3.85100796       0.00160487      -0.00167722       0.00712551
C        7.42840926       1.50357434       3.65612217       0.00169478      -0.00245954      -0.00314706
C        6.21436801       3.62986666       3.52674271       0.00072175       0.00075051      -0.00043270
C        4.99042890       5.75658957       3.86900568       0.00155909       0.00330104      -0.00649289
C        3.74292215       7.96252691       4.13351805      -0.00076230       0.00033080      -0.00619693
C        2.50866289      10.09307119       3.93028245       0.00040055       0.00164015      -0.00378897
C        9.90322485       1.49387722       3.72043021      -0.00124107       0.00038819      -0.00252176
C        8.67558710       3.62794929       3.65402106       0.00043983      -0.00237342       0.00624417
C        7.45237392       5.75985604       3.79573074      -0.00023520       0.00144341      -0.00494793
C        6.22119860       7.89769145       3.96413002       0.00061001      -0.00040943      -0.00692940
C        4.98183766      10.04610938       3.89998330      -0.00295751      -0.00354502      -0.00033124
Co       2.73048542       4.49776176       4.63613976      -0.00046838      -0.00005728       0.01166578
O        3.12969626       3.88539631       6.22545878       0.00141635       0.00973235       0.01492395
O        1.92323451       3.30504381       6.87321393       0.01162575       0.00230199      -0.01860353
H        1.87946051       3.92948310       7.62574366      -0.00087019      -0.00425468       0.00087431
