52
Lattice="12.336457 0.0 0.0 -6.168228499999997 10.683685154694365 0.0 0.0 0.0 15.0" Properties=species:S:1:pos:R:3:forces:R:3 energy=-449.05507891357706 free_energy=-449.05507891357706 stress="-0.006354215551614036 0.001645312853417271 2.1149961655352264e-05 0.001645312853417271 -0.0022159199210282183 -4.4053752063430506e-05 2.1149961655352264e-05 -4.4053752063430506e-05 -3.6705492748640978e-06" pbc="T T T"
C        0.04451308       0.01131142       3.72064082       0.00183441      -0.00202135      -0.00874925
C       -1.18388778       2.14738102       3.53832919      -0.00418904       0.00616729      -0.00133518
C       -2.43392031       4.29079081       3.70863716       0.00543858       0.00333892      -0.00298844
C       -3.66410207       6.42638064       3.87457838       0.00202599      -0.00252280      -0.01332689
C       -4.89655907       8.56206710       3.87983856       0.00373379      -0.00002734       0.00082763
C        2.50750248       0.02031992       3.81408398       0.01104992       0.00435412       0.00417463
C        1.29883478       2.08734897       3.37086668      -0.00133966      -0.01443601       0.00607783
C       -0.04940293       4.34416050       3.32076201      -0.00684877      -0.00597103       0.00121439
C       -1.22752785       6.44765091       3.76079338      -0.00656658      -0.00275619      -0.00396899
C       -2.43714236       8.57291832       3.89575329       0.00297877       0.00948790      -0.00061906
C        4.98043010       0.01563879       3.88519683      -0.00286083      -0.00136408      -0.00062431
C        3.74810396       2.18784930       3.81462477      -0.00211355      -0.00131642       0.00294060
C        1.23434037       6.39516592       3.76645284       0.00677710      -0.00104304       0.00383663
C        0.03473568       8.55240970       3.86984725      -0.00275650      -0.00085402      -0.00597783
C        7.45123873       0.00076576       3.84960938       0.00441066      -0.00576224       0.01027056
C        6.23396350       2.12938926       3.88207587      -0.00948921      -0.00196472      -0.00552935
C        5.02005263       4.25208614       3.94132386      -0.00527649       0.00275074       0.00122131
B        3.69827942       6.36789831       3.96768484       0.01040290       0.00724411       0.00091637
C        2.50499333       8.55196151       3.87365056       0.00857284      -0.00333082      -0.00333464
C        9.91695078       0.00641248       3.76945367       0.00150798      -0.00102320      -0.00459400
C        8.69127770       2.14005909       3.77253624       0.00779043       0.00618922      -0.00217433
C        7.46598322       4.27757409       3.87326197       0.00540466      -0.00340864       0.00526158
C        6.22433822       6.41729034       3.92623970      -0.00936774      -0.00010370      -0.00265409
C        4.97969105       8.55659966       3.87183577      -0.01027313      -0.00374364      -0.00103784
C        0.04823883       1.43495088       3.52870530      -0.00666334       0.00168151      -0.00485700
C       -1.20681744       3.57662906       3.50876916      -0.00602057       0.00116184       0.00643634
C       -2.44000272       5.71557114       3.78722232      -0.00063018      -0.00231081      -0.01587399
C       -3.66498364       7.85345835       3.89485069       0.00694381       0.00270494      -0.00176074
C       -4.89355894       9.98829987       3.80913805       0.00879297       0.00536701       0.00204543
C        2.51215164       1.44516900       3.68274885       0.00586768      -0.00280597       0.00339363
S        1.35843977       3.64212274       2.58373810       0.00276540      -0.00424230      -0.00060728
C        0.00414419       5.73939791       3.60072627      -0.00376928      -0.00384500      -0.00206262
C       -1.20672815       7.86244908       3.86137221      -0.00713632      -0.00215370      -0.00177341
C       -2.42758550       9.99326807       3.88707308       0.00453081       0.00573852      -0.00025407
C        4.98742875       1.44061712       3.87515352      -0.01015813      -0.00468561      -0.00349406
C        3.79002289       3.57232081       3.92130094      -0.00341285      -0.00043046       0.01215767
C        1.27500441       7.80214359       3.85230540       0.00680253       0.00508556       0.01045159
C        0.04466021       9.97516086       3.88147467      -0.00224910      -0.00123560      -0.00359041
C        7.46428073       1.42028023       3.84002072       0.00153979       0.00272052       0.00485050
C        6.25319115       3.54497764       3.90260872      -0.00384471       0.00036138       0.00544339
C        5.02637874       5.67088228       3.95320722      -0.00822806       0.00340022      -0.00245441
C        3.73397667       7.86258858       3.90428384       0.00091867      -0.00608146      -0.00317275
C        2.51235630       9.97690617       3.83382428       0.00697964      -0.00659966       0.00268215
C        9.92839658       1.43516566       3.69266513       0.00580400      -0.00061386       0.00014159
C        8.68936880       3.56629654       3.79174856       0.01144999       0.00457868      -0.00388039
C        7.45755342       5.70412631       3.89545606       0.00065292      -0.00101011       0.01404293
C        6.21228929       7.84549895       3.89683764      -0.00787102       0.00145243       0.00904556
C        4.98041912       9.98247380       3.78897353      -0.00195482      -0.00485092       0.00209559
Co       2.42175974       4.90359619       4.16081361       0.00072160       0.00100073      -0.01334574
O        1.70717498       4.24187857       5.75368032       0.00217994      -0.00831606       0.00464483
O        1.81546327       5.23255672       6.83342096      -0.01042829       0.00935349      -0.00412440
H        2.41445370       4.73306044       7.42342469      -0.00442961       0.01669163       0.00399272
