51
Lattice="12.336457 0.0 0.0 -6.168228499999997 10.683685154694365 0.0 0.0 0.0 15.0" Properties=species:S:1:pos:R:3:initial_magmoms:R:1:forces:R:3 energy=-443.27032464158896 free_energy=-443.27032464158896 stress="-0.005342863284290981 -3.945548598489279e-05 8.020582361707244e-06 -3.945548598489279e-05 -0.001960631603574746 -1.4212948412352834e-05 8.020582361707244e-06 -1.4212948412352834e-05 -2.365959880307533e-06" pbc="T T T"
C       -0.00025721       0.03189600       3.56833276       0.00000000       0.00384721      -0.00337964       0.00354810
C       -1.24281992       2.14623431       3.41590878       0.00000000      -0.00141089      -0.00093254       0.00703917
C       -2.47635091       4.29427632       3.33782942       0.00000000      -0.00184694       0.00282113      -0.00287171
C       -3.70147982       6.44023309       3.41881264       0.00000000      -0.00054798       0.00697105       0.00669351
C       -4.93400640       8.57999459       3.58982807       0.00000000       0.00121720       0.00169739      -0.00073162
C        2.46731740       0.04609293       3.60834906       0.00000000      -0.00072626      -0.00693029       0.00341267
C        1.22310933       2.18363316       3.73923896       0.00000000       0.00013791      -0.00470380       0.00146460
C       -0.05549435       4.25659014       3.77044182       0.00000000      -0.00239093      -0.00314529       0.00925208
C       -1.26840896       6.43389396       3.68875417       0.00000000       0.00309462       0.00259820       0.00433101
C       -2.46798679       8.57985652       3.58608683       0.00000000      -0.00162632       0.00778869      -0.00833546
C        4.93454336       0.03224325       3.56962394       0.00000000      -0.00276908       0.00315273      -0.00452624
C        3.71118855       2.18400099       3.74509239       0.00000000      -0.00154366      -0.00586030       0.00558472
P        1.11221851       6.37326057       5.01650228       0.00000000       0.00515548       0.00585068      -0.00559305
C       -0.01137848       8.58701800       3.85225481       0.00000000      -0.00521173      -0.00685123      -0.00887886
C        7.40388780       0.01664558       3.53881988       0.00000000      -0.00299827       0.00601660      -0.00236585
C        6.17693567       2.14749050       3.42607830       0.00000000       0.00089815      -0.00593997      -0.00276545
C        4.99101133       4.25743121       3.79336148       0.00000000       0.00060079      -0.00083465       0.00449083
P        3.82878180       6.38161975       5.04961636       0.00000000      -0.01000720      -0.01205792      -0.01212315
C        2.46820713       8.61683686       4.04697313       0.00000000      -0.00065291      -0.00562837      -0.00049310
C        9.86732990       0.01637766       3.53863941       0.00000000       0.00270025       0.00793124      -0.00260566
C        8.63497173       2.14695885       3.30647535       0.00000000       0.00352110      -0.00170705       0.00452555
C        7.40991489       4.29501252       3.34686521       0.00000000       0.00195513      -0.00709685      -0.00326156
C        6.20315346       6.43353048       3.70720055       0.00000000      -0.00024334       0.00686715       0.00295516
C        4.94639256       8.58710465       3.86227163       0.00000000       0.00494273       0.00430716      -0.00463612
C       -0.00825047       1.45248407       3.54893534       0.00000000      -0.00211186      -0.00270820      -0.00234434
C       -1.25887424       3.56574077       3.43383818       0.00000000      -0.00329199       0.00053163      -0.00289759
C       -2.47931590       5.72205130       3.42763613       0.00000000       0.00069327       0.00249732       0.00358864
C       -3.70111147       7.86673179       3.51747370       0.00000000       0.00043636       0.01167131       0.00013272
C       -4.93191851      10.00866237       3.59041845       0.00000000       0.00248901      -0.00409967       0.00328454
C        2.46730114       1.46837389       3.71604475       0.00000000      -0.00046602      -0.00881997      -0.00535589
C        1.15016263       3.56112848       3.98791872       0.00000000       0.00737177       0.00158123       0.00635835
C       -0.11805094       5.66655496       3.97851702       0.00000000       0.00573242      -0.00045722      -0.00555143
C       -1.24484550       7.86599446       3.72627375       0.00000000      -0.00473383       0.00426446       0.00517105
C       -2.47002960      10.00853822       3.58988181       0.00000000      -0.00102972       0.00105392       0.00395481
C        4.94245010       1.45316773       3.55485815       0.00000000       0.00126611      -0.00395899       0.00476360
C        3.78405242       3.56058016       4.00142133       0.00000000      -0.00098820      -0.00040323       0.00035701
C        1.21354047       7.95033783       4.20366782       0.00000000      -0.00458406      -0.01367113      -0.00031384
C       -0.00236098      10.00008041       3.62853122       0.00000000      -0.00444773      -0.00383904      -0.00146981
C        7.40688984       1.43177645       3.37897382       0.00000000       0.00447075       0.00426499       0.00223388
C        6.19296317       3.56700431       3.44905683       0.00000000       0.00031383      -0.00400491       0.00453631
C        5.05478485       5.66678576       4.00699486       0.00000000      -0.00481905       0.00635109      -0.00780874
C        3.72215183       7.95136034       4.21684967       0.00000000       0.00303067      -0.00282223      -0.01060980
C        2.46759900       9.99848853       3.67083127       0.00000000      -0.00113062       0.00470613       0.00276687
C        9.86337556       1.43113793       3.37458653       0.00000000      -0.00102208       0.00437198       0.00461332
C        8.63474179       3.57811006       3.27624029       0.00000000       0.00138018      -0.00729353      -0.00636690
C        7.41278648       5.72241171       3.43727683       0.00000000       0.00087140      -0.00316183       0.00475778
C        6.18020690       7.86620445       3.73860109       0.00000000       0.00397669       0.00352996      -0.00183464
C        4.93697831       9.99957278       3.63168410       0.00000000       0.00365738       0.00117751      -0.00955167
Co       2.46582527       4.54233391       5.00490949       0.00000000      -0.00189409       0.00533609       0.00092715
O        2.40685814       4.96108392       7.57664043       1.00000000      -0.00146399      -0.00116777       0.00119077
O        2.45775984       3.93785442       6.76671048       1.00000000       0.00019835       0.01413598       0.01135832
