52
Lattice="12.336457 0.0 0.0 -6.168228499999997 10.683685154694365 0.0 0.0 0.0 15.0" Properties=species:S:1:pos:R:3:forces:R:3 energy=-455.9016646332884 free_energy=-455.9016646332884 stress="-0.005808036374499176 -0.00029506124898371884 -2.1701312121338965e-05 -0.00029506124898371884 0.006466639527301198 4.323972867043026e-05 -2.1701312121338965e-05 4.323972867043026e-05 1.2382041286474283e-05" pbc="T T T"
C       -0.11730869      -0.08314655       3.72245638      -0.00420113      -0.00402308      -0.00817606
C       -1.36629799       2.01943211       3.74782991       0.00151756      -0.00454706      -0.00093434
C       -2.60051504       4.16610778       3.77896137       0.00493011       0.00227032      -0.00488065
C       -3.82013778       6.32167872       3.77839763      -0.00067210      -0.00105727      -0.01240763
C       -5.04773155       8.47401622       3.73071911       0.00187823       0.00510809      -0.00710478
C        2.34443224      -0.03894486       3.74757085       0.00459325      -0.00612826       0.00445723
C        1.09414695       2.11400539       3.74137666      -0.00196496       0.00431652      -0.00011664
C       -0.16221447       4.14575438       3.75853778      -0.00647970       0.00510004       0.00430576
C       -1.38792128       6.32242324       3.77828606       0.00817299       0.00793672       0.00528956
C       -2.59646073       8.47734807       3.76710129      -0.00079412      -0.00043812       0.00024804
C        4.81753048      -0.08579392       3.76650565       0.00436144       0.00125392      -0.00287108
C        3.58499241       2.11546789       3.76219154      -0.00184440       0.00077156      -0.00346585
C        1.05731177       6.25125862       3.76640370      -0.00040010      -0.00252767      -0.00299677
C       -0.12344157       8.42406700       3.76965564      -0.00525405      -0.00349158       0.00507928
C        7.29240980      -0.14063935       3.76181726      -0.00673886       0.00120569       0.00114964
C        6.06764192       2.01986445       3.77381871      -0.00076955       0.00017270      -0.00006866
C        4.85804314       4.17527031       3.76777786       0.00017695       0.00242603      -0.00050314
N        3.67801586       6.28111039       3.73047533      -0.00145965      -0.00061344      -0.00501833
C        2.36274626       8.36947293       3.73456927       0.00042931       0.00065947      -0.01029407
C        9.74671743      -0.13979397       3.73254570       0.00210041       0.00237453      -0.00470490
C        8.51794980       2.01029774       3.76741037       0.00336206      -0.00143113       0.00589997
C        7.30021678       4.16842225       3.78376036      -0.00416926      -0.00067744      -0.01136412
C        6.07751768       6.32991166       3.74068950      -0.01114528       0.00687406      -0.01204638
C        4.82272931       8.41916341       3.69180488       0.00620150       0.00168235      -0.00935045
C       -0.12385643       1.34721609       3.73532132      -0.00142494      -0.00511220       0.00555784
C       -1.37961942       3.43787860       3.76220303      -0.00006447      -0.00259434       0.00688338
C       -2.60299991       5.59829786       3.78403296       0.01064019       0.00582136      -0.00548172
C       -3.81995382       7.75597134       3.76083396      -0.00025532       0.00016825       0.01117424
C       -5.04826079       9.90715616       3.73216288       0.00074540       0.00091591       0.00191656
C        2.33843106       1.39551796       3.74908705      -0.00173237      -0.00403183       0.00392648
N        1.03244470       3.49367864       3.74385418      -0.00138186       0.00870217       0.00477588
C       -0.15994339       5.59257860       3.76995760       0.00051945       0.00216436      -0.00257538
C       -1.36877610       7.74671244       3.77471754      -0.00258650       0.00433166       0.00420805
C       -2.59321388       9.90674839       3.75988226       0.00782677      -0.00247071       0.00639676
C        4.82386384       1.34163799       3.76764109       0.00035039       0.00220752       0.00614605
C        3.64073605       3.51323931       3.76355517       0.00031400       0.00365413      -0.00614287
C        1.11404456       7.64967009       3.76175270      -0.00329751      -0.00325666      -0.00340475
C       -0.11760028       9.85144565       3.76685929      -0.00376330      -0.00547518       0.00318398
C        7.29510806       1.28908344       3.76800312      -0.00055803       0.00048535       0.00748940
C        6.08569687       3.44446212       3.77707683      -0.00211901       0.00021198       0.01218764
C        4.86233774       5.62264546       3.74736248      -0.00491066      -0.00020756      -0.00296935
C        3.60834119       7.65483496       3.70907364       0.00519977      -0.00157036       0.00717063
C        2.35426305       9.80588026       3.74431104      -0.00160832       0.00385551      -0.00131839
C        9.74451138       1.29118682       3.75039079       0.00340736       0.00141418       0.00026164
C        8.51791265       3.44516790       3.77996479       0.00199521      -0.00037401       0.00260589
C        7.29758823       5.60102081       3.77118874      -0.01307749       0.00282237      -0.00255134
C        6.06307116       7.74738723       3.71034477       0.00315476       0.00705516       0.00570955
C        4.81784933       9.84931697       3.70384353      -0.00247620      -0.00199602       0.00860394
Co       2.35508364       4.88691049       3.74835879      -0.00144898      -0.01038688       0.00716524
O        4.69261268       7.43178977       6.30304367       0.01263023       0.00246646      -0.00904732
O        4.37989596       6.19236993       6.73129095      -0.00334429      -0.00945980      -0.00686510
H        4.83043048       6.11236959       7.60340839       0.00543505      -0.01655778       0.00486747
