52
Lattice="12.336457 0.0 0.0 -6.168228499999997 10.683685154694365 0.0 0.0 0.0 15.0" Properties=species:S:1:pos:R:3:forces:R:3 energy=-455.9693599155674 free_energy=-455.9693599155674 stress="-0.0030830414411755712 -7.494542246869858e-05 -1.6439574133262684e-05 -7.494542246869858e-05 0.0096497826568939 1.1900930746087478e-05 -1.6439574133262684e-05 1.1900930746087478e-05 1.2796848221354438e-05" pbc="T T T"
C        0.00514601      -0.02162393       3.78615718       0.00106592      -0.00330204       0.00749644
C       -1.24186584       2.08231294       3.75875068      -0.00588882      -0.00310124       0.00589141
C       -2.47473691       4.22674538       3.72119838       0.00097554      -0.00490131       0.00196704
C       -3.69917662       6.38219913       3.72904567      -0.00095067       0.00908653       0.00316204
C       -4.92496512       8.53794486       3.76745135       0.00029897      -0.00395670       0.00648814
C        2.47053732       0.03552003       3.78608735      -0.00490832      -0.00378391       0.00213317
C        1.22481859       2.18523697       3.80892150      -0.00231843      -0.00078854       0.00655046
C       -0.02724028       4.21003262       3.74988038      -0.00161685       0.00384136       0.00291034
C       -1.26237934       6.38159441       3.72018218      -0.00563742      -0.00712176       0.00064957
C       -2.47530579       8.54051434       3.74933086       0.00269021      -0.00099073       0.00196479
C        4.93506113      -0.01662846       3.76565340      -0.00214031      -0.00279298       0.00110158
C        3.71529243       2.19167173       3.78986131       0.00559130       0.00340288       0.00137263
C        1.17887628       6.31045423       3.78311753       0.00495285       0.00101390       0.00496489
C       -0.00259697       8.48630323       3.75610709      -0.00038695       0.00465911       0.00681105
C        7.41245267      -0.08143956       3.76861791       0.00074410       0.00628452       0.00566031
C        6.18223964       2.08351555       3.74735734       0.00922767      -0.00314551       0.00259011
C        4.97279183       4.22205565       3.74005037      -0.00235995       0.00600697       0.00010189
N        3.77759232       6.31361105       3.81059986      -0.00984141      -0.00364778      -0.00968351
C        2.48166296       8.42177738       3.79576930      -0.00221122       0.00540764       0.00079799
C        9.86854162      -0.08294484       3.78133246      -0.00392434       0.00429636       0.00088540
C        8.63943540       2.07144909       3.74551972      -0.00184383      -0.00171071       0.00338584
C        7.41581804       4.22914148       3.72445132       0.00729785      -0.00511853      -0.00056280
C        6.19400202       6.38253888       3.74447763       0.00855201      -0.00261230       0.00218537
C        4.94129689       8.47373260       3.78750102       0.00240627       0.00053700       0.01135953
C        0.00576185       1.41282008       3.78385047      -0.00443192      -0.00368362       0.00980264
C       -1.25003380       3.50187606       3.73368436       0.00143420      -0.00187713       0.00040105
C       -2.47878562       5.65969857       3.71781370      -0.00846631      -0.00278337      -0.00318032
C       -3.69870015       7.81778902       3.74807511       0.00127223       0.00623489      -0.00930611
C       -4.92392610       9.97349642       3.78397954      -0.00188794      -0.00827296      -0.00588192
C        2.47124446       1.47765866       3.80335567       0.00179666       0.00020894       0.00431797
N        1.17373639       3.56819752       3.83022239      -0.00072289       0.00083304      -0.01766882
C       -0.02956612       5.64986451       3.73762509      -0.00066056       0.00197648       0.00244211
C       -1.24821170       7.80823268       3.73652716       0.00194544      -0.00478321       0.00580546
C       -2.47198128       9.97434754       3.76860978      -0.00441113      -0.00268752      -0.00251394
C        4.93420708       1.41787947       3.76610695       0.00866210      -0.00230854       0.00279478
N        3.76522591       3.57704857       3.79935179      -0.01071356       0.00881416      -0.00708734
C        1.23406028       7.70777146       3.77655041      -0.00098917       0.00373548       0.00779608
C        0.00102889       9.91574542       3.76300678       0.00079848       0.00717836       0.00288027
C        7.41075699       1.35215205       3.75362447       0.00466434       0.00014087      -0.00345432
C        6.19066143       3.50693941       3.72954124       0.00141213      -0.00068293       0.00107498
C        4.97362408       5.66523762       3.74822506       0.00108377       0.00573797      -0.01240622
C        3.72403429       7.69562875       3.80106256      -0.00246025      -0.00024151      -0.00554073
C        2.47543180       9.85886560       3.78506080      -0.00242544       0.00587370      -0.01423322
C        9.86743925       1.35190013       3.76169181      -0.00666329       0.00107678      -0.00454778
C        8.63887256       3.50617535       3.72783813       0.00409176      -0.00785467      -0.00304441
C        7.41591180       5.65946891       3.72981796       0.00840199      -0.00154874      -0.00564961
C        6.18493491       7.80577978       3.77017960       0.00400600      -0.00260874      -0.00895611
C        4.93887731       9.90749398       3.78679061      -0.00131418       0.00364925       0.00472367
Co       2.48717592       4.91238734       4.09505244      -0.00567410       0.00286266      -0.00279530
O        2.62501873       4.77447446       5.90523326      -0.00016588       0.00482064       0.00512327
O        2.95239163       6.02383402       6.54936487       0.00680599      -0.00616210      -0.00672232
H        2.41587238       5.93345367       7.36427100       0.00483742      -0.00521040      -0.00435750
