51
Lattice="12.336457 0.0 0.0 -6.168228499999997 10.683685154694365 0.0 0.0 0.0 15.0" Properties=species:S:1:pos:R:3:initial_magmoms:R:1:forces:R:3 energy=-452.6443667531267 free_energy=-452.6443667531267 stress="-0.0037164777050074415 1.0936040228156626e-05 8.801051643153164e-06 1.0936040228156626e-05 0.006424591726474702 -4.098372022676541e-08 8.801051643153164e-06 -4.098372022676541e-08 1.571365456670345e-06" pbc="T T T"
C        0.03137852      -0.15594596       3.71434867       0.00000000       0.00261226       0.00283110       0.00436468
C       -1.21366265       1.95464167       3.71823023       0.00000000      -0.00088936      -0.00187539      -0.00413151
C       -2.44289974       4.10098693       3.73514179       0.00000000      -0.00101358      -0.00489650      -0.00992299
C       -3.66592130       6.25175656       3.73886993       0.00000000       0.00049903       0.00208984      -0.00380005
C       -4.89497833       8.40234133       3.73106105       0.00000000      -0.00326742       0.00354414      -0.00877856
C        2.50332144      -0.12140838       3.71805532       0.00000000       0.00050739      -0.00356090      -0.01062208
C        1.26450284       2.03683972       3.71944227       0.00000000       0.00326763       0.00154954      -0.00098978
C        0.00799573       4.10818278       3.73566924       0.00000000      -0.00099794       0.00642065       0.00110242
C       -1.22061623       6.25916707       3.73941616       0.00000000      -0.00009700      -0.00269973      -0.00773766
C       -2.43596307       8.40200613       3.71963554       0.00000000       0.00391661      -0.00039076       0.00160508
C        4.97513618      -0.15713279       3.66867976       0.00000000      -0.00127301       0.00551247       0.00153630
C        3.74096973       2.03675037       3.68507550       0.00000000       0.00074273       0.00092967      -0.00163129
N        1.19048487       6.21688209       3.69332330       0.00000000       0.00605110      -0.00750309      -0.00501286
C        0.03775332       8.35378489       3.67312451       0.00000000       0.00280663       0.00074365      -0.00374635
C        7.44387111      -0.20651685       3.64580473       0.00000000       0.00068462       0.00437853       0.00179916
C        6.21800996       1.95446109       3.65222162       0.00000000       0.00508762       0.00164877       0.01762436
C        4.99696579       4.10832255       3.67579848       0.00000000      -0.00073216      -0.00646229       0.00782086
N        3.81146520       6.21280435       3.68147078       0.00000000      -0.00057030       0.00147297       0.00227585
C        2.50183962       8.30417386       3.65214216       0.00000000      -0.00661434      -0.00579205       0.01407371
C        9.89603450      -0.20541794       3.67041331       0.00000000      -0.00374635      -0.00119517      -0.00183971
C        8.67053369       1.94615837       3.67654972       0.00000000      -0.00158422       0.00460886       0.00923801
C        7.44758879       4.10083580       3.69655228       0.00000000       0.00130964      -0.00346290      -0.00199530
C        6.22485217       6.25894356       3.70971487       0.00000000       0.00110056      -0.00673614      -0.00255893
C        4.96741509       8.35216146       3.69141714       0.00000000       0.00058146       0.00348656      -0.00082805
C        0.02588417       1.27208795       3.71786082       0.00000000       0.00273123       0.00021236       0.00812558
C       -1.22205075       3.38051738       3.73686504       0.00000000       0.00031817      -0.00070867      -0.01661096
C       -2.44316942       5.53231704       3.74512229       0.00000000      -0.00242470      -0.00370428      -0.00690322
C       -3.66536940       7.68415844       3.73730421       0.00000000      -0.00097427       0.00584464      -0.00690728
C       -4.89566142       9.83168978       3.72563442       0.00000000      -0.00079383       0.00145138      -0.00604660
C        2.50287260       1.31062232       3.70988018       0.00000000       0.00309276      -0.00295608      -0.01530759
C        1.23544724       3.44963002       3.71905931       0.00000000      -0.00283378       0.00483481       0.00540365
C       -0.00211348       5.55380898       3.73023354       0.00000000       0.00133959       0.00352111      -0.00970441
C       -1.20742918       7.67784380       3.70901719       0.00000000       0.00411549      -0.00266833       0.00921675
C       -2.43493189       9.83168566       3.70324516       0.00000000       0.00094104      -0.00126604      -0.00072948
C        4.97889509       1.27178240       3.66340318       0.00000000       0.00273602       0.00521076       0.00507983
C        3.76955258       3.45006644       3.68135873       0.00000000      -0.00229731       0.00105790       0.00836456
C        1.25535819       7.59743290       3.66865725       0.00000000      -0.00174421      -0.00730260      -0.01025083
C        0.03874291       9.78400446       3.65465061       0.00000000       0.00027728       0.00496737       0.00805062
C        7.44625558       1.22410343       3.64691960       0.00000000       0.00216858       0.00522716       0.01646340
C        6.22665823       3.38003090       3.66855985       0.00000000       0.00335681      -0.00320469       0.01487671
C        5.00682997       5.55372671       3.68903252       0.00000000      -0.00189549      -0.00541779      -0.00624720
C        3.74763027       7.59473952       3.66764187       0.00000000      -0.00338731       0.00253198       0.01053959
C        2.50165588       9.74046623       3.65047104       0.00000000      -0.00431725      -0.00342237       0.00921124
C        9.89520474       1.22612094       3.68748198       0.00000000      -0.00484187       0.00117027       0.00468643
C        8.67061405       3.38046973       3.70421053       0.00000000      -0.00128879      -0.00131670       0.00038073
C        7.44800618       5.53185291       3.71917564       0.00000000       0.00411718      -0.00405233      -0.00467401
C        6.21332638       7.67747569       3.71573406       0.00000000      -0.00125598      -0.00325386       0.00148537
C        4.96669739       9.78452711       3.69366344       0.00000000       0.00205589       0.00422822      -0.00801286
Co       2.50167415       4.82929090       3.69664724       0.00000000      -0.00137167       0.00463189      -0.00997438
O        0.99953485       9.21132932       6.45581189       1.00000000       0.00210461      -0.01574237       0.00907244
O        2.15283227       8.79228297       6.52869941       1.00000000      -0.00830978       0.01548446      -0.00743341
