52
Lattice="12.336457 0.0 0.0 -6.168228499999997 10.683685154694365 0.0 0.0 0.0 15.0" Properties=species:S:1:pos:R:3:forces:R:3 energy=-440.57550374113845 free_energy=-440.57550374113845 stress="-0.006546643567743984 0.0023775358086157478 -4.450479747027813e-07 0.0023775358086157478 -0.005661747045086155 -3.6501113908382796e-05 -4.450479747027813e-07 -3.6501113908382796e-05 6.201699630215393e-06" pbc="T T T"
C       -0.00752109      -0.02775836       3.73368668       0.00484349       0.00428923       0.00661587
C       -1.22526724       2.12261733       3.64220937       0.00174217       0.00377981       0.00033856
C       -2.47824592       4.25744686       3.73323549      -0.00121854       0.00308267      -0.00083493
C       -3.71511029       6.39039039       3.81385840      -0.00377639      -0.00001866       0.00108101
C       -4.96305197       8.51104469       3.76401499      -0.00681865      -0.00525801       0.00023993
C        2.45268253      -0.04828461       3.92095689       0.00250453       0.00624366      -0.00104639
C        1.26170237       2.06469028       3.69654725       0.00837074       0.00909344      -0.00383085
C       -0.08214774       4.31410898       3.39938504       0.00644222       0.00299874       0.00463264
C       -1.29004014       6.42089128       3.67109045      -0.00616537      -0.00501065      -0.00332092
C       -2.49512623       8.52948995       3.84268019       0.00112113      -0.00426418      -0.00742892
C        4.92904331      -0.03270248       3.99962597       0.00327746       0.00568972      -0.00165112
C        3.69313880       2.04823564       4.27830971       0.00130100       0.00399882       0.00692829
C        1.15380266       6.41996092       3.64161361      -0.00858608      -0.00015161       0.00064768
C       -0.02468691       8.53291365       3.77259617       0.00725744      -0.00581219       0.00324810
C        7.39893430      -0.02140678       3.90310877       0.00251792      -0.00563973      -0.00595858
C        6.18306018       2.10217404       4.18524841      -0.00377496      -0.00253680      -0.01179758
C        5.01683308       4.28172494       4.29015169      -0.00117790       0.00024884      -0.00136691
S        3.63972117       6.20429206       2.87994277      -0.00509989       0.00991723      -0.00518036
C        2.45570624       8.53254996       3.62214157       0.00224958      -0.00345498      -0.00423367
C        9.86714487      -0.01863593       3.73630554       0.00268860      -0.00561444      -0.00208698
C        8.64491912       2.11312406       3.89382776      -0.00584555       0.00092409      -0.00589343
C        7.42437023       4.24574764       3.99533357      -0.01022538       0.00130551      -0.00631065
C        6.17641355       6.37975645       3.78875100       0.00835277      -0.00024288       0.00070300
C        4.92012590       8.51387834       3.59522520      -0.00204521      -0.00329050      -0.00000198
C        0.00700885       1.40993513       3.67816574       0.00552273       0.00720148       0.00831063
C       -1.24250258       3.54694607       3.58015650       0.00455864       0.00540931      -0.00388388
C       -2.49195962       5.68069360       3.74093671      -0.00632776       0.00043103       0.00300558
C       -3.72338564       7.81124741       3.80738456      -0.00367074      -0.00420670       0.00027467
C       -4.95273569       9.93732703       3.79603352       0.00279108      -0.00253778      -0.00045228
C        2.46672248       1.37313806       3.99238410       0.00344788       0.00911511       0.00580873
S        1.44263762       3.62702339       2.98573283      -0.00836490      -0.00545861       0.00231449
C       -0.05491209       5.72221473       3.54104209      -0.00326672       0.00129176       0.00666786
C       -1.26546400       7.83253982       3.77124652       0.00408072      -0.00676851       0.00137059
C       -2.47815068       9.94176579       3.93416921       0.00347528       0.00166560      -0.00144196
C        4.93898170       1.39066872       4.17362629      -0.00113776       0.00592802      -0.00459533
S        3.64656925       3.55316826       5.14828659       0.00266739      -0.00738882      -0.01196860
C        1.21006189       7.80019807       3.65835832       0.00655350      -0.00361671       0.00422672
C       -0.00705993       9.94958176       3.89769246       0.00281843      -0.00323081      -0.00084893
C        7.40578556       1.40089705       4.00884106      -0.00236162      -0.00655002      -0.00247044
C        6.20655579       3.52422633       4.19468426      -0.00659189      -0.00512036      -0.00252876
C        4.99434855       5.60778585       3.82725279       0.01249670       0.00123430       0.00545895
C        3.67515892       7.86022963       3.43467957      -0.00123479      -0.00573568       0.00674304
C        2.46144364       9.95706723       3.76359563       0.00346772      -0.00710203      -0.00596582
C        9.88099629       1.41171917       3.75946031      -0.00230649      -0.00102616       0.00448103
C        8.64677843       3.53454574       3.88636668      -0.00643066       0.00610004      -0.00200765
C        7.40823068       5.66759146       3.88381695       0.00056701       0.00131725       0.00591544
C        6.14852606       7.79747236       3.67532598      -0.00588988      -0.00153928       0.00419249
C        4.92458105       9.94785005       3.68347408       0.00360652      -0.00210019       0.01332690
Co       2.38100424       5.17435645       4.38564247      -0.00428594      -0.01177293      -0.00265289
O        2.78918564       5.76826073       6.06143888      -0.00133171       0.00409773      -0.00343476
O        2.65642891       4.80384536       7.17671682      -0.00329080       0.00286041       0.00278803
H        2.93780518       5.39795495       7.89618803       0.00250295       0.01722544       0.00387433
