51
Lattice="12.336457 0.0 0.0 -6.168228499999997 10.683685154694365 0.0 0.0 0.0 15.0" Properties=species:S:1:pos:R:3:initial_magmoms:R:1:forces:R:3 energy=-443.91488115347926 free_energy=-443.91488115347926 stress="-0.0040068989174472935 -8.534415061871674e-06 -2.3993756974748277e-05 -8.534415061871674e-06 -0.0028713329978598237 5.136363250468857e-06 -2.3993756974748277e-05 5.136363250468857e-06 -3.0235448311783403e-06" pbc="T T T"
C        0.09476405       0.00601785       3.43307923       0.00000000      -0.00527355      -0.00114124       0.01683135
C       -1.14627737       2.12517423       3.35983481       0.00000000      -0.00486731       0.00133439       0.00633633
C       -2.37933598       4.26440151       3.36620932       0.00000000      -0.00004325      -0.00051964      -0.00688503
C       -3.60896207       6.40379985       3.44442886       0.00000000       0.00081829       0.00000647      -0.00256037
C       -4.84587025       8.54335915       3.50120168       0.00000000       0.00337185       0.00731119      -0.00186050
C        2.55827364      -0.00475971       3.46105127       0.00000000      -0.00447441      -0.00242632      -0.00169832
C        1.33106165       2.16609569       3.54586431       0.00000000      -0.00827294       0.00541323       0.00397125
C        0.08588219       4.25550251       3.42368837       0.00000000       0.00254771       0.00272660       0.00012469
C       -1.15261510       6.41090563       3.34992400       0.00000000       0.00385978      -0.00281499      -0.00118662
C       -2.38237161       8.54330454       3.37206382       0.00000000      -0.00252376      -0.00053076      -0.00078645
C        5.03155713      -0.01724404       3.48854981       0.00000000       0.00207822       0.00000969      -0.00448730
C        3.79158851       2.04330984       3.93005732       0.00000000       0.00317097      -0.00268586      -0.01454107
C        1.29625586       6.38927348       3.58335619       0.00000000      -0.00266155      -0.00140073       0.00439809
C        0.09245211       8.52666486       3.41643849       0.00000000      -0.00635072      -0.00392424      -0.00221286
C        7.49447465      -0.01401218       3.44197955       0.00000000      -0.00672898       0.01283167      -0.00055681
C        6.27297776       2.11599471       3.70628151       0.00000000       0.00491247       0.00598521       0.00201874
C        5.15828181       4.26677165       4.27106162       0.00000000       0.00183064      -0.00906099       0.00445597
P        3.75471803       6.51560635       5.02424363       0.00000000       0.01182055      -0.00021702       0.00414451
C        2.56195914       8.54396844       3.63393148       0.00000000      -0.00527850       0.00006731      -0.00906355
C        9.96058130      -0.00770659       3.42626778       0.00000000       0.00159019      -0.00251860      -0.00206296
C        8.72428688       2.12627622       3.42511469       0.00000000       0.00464537      -0.00444287      -0.00051287
C        7.51205579       4.26437638       3.62055728       0.00000000       0.00300844      -0.00467895       0.00555866
C        6.30286511       6.41913691       3.86383359       0.00000000       0.00527620       0.00594934      -0.00032333
C        5.03930855       8.56273484       3.70913741       0.00000000       0.00261524       0.00060410       0.00650214
C        0.09261654       1.43000339       3.41580735       0.00000000      -0.00858431      -0.00171527      -0.00300320
C       -1.15244810       3.54563752       3.34877027       0.00000000       0.00010030       0.00255706      -0.00076350
C       -2.37940300       5.69207712       3.36585944       0.00000000       0.00305632       0.00041041      -0.00335643
C       -3.61182297       7.83031188       3.42448220       0.00000000       0.00005418      -0.00041963       0.00190586
C       -4.84207425       9.96969183       3.44312730       0.00000000      -0.00351142       0.00153388      -0.00166456
C        2.56195405       1.41259387       3.63380669       0.00000000      -0.00645253      -0.00197604      -0.00392665
C        1.29652950       3.56719769       3.58062165       0.00000000      -0.00144204       0.00396834       0.00856630
C        0.08570462       5.70100899       3.42511927       0.00000000       0.00441201      -0.00158267      -0.00429177
C       -1.14632791       7.83142119       3.36129693       0.00000000      -0.00435240      -0.00343378      -0.00001003
C       -2.37591848       9.96441342       3.42601367       0.00000000      -0.00068306       0.00012771       0.00153793
C        5.03893237       1.39387777       3.70954967       0.00000000       0.00726566      -0.00024064       0.00270718
P        3.75602896       3.44109318       5.02523262       0.00000000       0.00826245       0.00197927       0.00073551
C        1.33088581       7.79037479       3.54722449       0.00000000      -0.00676419      -0.00430415       0.00436518
C        0.09445068       9.95055819       3.43212923       0.00000000      -0.00193131      -0.00084504       0.01838095
C        7.49059986       1.41222858       3.50138508       0.00000000       0.00018855       0.00978296      -0.00272060
C        6.30259784       3.53740941       3.86213308       0.00000000       0.00552934      -0.00346260       0.00706765
C        5.15783002       5.69059442       4.27159248       0.00000000       0.01245316      -0.00771180       0.00308699
C        3.79192674       7.91391966       3.92977738       0.00000000      -0.00192144      -0.00791194      -0.01087793
C        2.55850969       9.96080789       3.45943866       0.00000000      -0.00608853       0.00984935       0.00660677
C        9.95384191       1.41346023       3.37210204       0.00000000       0.00277748      -0.00303247      -0.00165062
C        8.72736033       3.55291573       3.44508597       0.00000000       0.00208863      -0.00612143      -0.00896174
C        7.51239400       5.69244387       3.62186449       0.00000000      -0.00141833      -0.00012804      -0.00487319
C        6.27300489       7.83980519       3.70606087       0.00000000       0.00580945       0.01182387       0.00470885
C        5.03185576       9.97419270       3.48955299       0.00000000      -0.00161460      -0.00538332      -0.00941755
Co       2.64565010       4.97769191       3.97184216       0.00000000      -0.01187718       0.00035801      -0.01056817
O        0.67338811       4.97933422       9.48694131       1.00000000      -0.01550732       0.00190849       0.00573333
O       -0.49424556       5.12719443       9.86736823       1.00000000       0.01508019      -0.00190750      -0.00492028
