52
Lattice="12.336457 0.0 0.0 -6.168228499999997 10.683685154694365 0.0 0.0 0.0 15.0" Properties=species:S:1:pos:R:3:forces:R:3 energy=-447.0298064417209 free_energy=-447.0298064417209 stress="-0.007069466167571069 4.555681349644729e-06 1.2334244159307471e-05 4.555681349644729e-06 -0.0014447787270448912 -2.0106398914502194e-05 1.2334244159307471e-05 -2.0106398914502194e-05 4.33672802258495e-05" pbc="T T T"
C       -0.00275052       0.00807016       3.58883588       0.00046597       0.00454718       0.00697387
C       -1.24874389       2.11868080       3.44146703       0.00068027      -0.00123778       0.00456824
C       -2.48148053       4.27150682       3.37087564       0.00179134      -0.00087970       0.00465446
C       -3.70015852       6.41969849       3.45344844      -0.00574826       0.00081143      -0.00080223
C       -4.93339479       8.55972344       3.62042590      -0.00661494       0.00207916      -0.00258541
C        2.46702869       0.02897097       3.60970340      -0.00062827       0.00367136       0.00604869
C        1.22225889       2.16740815       3.69634789       0.00357896       0.00035302       0.00315384
C       -0.06886201       4.23590794       3.76727361       0.00267880       0.00809704       0.00394904
C       -1.26968634       6.41353786       3.72515485       0.00356690      -0.00252987      -0.00501010
C       -2.46782188       8.55990994       3.61661760       0.00151143       0.00817521      -0.00345555
C        4.93642335       0.00925828       3.58899839       0.00244213       0.00294138       0.00071448
C        3.71090394       2.16813737       3.69891056       0.00639024      -0.00690582       0.00362597
P        1.03289398       6.36922585       5.16186482      -0.00077238      -0.00804200      -0.00236976
C       -0.00974012       8.56053810       3.89283799      -0.00714787      -0.00484652       0.00056335
C        7.40675989      -0.01345882       3.58394770      -0.00136217      -0.00328184      -0.00802086
C        6.18265340       2.11996958       3.44632352      -0.00282644      -0.00792943       0.00014247
C        5.00366734       4.23611811       3.77524116       0.00031126       0.00824636       0.00124525
P        3.89972735       6.36961063       5.16601946       0.00145229      -0.00358242      -0.00716303
C        2.46682084       8.57358458       4.10071892       0.00253390      -0.00834413      -0.00802509
C        9.86339184      -0.01454093       3.58117177       0.00609642      -0.00310896       0.00460361
C        8.63517024       2.11983998       3.34721875       0.00294011      -0.00111932       0.00011983
C        7.41674197       4.27187344       3.37620704      -0.00491671      -0.00491084      -0.00392707
C        6.20571917       6.41295651       3.73228666      -0.00597399       0.00620801       0.00202285
C        4.94443851       8.55978347       3.89757238       0.00345038       0.00006005      -0.00319023
C       -0.01343428       1.42706121       3.55527991       0.00181804       0.00131226       0.00329242
C       -1.26997797       3.53969000       3.45999709       0.00435313       0.00220071       0.00138765
C       -2.48011562       5.70054022       3.46175060      -0.00034452      -0.00174343       0.00267233
C       -3.70055507       7.84655932       3.55025173      -0.00050280       0.00588203      -0.00686089
C       -4.93191690       9.98907253       3.60867375      -0.00101704       0.00079844      -0.00079248
C        2.46673438       1.45296259       3.67623038       0.00317032      -0.00125164       0.00444223
C        1.14757959       3.54814745       3.88894434      -0.00500956      -0.00058193       0.00156908
C       -0.11384698       5.64975521       4.00208408       0.00877543       0.00753399       0.00528318
C       -1.24707384       7.84559311       3.76393059      -0.00485703      -0.00362534       0.00719287
C       -2.47032156       9.98927372       3.60660179       0.00313963       0.00971012       0.00515739
C        4.94680985       1.42841129       3.55731560       0.00234788      -0.00573422       0.00936138
C        3.78684212       3.54818681       3.89594794       0.01028761      -0.00381244      -0.00768893
C        1.20789960       7.91564476       4.24976317      -0.00369394      -0.00023898      -0.00475715
C       -0.00071291       9.97318292       3.66518475      -0.00467822      -0.00436725       0.00174368
C        7.41045652       1.40281473       3.41818232       0.00169923      -0.00280422      -0.00213017
C        6.20465185       3.54071336       3.46628657      -0.00394840      -0.00457209       0.00465098
C        5.04960428       5.64949927       4.01000115      -0.00346667       0.01082903       0.00371977
C        3.72568374       7.91567385       4.25263103       0.00911636      -0.00214313      -0.00074254
C        2.46679155       9.96466943       3.72223986       0.00306313      -0.00527903      -0.00522752
C        9.85967450       1.40180527       3.41465956       0.00153055      -0.00055906       0.00036778
C        8.63555331       3.55235633       3.31119021       0.00144000      -0.00083437      -0.00359288
C        7.41633537       5.70055755       3.46679554      -0.01280237      -0.00181832       0.00258232
C        6.18283717       7.84504839       3.77126810      -0.00502693       0.00120046      -0.00330945
C        4.93458611       9.97185671       3.66579188       0.00374774       0.00091104      -0.00230630
Co       2.46805894       4.89543273       4.38851616      -0.00556418      -0.00004631      -0.00299909
O        2.36646283       4.52192228       7.63509804      -0.00890221       0.00198931       0.00343495
O        2.44833993       5.14280022       8.84977545       0.00559979       0.00896502      -0.01174752
H        3.32743512       4.89235179       9.21209079      -0.00417430      -0.00039226      -0.00253975
