51
Lattice="12.336457 0.0 0.0 -6.168228499999997 10.683685154694365 0.0 0.0 0.0 15.0" Properties=species:S:1:pos:R:3:initial_magmoms:R:1:forces:R:3 energy=-447.7560777698582 free_energy=-447.7560777698582 stress="-0.007861787266313843 -0.0009579415094429597 -4.78185187287015e-06 -0.0009579415094429597 -0.002100800128017207 1.687425176399356e-05 -4.78185187287015e-06 1.687425176399356e-05 2.9230238066474e-06" pbc="T T T"
C        0.00915629       0.01411654       3.84841888       0.00000000      -0.00417534      -0.00218103       0.00182554
C       -1.24063873       2.12867039       3.83323140       0.00000000       0.00171299      -0.00354066      -0.01639682
C       -2.46556631       4.27429535       3.81030792       0.00000000      -0.00113070       0.01354832      -0.00291651
C       -3.67753601       6.42382305       3.81471012       0.00000000      -0.00719271       0.00486798      -0.00037371
C       -4.90864222       8.57305047       3.85201429       0.00000000      -0.00655544      -0.00300324      -0.00186861
C        2.47911603       0.01817835       3.78822029       0.00000000      -0.00102621      -0.00062567      -0.00995017
C        1.23733033       2.17864002       3.74609720       0.00000000       0.00007951       0.00402612      -0.00166752
C       -0.01302324       4.26642064       3.82010618       0.00000000      -0.00165552      -0.00261742       0.00161777
C       -1.24229349       6.42850789       3.83038182       0.00000000      -0.00085231       0.00073392       0.00982722
C       -2.45819142       8.56749064       3.82499717       0.00000000       0.00488481      -0.00507234       0.01134414
C        4.94629774       0.00685493       3.67283009       0.00000000       0.00673078       0.00573020      -0.00216620
C        3.69243647       2.09403171       3.36836547       0.00000000       0.00166745       0.00491019       0.00223379
C        1.19635482       6.40574859       3.81765549       0.00000000      -0.01612595       0.00468512      -0.00586027
C        0.00425864       8.54715901       3.78199306       0.00000000       0.00852368      -0.00359021      -0.00029353
C        7.41286325      -0.00812869       3.70704319       0.00000000      -0.00139558      -0.00885486       0.00251804
C        6.18487789       2.13690210       3.50647585       0.00000000       0.00791551      -0.00679964      -0.00485923
C        5.03575984       4.33550518       3.30899350       0.00000000       0.00072416       0.00140776       0.00882430
C        3.78003897       6.41316840       3.63791454       0.00000000       0.00183344       0.00455553       0.00506256
C        2.48042999       8.52658304       3.77048913       0.00000000       0.00511228       0.00478474      -0.00155739
C        9.87384153      -0.01017916       3.79708963       0.00000000      -0.00518497      -0.01115776       0.00607278
C        8.63994134       2.13138595       3.72803308       0.00000000       0.00673285      -0.00584945       0.00235696
C        7.43374636       4.28266552       3.65618457       0.00000000      -0.00743487       0.00312312       0.00089943
C        6.23218411       6.44718067       3.69784309       0.00000000      -0.00233209       0.01123583      -0.00412283
C        4.96054882       8.55221106       3.79640997       0.00000000      -0.00561485       0.00411599      -0.00025161
C       -0.00019099       1.43559352       3.82973983       0.00000000       0.00210287      -0.00052951      -0.00376012
C       -1.24742479       3.55135453       3.82746193       0.00000000      -0.00195291       0.00190534      -0.00501663
C       -2.46058496       5.70361281       3.82433018       0.00000000      -0.00408503       0.01306597       0.01178201
C       -3.68204900       7.85305713       3.84416464       0.00000000      -0.00388746       0.00015103      -0.00289155
C       -4.91865640       9.99304273       3.85325598       0.00000000      -0.00519370      -0.00372420       0.00077203
C        2.47394433       1.43547993       3.64741960       0.00000000      -0.00102823       0.00440195      -0.00575195
C        1.20147431       3.57859111       3.76165319       0.00000000       0.00106249       0.00342667      -0.00172185
C       -0.01691320       5.71328887       3.82646298       0.00000000      -0.00686075      -0.00418422       0.00174726
C       -1.22990530       7.85117398       3.81754441       0.00000000       0.00777757      -0.00412475      -0.00319181
C       -2.45552059       9.98905265       3.77057854       0.00000000       0.00611879      -0.00056949      -0.00394238
C        4.94569908       1.42727456       3.49802381       0.00000000       0.00562095       0.00599683      -0.00663012
P        3.54417013       3.69525262       2.60530303       0.00000000       0.00482807      -0.00516424       0.00773000
C        1.24413441       7.80377955       3.78546172       0.00000000       0.00781022       0.00253713       0.00463633
C        0.00941163       9.96964782       3.72109856       0.00000000       0.00171099      -0.00506648      -0.00247168
C        7.40747836       1.42042706       3.64819680       0.00000000       0.00789840      -0.01110588      -0.00677502
C        6.20825438       3.56855095       3.47004255       0.00000000      -0.00245724      -0.00565298      -0.00040272
C        5.01424782       5.74722140       3.52550661       0.00000000       0.00175354       0.00513260       0.00856797
C        3.72162703       7.80910216       3.74223895       0.00000000      -0.00027252       0.00539692       0.00531085
C        2.47518144       9.95194817       3.76176988       0.00000000      -0.00470155      -0.00272058       0.00948352
C        9.86505701       1.41327833       3.79716579       0.00000000       0.00387328      -0.01343055       0.00444163
C        8.64564068       3.56084342       3.74097165       0.00000000      -0.00118946       0.00571956      -0.00355309
C        7.44209611       5.70989721       3.72962715       0.00000000      -0.00664522       0.00672072      -0.00380385
C        6.20221486       7.86084738       3.80061276       0.00000000      -0.00825216       0.00661306       0.00493783
C        4.94666402       9.97183965       3.82985520       0.00000000      -0.00467511      -0.00184938      -0.00546365
Co       2.53159273       5.04980436       4.04783558       0.00000000       0.00465865      -0.00365994      -0.00556902
O        1.62922558       4.61703570       6.58997541       1.00000000      -0.00144775      -0.00795704       0.00733788
O        2.71419277       4.70215956       5.90605908       1.00000000       0.01219232      -0.00576110      -0.00610002
