52
Lattice="12.336457 0.0 0.0 -6.168228499999997 10.683685154694365 0.0 0.0 0.0 15.0" Properties=species:S:1:pos:R:3:forces:R:3 energy=-456.0329138777932 free_energy=-456.0329138777932 stress="-0.005894321366564928 2.125608217571726e-05 -8.774277283847556e-06 2.125608217571726e-05 0.0075634578322299984 -5.733309365423466e-06 -8.774277283847556e-06 -5.733309365423466e-06 6.074531378040613e-06" pbc="T T T"
C       -0.00456273       0.05957692       3.78244595      -0.00314014      -0.00214539      -0.00099744
C       -1.25821985       2.16066972       3.76650444       0.00204512       0.00031429      -0.00121108
C       -2.49502842       4.31033886       3.71857075      -0.00083800       0.00000316       0.00359825
C       -3.70969559       6.46717119       3.70287220      -0.00508712       0.00002568       0.00418107
C       -4.93246983       8.62250726       3.73979323       0.00052087       0.00068765      -0.00071224
C        2.46675517       0.11253562       3.78334096      -0.00230157       0.00236251       0.00106747
C        1.22723473       2.26440295       3.82456752       0.00144207       0.00073561       0.00239380
C       -0.05810317       4.30895476       3.80053644      -0.00149139       0.00126024      -0.00086376
C       -1.27836560       6.47112552       3.75515415      -0.00036689       0.00068041      -0.00197555
C       -2.48337694       8.62419301       3.75497940      -0.00015083      -0.00594913      -0.00395173
C        4.93139603       0.06241271       3.77048673      -0.00198322      -0.00122431       0.00932634
C        3.71828292       2.26738736       3.77815530       0.00455566       0.00288591      -0.00105611
C        1.16919192       6.39320603       3.88524036       0.00308036      -0.00478572      -0.00594191
C       -0.00921455       8.56607438       3.79710938       0.00153188       0.00317712       0.00056829
C        7.40450807      -0.00008888       3.77205487       0.00420557      -0.00291672       0.00445184
C        6.17826661       2.16287686       3.73029603       0.00120649       0.00265391      -0.00353724
C        4.97171776       4.30265822       3.69592993       0.00073116      -0.00098694      -0.00289251
N        3.77803739       6.40711864       3.79625484       0.00249072       0.00396969      -0.00459858
C        2.47344239       8.50643972       3.81619061      -0.00517602       0.00129048       0.00383962
C        9.85861437       0.00000098       3.77668841       0.00316828       0.00128043      -0.00229618
C        8.62975358       2.15231153       3.73204558      -0.00598025      -0.00396821       0.00212497
C        7.40815106       4.31160227       3.68708959       0.00178840       0.00214705      -0.00953100
C        6.18753770       6.46784531       3.68615766       0.00048398      -0.00260085       0.00470819
C        4.93599598       8.56095489       3.76335694       0.00060240      -0.00299733       0.00235407
C       -0.00894087       1.48805014       3.79394341       0.00149720      -0.00174993      -0.00012327
C       -1.27956399       3.58369914       3.75179739       0.00025942       0.00044971       0.00289148
C       -2.49429885       5.74481673       3.71830981      -0.00379509       0.00224185       0.00112172
C       -3.70676777       7.90295497       3.72907126      -0.00198720      -0.00251259      -0.00453403
C       -4.93131905      10.05498963       3.77262404      -0.00340575       0.00164459      -0.00184740
C        2.47343341       1.54746289       3.80516994       0.00455499       0.00422536      -0.00409352
C        1.16596350       3.65950836       3.86709597      -0.00401943      -0.00037055       0.00635637
C       -0.05789126       5.74478623       3.80598264      -0.00040945       0.00016886      -0.00614506
C       -1.25779744       7.89376918       3.76766306       0.00265761       0.00002296       0.00009107
C       -2.47745115      10.05503817       3.77145763      -0.00388048      -0.00417796       0.00067128
C        4.93588507       1.49351076       3.75784934       0.00245508       0.00165091       0.00170099
N        3.77939554       3.64594769       3.78008962       0.00037257       0.00117774      -0.00204915
C        1.22821055       7.79059503       3.83526474      -0.00300808      -0.00240407       0.00351670
C       -0.00480650       9.99489108       3.77939879       0.00235897       0.00288633       0.00506153
C        7.40412093       1.43238112       3.74190896      -0.00422486      -0.00480000       0.00313126
C        6.18851202       3.58619495       3.69237817       0.00305929       0.00277783      -0.00618963
C        4.97360488       5.75079346       3.69857045       0.00128189      -0.00155808       0.00086205
C        3.71871861       7.78659616       3.79291843      -0.00329587       0.00340749       0.00268982
C        2.46635631       9.94273511       3.78780863       0.00429602       0.00108028       0.00313501
C        9.85295472       1.43083506       3.75737231      -0.00074430       0.00100666      -0.00298939
C        8.62657448       3.58761003       3.70745157      -0.00129180      -0.00239690      -0.00409497
C        7.40842857       5.74266855       3.68194748      -0.00192447       0.00020497       0.00504980
C        6.17756569       7.89189043       3.72603218       0.00265161      -0.00217337       0.00373616
C        4.93101997       9.99251357       3.77713968       0.00003144      -0.00364581      -0.00304377
Co       2.50328506       5.03488474       4.16594979       0.00277139       0.00413703      -0.00104201
O        3.01140245       5.03141488       5.92905572      -0.00208593      -0.00603507      -0.00029748
O        2.94289220       3.71351690       6.53760847      -0.00548300       0.01135759       0.00258467
H        2.43112624       3.94268632       7.34019697       0.00997069      -0.00251533      -0.00519881
