53
Lattice="12.336457 0.0 0.0 -6.168228499999997 10.683685154694365 0.0 0.0 0.0 15.0" Properties=species:S:1:pos:R:3:forces:R:3 energy=-458.1361200857698 free_energy=-458.1361200857698 stress="-0.002686102173308402 0.003885254532774722 -1.5377584390464085e-05 0.003885254532774722 -0.004334018499341127 8.793009259310929e-06 -1.5377584390464085e-05 8.793009259310929e-06 7.039303901184459e-06" pbc="T T T"
C        0.08303202      -0.03889273       3.79497109      -0.00445953      -0.00388650      -0.00870293
C       -1.12650058       2.11510679       3.86122109       0.00246709       0.00353331       0.00271459
C       -2.35429668       4.23876449       3.85766059       0.00309842      -0.00128953       0.00090089
C       -3.62038980       6.36320392       3.80165414       0.00386922      -0.00742743      -0.00286693
C       -4.87283058       8.49167224       3.74782983       0.00366097      -0.00483919      -0.00395671
C        2.54147276      -0.05860656       3.80533516       0.00315383      -0.00368638       0.01257922
C        1.33425671       2.10205972       3.88827347      -0.00068753       0.00104961      -0.00055430
C        0.12803616       4.28499245       3.91167305      -0.00328240       0.00717299       0.00585884
C       -1.15528739       6.38069417       3.79345482      -0.00682599       0.00649081      -0.00378058
C       -2.39461674       8.49785386       3.76720869      -0.00745415       0.00250112      -0.00441790
C        5.01559503      -0.05156749       3.77500485       0.00094072       0.00534355      -0.00805811
C        3.79487101       2.05387287       3.82770614      -0.00700480      -0.00098189      -0.01085348
C        2.61792089       4.16420183       4.05061090      -0.00104177      -0.00479429       0.00223025
O        1.20753346       6.45896036       3.72962826       0.01342774      -0.00445608       0.01138332
C        0.05814830       8.51458575       3.65776865      -0.00938143       0.00631516       0.01151310
C        7.48442668      -0.04234407       3.74906161       0.00350209      -0.00498540      -0.00601967
C        6.27070390       2.07274935       3.81107280      -0.00598585       0.00172710       0.00878299
C        5.04702612       4.17922280       3.73113254       0.00134864       0.00003515       0.00731672
S        3.76366616       6.27630388       2.56570760      -0.00233225       0.00733137      -0.00342385
C        2.51050785       8.51274548       3.54017515       0.00142200      -0.00654827      -0.00961924
C        9.95580813      -0.03181587       3.75327185       0.00129637      -0.00270181      -0.00609429
C        8.73933064       2.09594902       3.83065093      -0.00258923      -0.00135383       0.00379602
C        7.50945388       4.21901134       3.80743296       0.00627912       0.00703949       0.00058132
C        6.25246854       6.35475396       3.66506244      -0.00156369       0.00180614       0.00531727
C        5.00082028       8.49987311       3.60209464       0.00567264      -0.00125546      -0.00148392
C        0.09776396       1.39242807       3.85113719      -0.00014650      -0.00101991       0.01186316
C       -1.10696639       3.54952450       3.88370027       0.00120540       0.00304032       0.00176308
C       -2.38020914       5.65621864       3.83011980       0.00221720      -0.00394608      -0.00568216
C       -3.63423029       7.78476794       3.77782187       0.00048127      -0.00861566      -0.00678138
C       -4.86295962       9.91976858       3.78329491      -0.00031971      -0.00279133       0.00337394
C        2.55130858       1.36457502       3.84557656      -0.00228376      -0.00285348      -0.00267908
C        1.38018487       3.55132952       3.95849642      -0.00191807       0.00540645      -0.00174335
C        0.05237244       5.68690240       3.82088696      -0.00496862       0.00504996       0.00718814
C       -1.17138323       7.79799956       3.73382018      -0.01173481       0.00676659      -0.00361424
C       -2.39338534       9.92240246       3.77910399       0.00451416       0.00156126      -0.00329723
C        5.03149059       1.36298013       3.80241776      -0.00735340       0.00268514       0.00110753
C        3.80401031       3.47715390       3.83926194      -0.00251824      -0.00177661      -0.00413551
C        1.26246854       7.84474137       3.56621595      -0.00405136       0.00177566       0.00330202
C        0.07961315       9.93706067       3.72282079      -0.00093478       0.00516879       0.00239401
C        7.50211719       1.37797242       3.80687688      -0.00641375      -0.00404486      -0.00448492
C        6.28223618       3.49313499       3.79303550       0.00594861       0.00391458       0.00492281
C        5.05365175       5.59141594       3.53479252      -0.00406545       0.00024362       0.00693927
C        3.76572333       7.82774490       3.40801442       0.00716567       0.00011490      -0.00205509
C        2.54395114       9.93711210       3.69016240       0.00455164      -0.00634954      -0.01013262
C        9.97294970       1.39423209       3.82407273       0.00154601       0.00071902      -0.00338309
C        8.74550263       3.51791015       3.84137103       0.00271214       0.00163317       0.00938639
C        7.48763434       5.64434852       3.77733255       0.00157395       0.00462886       0.00177069
C        6.22939815       7.77361584       3.65748103       0.00481715      -0.00061077      -0.00402983
C        5.01501774       9.93415501       3.72870800      -0.00232673      -0.00507561      -0.00144727
Co       3.08279679       5.93379023       4.76402117       0.00518253      -0.00441091       0.00268538
O        2.65339846       6.39791299       6.39815045       0.01437200      -0.00634728      -0.00068968
O        1.22428909       6.73798244       6.52543085      -0.00628785       0.00077012       0.00018392
H        1.18404874       6.71289260       7.50281177       0.00150509       0.00222383      -0.00586748
