52
Lattice="12.336457 0.0 0.0 -6.168228499999997 10.683685154694365 0.0 0.0 0.0 15.0" Properties=species:S:1:pos:R:3:forces:R:3 energy=-449.0907339384893 free_energy=-449.0907339384893 stress="-0.005489550628818742 -0.00040637067790376386 2.6143920955979145e-05 -0.00040637067790376386 0.001123298668646459 -1.838827876044707e-05 2.6143920955979145e-05 -1.838827876044707e-05 8.833774626577167e-06" pbc="T T T"
C        0.04191741       0.03728203       3.74980203       0.00762332      -0.00136902       0.01274907
C       -1.20666608       2.15998992       3.58919219       0.01092635      -0.00818182      -0.00761795
C       -2.45552537       4.30482552       3.74546969       0.00274329      -0.00144830      -0.01034125
C       -3.67411082       6.44816537       3.90898106      -0.00351845       0.00088001       0.00153263
C       -4.89478276       8.59115263       3.92076348       0.00194569       0.00288808      -0.01130798
C        2.51164557       0.04709417       3.83050667       0.00313721       0.00333193      -0.00737787
C        1.28772734       2.12172820       3.41775741      -0.00332711       0.00658800       0.00826137
C       -0.06319278       4.35311354       3.35300893       0.00622854       0.00344956      -0.00105077
C       -1.25080461       6.46830033       3.73977981      -0.00287797      -0.00234508      -0.00594103
C       -2.43479283       8.59778477       3.90047244       0.00434606      -0.01044284       0.00690100
C        4.98283300       0.03706841       3.87552802      -0.00463649       0.00519528       0.00507761
C        3.75073860       2.21784274       3.77027189      -0.00772291      -0.00342878      -0.00807348
C        1.19954831       6.41937196       3.61195404       0.00223872      -0.00157239       0.00408996
C        0.04517749       8.56128416       3.82777687       0.00554746       0.00447420       0.00538897
C        7.45469595       0.00514659       3.85292300       0.00123417      -0.00474417       0.00779526
C        6.22055456       2.16278273       3.88474927       0.00047597       0.00375592      -0.00031167
C        4.97505158       4.32914176       3.89249163      -0.00478125      -0.00102530       0.00117154
O        3.85058296       6.48603140       4.02355765      -0.00528006      -0.00621022      -0.00194845
C        2.53681972       8.51967293       3.85251244      -0.00640012      -0.00258411       0.00059871
C        9.90979575       0.00858181       3.79474423      -0.00533112       0.00434932       0.00349730
C        8.67712298       2.15446738       3.81430934      -0.00451177       0.00877800      -0.00547157
C        7.43769470       4.30420463       3.90924320      -0.00743512       0.00258415      -0.00660699
C        6.21945318       6.45738845       3.95902834       0.01112154      -0.00599549      -0.00162177
C        4.98651191       8.57471031       3.90222937      -0.00158495      -0.00223369       0.00006911
C        0.03755054       1.45641315       3.56720620       0.00944014      -0.00559390       0.00331397
C       -1.23167409       3.59023118       3.54819090       0.01277506      -0.00716697      -0.00649469
C       -2.45920903       5.73255637       3.80587795      -0.00595458      -0.00060347       0.00372972
C       -3.66264815       7.87863060       3.92412290      -0.00216826      -0.00153575       0.00016499
C       -4.89093456      10.01866526       3.83945021       0.00659953       0.00388814       0.01244004
C        2.51423469       1.46782841       3.68220760      -0.00851363       0.00364058       0.00225169
P        1.40700589       3.70293969       2.60102165       0.00136768      -0.00178879       0.00217154
C       -0.03880941       5.76543130       3.54228413      -0.00033979       0.00343016       0.00012368
C       -1.20920245       7.88221542       3.83813676       0.00860817      -0.00397267      -0.00058917
C       -2.42601290      10.01882215       3.88996754      -0.00022175      -0.00671920      -0.01034532
C        4.98493823       1.46453653       3.85937932      -0.00350995       0.00600789      -0.00386886
C        3.76347577       3.62220489       3.78166166       0.00246959      -0.01149607      -0.01208873
C        1.28109891       7.79877508       3.77465839       0.00018149      -0.00088750      -0.01062246
C        0.04702345       9.98740117       3.86363362      -0.00146929       0.00579061       0.01505958
C        7.45304508       1.43553426       3.86291631       0.00092942      -0.00238273      -0.00410356
C        6.21594587       3.59252956       3.90330901      -0.00663443       0.00338925       0.00209458
C        5.02766940       5.75283091       3.94109291       0.00599597      -0.00266242       0.00854672
C        3.78224494       7.87541283       3.91344252      -0.00528398      -0.00280754      -0.00001257
C        2.52058816       9.95627893       3.83842866      -0.00261905      -0.00431170       0.01389616
C        9.91042766       1.44325120       3.73459823      -0.00197231       0.00546825       0.00145921
C        8.66883133       3.58482754       3.83567562      -0.00516125       0.01035770      -0.00758264
C        7.44232528       5.72844077       3.93774742       0.00647648      -0.00382694      -0.00507109
C        6.22095343       7.87941079       3.94096867       0.00466040      -0.00321221       0.00416819
C        4.97898967      10.00125143       3.81536311      -0.00006718       0.00419857       0.00383129
Co       2.37916436       4.97014321       4.07280583      -0.00131165       0.00088574       0.00360580
O        2.48128786       5.04503004       5.88368600       0.00018508       0.00997749      -0.00613659
O        1.72339307       3.96650487       6.51353935      -0.01274530       0.01038023       0.00584988
H        2.03659984       4.10202939       7.43036617      -0.00187759      -0.00314001      -0.00525309
