51
Lattice="12.336457 0.0 0.0 -6.168228499999997 10.683685154694365 0.0 0.0 0.0 15.0" Properties=species:S:1:pos:R:3:initial_magmoms:R:1:forces:R:3 energy=-452.15139279562055 free_energy=-452.15139279562055 stress="-0.006285278482156095 -0.00017375909194118665 -2.1913380004179204e-06 -0.00017375909194118665 0.005979986478682571 2.6199639228222794e-06 -2.1913380004179204e-06 2.6199639228222794e-06 -2.0463063069496645e-06" pbc="T T T"
C       -0.00103893      -0.01675852       3.56725439       0.00000000       0.00992407      -0.00368213       0.00999385
C       -1.24746372       2.08728631       3.55300090       0.00000000      -0.00145446       0.00142875       0.00634280
C       -2.48058612       4.23420889       3.55860520       0.00000000      -0.00887036      -0.00589439       0.01538435
C       -3.70229807       6.38876250       3.58040280       0.00000000       0.00423817       0.00515315       0.01157131
C       -4.92957190       8.54188410       3.58643108       0.00000000       0.01135345       0.00210788      -0.00608344
C        2.46206838       0.02756655       3.56485844       0.00000000       0.00640948       0.00011157       0.01795851
C        1.21197376       2.18020046       3.55782777       0.00000000      -0.00096944       0.00073383      -0.00041577
C       -0.04404458       4.21358855       3.55332597       0.00000000       0.00075233       0.00368998       0.00069377
C       -1.26898770       6.39042454       3.56467796       0.00000000      -0.00396177       0.00328975       0.00303195
C       -2.47894418       8.54484781       3.57419079       0.00000000       0.00483407       0.00184530       0.00062020
C        4.93566290      -0.01832357       3.57394797       0.00000000      -0.00463355      -0.00698741       0.01228013
C        3.70290839       2.18178860       3.56867625       0.00000000       0.00347762       0.00253406       0.01454770
C        1.17620085       6.32037583       3.57272752       0.00000000      -0.00717618      -0.00054025      -0.00521512
C       -0.00677027       8.49214295       3.57709904       0.00000000      -0.00063750       0.00674598       0.00437027
C        7.41038310      -0.07352418       3.58397074       0.00000000      -0.00643118       0.00854613      -0.00532814
C        6.18688519       2.08553135       3.59019379       0.00000000      -0.00659673       0.00097659      -0.00393354
C        4.97705065       4.23942099       3.59195803       0.00000000      -0.00108674       0.01046643       0.00668624
N        3.78642755       6.34110888       3.58696561       0.00000000      -0.01071269      -0.00954973      -0.00177764
C        2.47859546       8.43916479       3.58298128       0.00000000      -0.00033833      -0.01204879       0.00229279
C        9.86566941      -0.07224177       3.57304524       0.00000000      -0.00564307      -0.00308373       0.00596620
C        8.63733432       2.07812197       3.57624778       0.00000000       0.00069224      -0.00625586       0.00273257
C        7.41935672       4.23502771       3.59573771       0.00000000      -0.00066892      -0.00409722      -0.01403846
C        6.19577864       6.39518755       3.60098663       0.00000000       0.00188987       0.00274645       0.00286424
C        4.94018294       8.48698500       3.58837561       0.00000000       0.00951514       0.00221577      -0.00231882
C       -0.00601502       1.41417211       3.55709772       0.00000000      -0.00091309      -0.00423242      -0.00216265
C       -1.26053572       3.50564046       3.54707313       0.00000000      -0.00287023       0.00332052       0.01804513
C       -2.48356007       5.66644769       3.56461026       0.00000000      -0.00231229      -0.00151991       0.00900509
C       -3.70288451       7.82333886       3.58152884       0.00000000       0.00888127       0.00473121      -0.00635143
C       -4.93153344       9.97367611       3.57380531       0.00000000       0.01307332      -0.00257878      -0.01002934
C        2.45642064       1.46178116       3.56111742       0.00000000       0.00157683       0.00291312       0.00498771
N        1.14947893       3.55966387       3.56048907       0.00000000       0.00336514       0.00313284      -0.00685375
C       -0.04078329       5.66053219       3.56299042       0.00000000      -0.00487821       0.00187960      -0.00994604
C       -1.25131893       7.81483347       3.57327459       0.00000000       0.00222621       0.00479034      -0.01111394
C       -2.47505733       9.97407909       3.57003488       0.00000000      -0.00079122      -0.00426142       0.00067447
C        4.94226136       1.40831820       3.57842419       0.00000000      -0.00185159      -0.00722878      -0.00722082
C        3.76005424       3.57986000       3.57512070       0.00000000       0.00265464       0.00475141       0.00275516
C        1.23261864       7.71868325       3.57908248       0.00000000      -0.00571745      -0.00425144      -0.00491302
C       -0.00006943       9.91881462       3.58024865       0.00000000      -0.00402088       0.00530133      -0.00585310
C        7.41404559       1.35566274       3.58625160       0.00000000      -0.00280491       0.00623256      -0.00645532
C        6.20528951       3.50999130       3.59820214       0.00000000      -0.00530733       0.00271087      -0.01089005
C        4.97976511       5.68660117       3.59617172       0.00000000      -0.00261012       0.00450524       0.00091967
C        3.72282914       7.72067127       3.58779594       0.00000000       0.00675865      -0.00739684      -0.00664204
C        2.47288852       9.87338482       3.58139692       0.00000000      -0.01005119      -0.00623075      -0.00352350
C        9.86350931       1.35946240       3.56563551       0.00000000      -0.00000177      -0.00200017      -0.00039373
C        8.63777565       3.51288944       3.57697491       0.00000000      -0.00424754      -0.01124790      -0.00164577
C        7.41624242       5.66731540       3.59655822       0.00000000       0.00361036       0.00048303      -0.01582300
C        6.18158521       7.81365541       3.59584968       0.00000000       0.01012903       0.00434370      -0.01348507
C        4.93483883       9.91795554       3.57536390       0.00000000       0.00375198       0.00376069       0.00078815
Co       2.46834039       4.95047168       3.57101100       0.00000000      -0.00157621      -0.00243581       0.00718629
O        2.75195379       5.25282293       9.68616262       1.00000000       0.00924044      -0.01374459       0.00607128
O        2.10422428       6.21663712       9.26185808       1.00000000      -0.00921934       0.01382024      -0.00535630
