52
Lattice="12.336457 0.0 0.0 -6.168228499999997 10.683685154694365 0.0 0.0 0.0 15.0" Properties=species:S:1:pos:R:3:forces:R:3 energy=-456.2884354175766 free_energy=-456.2884354175766 stress="-0.003234566486666047 -8.527507014971089e-06 -1.0691152196820152e-05 -8.527507014971089e-06 0.0065760113374202355 -5.563768563981408e-06 -1.0691152196820152e-05 -5.563768563981408e-06 -1.822495092032715e-06" pbc="T T T"
C        0.02158877      -0.14895357       3.75491860      -0.00562103      -0.00728410      -0.00976353
C       -1.22325818       1.96097776       3.75706061       0.00385863       0.00922411       0.01008309
C       -2.45246009       4.10798261       3.76448272      -0.00309006      -0.00296579       0.00216838
C       -3.67656558       6.25841313       3.76879452       0.00052138      -0.00587536       0.00525615
C       -4.90606662       8.40773766       3.76512069      -0.00470391       0.00319453      -0.00519058
C        2.49215414      -0.11581560       3.75911040       0.00011270      -0.00148148       0.00923099
C        1.25480806       2.04330267       3.75734019      -0.00430863      -0.01206568      -0.00617839
C       -0.00083751       4.11445091       3.75465478       0.00251860       0.00774825      -0.00989153
C       -1.22982145       6.26469168       3.75607790       0.00340246      -0.00023324       0.00502153
C       -2.44607976       8.40795739       3.76170392       0.00098744      -0.00812461      -0.00593178
C        4.96306692      -0.14966220       3.75372025      -0.00127991       0.00190150      -0.00598261
C        3.72919244       2.04285456       3.75945742       0.00528765      -0.00518756      -0.01130375
N        1.18601502       6.21931647       3.71693842       0.00019099       0.00197512      -0.01235044
C        0.02885105       8.35679777       3.72085855       0.00463656       0.00156908      -0.00990082
C        7.43362151      -0.19880402       3.73437836      -0.00502240       0.00400065       0.00508608
C        6.20653204       1.96101732       3.76161398       0.00428542       0.00874058      -0.00427193
C        4.98427322       4.11547854       3.75653246      -0.00263968      -0.01175980      -0.00272267
N        3.79624121       6.21909983       3.71854313       0.01312623       0.00841386       0.00154970
C        2.49208342       8.30163385       3.69685781      -0.00555066       0.00748231       0.00114944
C        9.88678808      -0.19878263       3.73550232       0.00337626       0.00271595      -0.00845124
C        8.66000850       1.95296447       3.75841226      -0.00264790      -0.00681906      -0.00791780
C        7.43570999       4.10796899       3.76750010       0.00419525      -0.00040529       0.00081109
C        6.21266155       6.26492748       3.76121860       0.00179775      -0.00024191       0.00000794
C        4.95513966       8.35739182       3.72575843      -0.00362091       0.00211209      -0.00173160
C        0.01642703       1.27918029       3.75804486      -0.00567094      -0.00819643      -0.00921055
C       -1.23073183       3.38727693       3.76122243       0.00339098       0.01017707      -0.00163756
C       -2.45299273       5.53888746       3.76488431       0.00201251      -0.00405012       0.00959913
C       -3.67605636       7.69026905       3.76811473      -0.00467795      -0.00487328       0.00176523
C       -4.90655557       9.83746297       3.75902824      -0.00309029       0.00246235       0.01047068
C        2.49190008       1.31686345       3.75910420       0.00359233      -0.00513294      -0.00451264
C        1.22773509       3.45679493       3.74933374      -0.00638713      -0.00944062       0.00943431
C       -0.00719729       5.56035839       3.74192774       0.00171721       0.00562779      -0.00394249
C       -1.21936711       7.68212436       3.74950275       0.00744274      -0.00148033       0.00069275
C       -2.44543618       9.83756590       3.75756184      -0.00040745      -0.00523006       0.00858386
C        4.96750532       1.27846079       3.75861804       0.00791445       0.00381414       0.00349339
C        3.75649002       3.45651618       3.75281754      -0.00724971      -0.00463609      -0.00044982
C        1.24768656       7.59841233       3.69639431       0.00052892       0.00082831       0.00455793
C        0.02760581       9.79109669       3.73767680      -0.00219877       0.00144204       0.00087089
C        7.43546671       1.23233844       3.75381764      -0.00516690       0.00158975      -0.00368012
C        6.21378895       3.38767306       3.76531276       0.00494246       0.00258862      -0.00237054
C        4.99024070       5.56110086       3.74308721       0.00456427      -0.00753022       0.01265328
C        3.73640417       7.59932458       3.69990649      -0.00274239       0.00830652       0.00013501
C        2.49205586       9.74271294       3.71312819      -0.00190402       0.00806987       0.00893681
C        9.88444134       1.23228316       3.75175853       0.00504074       0.00390903       0.00048062
C        8.65994305       3.38832065       3.76481716      -0.00205217      -0.00779033       0.00661285
C        7.43603933       5.53889142       3.76841601       0.00091765      -0.00161793       0.00640604
C        6.20307846       7.68238490       3.75698692      -0.00373279       0.00195222      -0.01728602
C        4.95677911       9.79171446       3.73874254      -0.00169344      -0.00476400       0.01530306
Co       2.49192353       4.83160653       3.73807493      -0.01217614       0.01344765       0.00669571
O        2.45753285       6.99937129       6.12235309       0.00832058       0.00193331      -0.00868409
O        2.15508557       8.03632525       6.94172843      -0.00602728      -0.00081583       0.00158370
H        2.32676417       7.68371918       7.84258902       0.00498030       0.00277538       0.00472284
