51
Lattice="12.336457 0.0 0.0 -6.168228499999997 10.683685154694365 0.0 0.0 0.0 15.0" Properties=species:S:1:pos:R:3:initial_magmoms:R:1:forces:R:3 energy=-445.0173413837938 free_energy=-445.0173413837938 stress="-0.005157899574955218 -0.004028294640485005 -5.199485125829219e-06 -0.004028294640485005 0.0005327293077130249 1.6807332752504194e-05 -5.199485125829219e-06 1.6807332752504194e-05 -7.162039826185579e-06" pbc="T T T"
C       -0.04540174      -0.03446592       3.88078064       0.00000000      -0.00096201       0.00112580      -0.00356213
C       -1.30954279       2.07557287       3.87860872       0.00000000       0.00016759       0.00699180       0.00085706
C       -2.53382786       4.22144168       3.82162846       0.00000000       0.00051931      -0.00037703       0.00035655
C       -3.73026591       6.37480661       3.79010958       0.00000000      -0.00049956      -0.00161724      -0.00094284
C       -4.95828527       8.52335273       3.82151144       0.00000000      -0.00581921      -0.00342216      -0.00328152
C        2.43029268      -0.03738675       3.86455201       0.00000000      -0.00025822       0.00272184      -0.00427292
C        1.16937789       2.11117457       3.87809099       0.00000000      -0.00545054      -0.00125004       0.01003936
C       -0.08687647       4.21075177       3.91811821       0.00000000       0.00173038       0.00221240       0.00725806
C       -1.29627817       6.36947120       3.87098254       0.00000000       0.00104443      -0.00546794      -0.00629784
C       -2.49764488       8.51219607       3.85132502       0.00000000       0.00197903       0.00084828      -0.00364073
C        4.89910024      -0.04614925       3.71503445       0.00000000       0.00086800       0.00009454      -0.00018809
C        3.62147405       2.06106529       3.50114859       0.00000000       0.00349326       0.00469599      -0.00114446
C        1.15463776       6.30966720       3.94914431       0.00000000       0.00325728      -0.00064561       0.00485506
C       -0.01852729       8.47187603       3.80681654       0.00000000      -0.00204639       0.00001732      -0.00352871
C        7.36079479      -0.06718738       3.70011980       0.00000000      -0.00354388       0.00044611       0.00368705
C        6.11289424       2.10411573       3.52818332       0.00000000      -0.00526723      -0.00534406      -0.00093860
C        4.94883710       4.34110183       3.27091065       0.00000000       0.00467149       0.00758971       0.00393657
O        3.81128715       6.46813155       3.29236680       0.00000000       0.00426310       0.00435519       0.00376254
C        2.46270116       8.44007061       3.71127748       0.00000000       0.00601175      -0.00089119       0.00661323
C        9.81347784      -0.06648719       3.78216310       0.00000000       0.00385030      -0.00222460      -0.00673672
C        8.57085037       2.08202191       3.72251062       0.00000000       0.00021777       0.00040602      -0.00076636
C        7.35912170       4.24293933       3.61545042       0.00000000      -0.00720830      -0.00218638       0.00182204
C        6.18657219       6.42123676       3.54024756       0.00000000      -0.00017386       0.00047791      -0.00331749
C        4.91956035       8.51753342       3.69700482       0.00000000       0.00424729       0.00022274      -0.00035213
C       -0.06608571       1.38449685       3.90955569       0.00000000      -0.00797859       0.00036411       0.00209873
C       -1.31621010       3.49584454       3.87968418       0.00000000       0.00454867       0.00655060      -0.00321403
C       -2.51713448       5.64951871       3.83632775       0.00000000       0.00034522      -0.00327267      -0.00478432
C       -3.72498127       7.80252201       3.83422310       0.00000000      -0.00154023       0.00021887      -0.00831252
C       -4.96948410       9.94432839       3.88355646       0.00000000      -0.00198622      -0.00093789      -0.00116766
C        2.41284922       1.38394521       3.77996016       0.00000000       0.00036081       0.00516774       0.00145565
C        1.13060414       3.51630944       3.91516687       0.00000000       0.00329525      -0.00187839      -0.00160130
C       -0.07422567       5.64749228       3.91226647       0.00000000      -0.00175048      -0.00231369       0.00321753
C       -1.26758144       7.79074099       3.84854789       0.00000000       0.00064909      -0.00471586      -0.00078697
C       -2.49983572       9.93496989       3.82074972       0.00000000       0.00177717       0.00216819      -0.00059810
C        4.88146587       1.38516088       3.56222453       0.00000000       0.00003020      -0.00324783       0.00078136
P        3.37522277       3.66884264       2.78247008       0.00000000       0.00042973       0.00020740      -0.00643983
C        1.21963217       7.70522182       3.81830179       0.00000000       0.00119054       0.00232729       0.00006028
C       -0.03465328       9.90554005       3.73407337       0.00000000      -0.00278878       0.00113720       0.00298414
C        7.34099999       1.37205347       3.64617706       0.00000000      -0.00264719       0.00015634      -0.00400536
C        6.12291453       3.54491657       3.45345384       0.00000000      -0.00602736      -0.00435232       0.00231530
C        4.99818379       5.74879550       3.30472102       0.00000000       0.00279987       0.00694183       0.00047927
C        3.72146953       7.81102622       3.59205485       0.00000000       0.00804907       0.00023655       0.00377588
C        2.42697305       9.87845745       3.73050021       0.00000000       0.00040449      -0.00058007      -0.00431081
C        9.79778257       1.36182727       3.80425656       0.00000000       0.00309194       0.00031384       0.00690369
C        8.57464155       3.51323936       3.72634960       0.00000000      -0.00387382       0.00131682       0.00499227
C        7.38719877       5.66776131       3.65815617       0.00000000      -0.00368876      -0.00073560       0.00452360
C        6.16456365       7.82761253       3.68894405       0.00000000      -0.00380039      -0.00279337      -0.00435355
C        4.89288098       9.93273908       3.80659218       0.00000000       0.00401890      -0.00183899       0.00067053
Co       2.40650167       4.86439112       4.38200091       0.00000000      -0.00843532       0.00342610      -0.00768120
O        3.60915440       6.48588427       5.98914724       1.00000000       0.00944468      -0.01621612      -0.00557219
O        3.52168028       5.20233760       5.81904784       1.00000000      -0.00101025       0.00357053       0.01435264
