53
Lattice="12.336457 0.0 0.0 -6.168228499999997 10.683685154694365 0.0 0.0 0.0 15.0" Properties=species:S:1:pos:R:3:forces:R:3 energy=-456.3657229889244 free_energy=-456.3657229889244 stress="-0.0008374816750839542 0.0013573675369509563 2.858445456434529e-05 0.0013573675369509563 -0.003424946098101507 1.0290603621607582e-05 2.858445456434529e-05 1.0290603621607582e-05 -9.374551762163755e-06" pbc="T T T"
C       -0.01659954      -0.15797389       3.92590390       0.00032477      -0.00123689       0.00405198
C       -1.23946372       1.98279481       4.01784210      -0.00056887      -0.00001749      -0.01671656
C       -2.47840430       4.11399666       4.01039244      -0.00895107      -0.00278307      -0.00797006
C       -3.73847131       6.24100651       3.93803339       0.00327783      -0.00043999       0.00331933
C       -4.97752096       8.37239445       3.87882490       0.00859866      -0.00134487       0.00377419
C        2.44360754      -0.18218663       4.01537022       0.00652018      -0.00256768      -0.00320422
C        1.23052564       1.97615730       3.99590703       0.00110717      -0.00027277       0.00357798
C       -0.01236205       4.11016254       3.79204082      -0.00816798       0.00179400       0.00267758
C       -1.27617139       6.24651627       3.69161676      -0.00183290       0.00456560       0.00683427
C       -2.49484747       8.37421585       3.86863371       0.00583237       0.00117398      -0.00996407
C        4.91696076      -0.17547836       4.01233347      -0.00170453      -0.00052094      -0.00219351
C        3.68324566       1.94295643       4.12140779      -0.00797717       0.00029697       0.00089518
C        2.49610508       4.08540723       3.83199276       0.00205959      -0.01028408      -0.00144141
P        1.17780239       6.18232780       2.47069999       0.00668321       0.00259242       0.00017396
C       -0.03279689       8.40794533       3.60609488       0.00168762       0.00280221       0.00404092
C        7.38165886      -0.15108436       3.90977640       0.00526755       0.00025646      -0.00120001
C        6.15977409       1.95697145       4.14988312      -0.00193558       0.00155755       0.00099602
C        4.94053922       4.08226403       4.08946993       0.00355973      -0.00270964       0.00526654
S        3.84255648       6.92492806       1.51291032       0.00854392       0.01109323      -0.00726812
C        2.43523760       8.48371640       3.34550677      -0.00568405      -0.00245684      -0.00311656
C        9.85750535      -0.13795896       3.84248186       0.00094342      -0.00195400       0.00439399
C        8.62607332       1.97672881       4.08492146       0.00478479      -0.00008946      -0.00377994
C        7.39279696       4.10795367       4.10969456       0.00379234       0.00769058      -0.00168762
C        6.10443120       6.22893411       3.88634613      -0.00536705      -0.00741930       0.00263709
C        4.92070974       8.41722646       3.56283034       0.00007530      -0.00429161       0.01208424
C       -0.00555347       1.26947429       3.99057599       0.00161177       0.00114787       0.00454617
C       -1.23987491       3.40386539       3.98044305      -0.00878620       0.00015992       0.00044104
C       -2.49709139       5.53483815       3.90751559      -0.00174513      -0.00348781       0.00041731
C       -3.73950367       7.66461683       3.89980721       0.00976090      -0.00131250      -0.00628160
C       -4.96151868       9.79814215       3.93780860       0.00479626      -0.00143937       0.00889521
C        2.44748704       1.24339184       4.05923300      -0.00119641      -0.00383724      -0.00217778
C        1.25359578       3.41760193       3.86839925      -0.00218747       0.00016274       0.00183188
C       -0.08099724       5.49430876       3.50543263      -0.00736905       0.00188425      -0.00395209
C       -1.26387785       7.67466962       3.69490596       0.00352957       0.00605640      -0.00305285
C       -2.49079095       9.79527064       3.97497200       0.00397182      -0.00207979      -0.01032799
C        4.92172381       1.24163209       4.11998770      -0.00997124       0.00175087       0.00877192
C        3.68813172       3.36657564       4.05882341       0.00307239      -0.00079278      -0.00972661
C        1.20554202       7.79280827       3.25596286      -0.00501978      -0.00691296      -0.00099516
C       -0.02092536       9.81509286       3.86452910       0.00185864       0.00309848      -0.00080551
C        7.39112376       1.25826567       4.07786911       0.00453427       0.00005247       0.01313853
C        6.17495285       3.37831403       4.16711503       0.00719048       0.00369836       0.00165425
C        4.92928373       5.47013730       3.92210629      -0.00716139      -0.00999599      -0.00501178
C        3.70279995       7.85145777       2.97994364      -0.00254153       0.00347855       0.00227384
C        2.45119974       9.85070617       3.72365686       0.00247606      -0.00405123       0.00475904
C        9.86158577       1.27003467       4.00590896       0.00306776       0.00024872      -0.00537043
C        8.63042734       3.39851672       4.10071660      -0.00462722      -0.00056327      -0.00300502
C        7.36813674       5.52777164       4.00046690      -0.00063398       0.00495694       0.00676795
C        6.10908135       7.67237403       3.75501311       0.00171773      -0.00408087       0.00888973
C        4.91948209       9.82098358       3.78705657       0.00042200      -0.00086996      -0.00294251
Co       3.14025418       5.78234944       3.26969190      -0.00393819       0.01186022      -0.00602684
O        3.95559017       9.07463625       6.31582587      -0.00118437       0.00696479      -0.00846220
O        2.96852492       8.17851416       6.48387057      -0.00367137      -0.00289387       0.00972683
H        3.39273388       7.41976935       6.94568227      -0.00884553       0.00136273      -0.00015653
