52
Lattice="12.336457 0.0 0.0 -6.168228499999997 10.683685154694365 0.0 0.0 0.0 15.0" Properties=species:S:1:pos:R:3:initial_magmoms:R:1:forces:R:3 energy=-454.04665498577805 free_energy=-454.04665498577805 stress="-0.0022706638367297905 0.003957695656719256 2.7690789266174234e-06 0.003957695656719256 -0.0046747037857655755 -1.345749060320772e-05 2.7690789266174234e-06 -1.345749060320772e-05 2.4383115964091577e-06" pbc="T T T"
C       -0.00956154      -0.01027126       3.71136299       0.00000000      -0.00062048      -0.00210733       0.01168110
C       -1.21802743       2.14422425       3.80246381       0.00000000      -0.00371992       0.00296554       0.00680668
C       -2.44651514       4.26800519       3.83442895       0.00000000      -0.00777408      -0.00384868      -0.00531951
C       -3.71513925       6.39137593       3.77082654       0.00000000      -0.00867022       0.00531616      -0.00283749
C       -4.96649449       8.51852673       3.68401656       0.00000000       0.00050315       0.00387792      -0.00449337
C        2.44825058      -0.03131760       3.71696264       0.00000000       0.00173956      -0.00367763       0.01532236
C        1.24148381       2.12930981       3.76438774       0.00000000      -0.00121711      -0.00119125      -0.01033246
C        0.03599290       4.31606996       3.87266760       0.00000000       0.00186618      -0.00383489       0.00075655
C       -1.24868540       6.41152967       3.84104103       0.00000000      -0.00373878      -0.01147188       0.00171384
C       -2.48947687       8.52648433       3.76407914       0.00000000       0.00138090       0.00383246      -0.00760583
C        4.92432118      -0.02520459       3.73762824       0.00000000      -0.00485177      -0.00137242       0.00033878
C        3.70594473       2.07448710       3.67773012       0.00000000      -0.00380066      -0.00614152      -0.00056756
C        2.52682993       4.18268891       3.77033363       0.00000000       0.00577488       0.00007460       0.00715504
O        1.11257845       6.50203805       3.97834251       0.00000000       0.01254724      -0.00406743      -0.00419124
C       -0.03206299       8.54152349       3.74501998       0.00000000      -0.00434007       0.00384473      -0.00087890
C        7.39379326      -0.01608113       3.76028149       0.00000000       0.00824191       0.00257998      -0.01558199
C        6.18057313       2.09905429       3.73182155       0.00000000      -0.00213564      -0.00020210      -0.00432570
C        4.96291062       4.19317920       3.57718709       0.00000000      -0.00023608       0.00614512       0.00733729
S        3.61692752       6.32666219       2.50455388       0.00000000      -0.00429911       0.00935027      -0.00114343
C        2.41901804       8.53074281       3.59474968       0.00000000       0.00337729      -0.00828394       0.00078519
C        9.86431761      -0.00396711       3.72326395       0.00000000      -0.00097903       0.00386509      -0.00184126
C        8.64756229       2.12473724       3.79373426       0.00000000       0.00610992       0.00085106       0.00861693
C        7.41726497       4.24715020       3.74104680       0.00000000       0.00334767      -0.00756437       0.00153157
C        6.15968669       6.38508809       3.58871697       0.00000000       0.00427647       0.00074934      -0.00255152
C        4.90396918       8.53069822       3.53380842       0.00000000       0.00114604       0.00236380       0.00307906
C        0.00489382       1.42044693       3.76523093       0.00000000      -0.00386595      -0.00081918       0.00223098
C       -1.19849920       3.57964232       3.84542244       0.00000000      -0.00523621       0.00179607      -0.00320397
C       -2.47367067       5.68553650       3.82541587       0.00000000      -0.01356585      -0.00498363      -0.00186679
C       -3.72915440       7.81205451       3.74457844       0.00000000       0.00108459       0.00812840      -0.00500528
C       -4.95629040       9.94676419       3.70252521       0.00000000       0.00284283      -0.00029879      -0.00030551
C        2.45936502       1.39266277       3.71514026       0.00000000      -0.00338877      -0.00704982       0.00962335
C        1.28407550       3.57791857       3.81368740       0.00000000       0.00434822       0.00058558      -0.00084416
C       -0.03613715       5.72393134       3.88941303       0.00000000       0.00700721      -0.00496066       0.00091197
C       -1.26415937       7.82771866       3.79221165       0.00000000      -0.00355129      -0.00518995       0.00498439
C       -2.48623382       9.94991543       3.73570135       0.00000000      -0.00006823       0.00089608      -0.00137069
C        4.94200652       1.38841681       3.70876692       0.00000000      -0.00495654      -0.00426486       0.00681371
C        3.72543615       3.49192181       3.64429333       0.00000000       0.00143424      -0.00437353      -0.00731609
C        1.17234239       7.86572941       3.69631939       0.00000000       0.00035662       0.00128189      -0.00308373
C       -0.01111348       9.96365663       3.74876283       0.00000000      -0.00052595       0.00759924      -0.00721062
C        7.41127058       1.40485255       3.77336024       0.00000000       0.00575230       0.00441120      -0.00289145
C        6.19533197       3.51707308       3.68727096       0.00000000      -0.00144007       0.00113160       0.00459892
C        4.95460524       5.61630399       3.43883025       0.00000000       0.00588025       0.00599385       0.00570269
C        3.66432585       7.86954425       3.35568669       0.00000000       0.00661008       0.00194290      -0.00899720
C        2.45256477       9.96076422       3.70960794       0.00000000       0.00627039      -0.00580328      -0.00652463
C        9.88147776       1.42298396       3.78421591       0.00000000       0.00123440       0.00400259      -0.00081506
C        8.65328102       3.54745801       3.80013221       0.00000000       0.00118144      -0.00555685       0.00005877
C        7.39117502       5.67437552       3.71602948       0.00000000      -0.00015789      -0.00621766       0.00105470
C        6.13464064       7.79988990       3.58703343       0.00000000      -0.00023608       0.00274479       0.00235449
C        4.92220786       9.96358148       3.66679990       0.00000000      -0.00324003       0.00312304       0.01055119
Co       3.19481443       5.78818468       4.57001818       0.00000000      -0.00806172      -0.00747091      -0.00215316
O        2.51289195       5.70926085       6.26922663       1.00000000      -0.00625510       0.00779669      -0.00193421
O        3.12800959       6.87874311       6.01000136       1.00000000       0.00661886       0.01350259       0.00118324
