52
Lattice="12.336457 0.0 0.0 -6.168228499999997 10.683685154694365 0.0 0.0 0.0 15.0" Properties=species:S:1:pos:R:3:initial_magmoms:R:1:forces:R:3 energy=-452.12210290135613 free_energy=-452.12210290135613 stress="-0.0024875899995490825 0.0013976951616617853 1.5167426949849773e-05 0.0013976951616617853 -0.004977948513086656 -2.4267696913114135e-05 1.5167426949849773e-05 -2.4267696913114135e-05 1.2991840071126388e-05" pbc="T T T"
C       -0.00306740      -0.02502880       3.87878121       0.00000000      -0.00766907       0.00140451       0.01225521
C       -1.23067845       2.11661155       3.95914588       0.00000000       0.00067321       0.00116788      -0.00257047
C       -2.46884570       4.25062103       3.92579031       0.00000000       0.01253170      -0.01191632      -0.00302153
C       -3.71761267       6.37791071       3.84327337       0.00000000       0.00495515      -0.00517427       0.00881862
C       -4.95853572       8.50906444       3.80750592       0.00000000      -0.00464936       0.00100855      -0.00046179
C        2.45630345      -0.04647888       3.92226464       0.00000000       0.00626330      -0.00814333      -0.01276432
C        1.23699014       2.10562761       3.92181427       0.00000000      -0.00146397      -0.00448185       0.00131322
C       -0.00702049       4.24307593       3.72963449       0.00000000      -0.00472079      -0.00254439      -0.00072568
C       -1.25553657       6.38011301       3.60648716       0.00000000      -0.00363897       0.00853474      -0.01040042
C       -2.47977421       8.51032337       3.77022955       0.00000000       0.00221730       0.00251589       0.00061157
C        4.92477900      -0.03488406       3.90076591       0.00000000      -0.00634862      -0.00150629       0.00659612
C        3.69269704       2.08124392       3.98545596       0.00000000       0.00482073      -0.00202327       0.00103277
C        2.48979267       4.20966912       3.77593933       0.00000000      -0.00336839       0.00744571       0.00142855
P        1.27809333       6.29736325       2.47107846       0.00000000      -0.00348372      -0.01287016      -0.00039211
C       -0.02281299       8.54474906       3.52681392       0.00000000      -0.00027030       0.00953717      -0.00946288
C        7.38491099      -0.00727191       3.83956472       0.00000000      -0.01226259       0.00065354      -0.00546816
C        6.16467932       2.09920499       4.02821104       0.00000000       0.00451768      -0.00023085      -0.00275450
C        4.94732171       4.22793351       3.96666809       0.00000000      -0.00127415       0.00627546       0.00961041
S        3.72413434       6.76332440       1.74801003       0.00000000       0.00340701      -0.00240512       0.00984438
C        2.43604630       8.63294902       3.30526871       0.00000000       0.00493912       0.00455258       0.00214125
C        9.86718703      -0.00092170       3.81557068       0.00000000       0.00485409       0.00441277       0.00432318
C        8.63487693       2.11415849       4.00550027       0.00000000       0.00264493       0.00709022       0.00482857
C        7.40537080       4.24324626       4.00018102       0.00000000      -0.00104911       0.00755121      -0.00305240
C        6.12715855       6.36599043       3.81133060       0.00000000      -0.00171568       0.00155729       0.00880410
C        4.93468987       8.54596948       3.54581505       0.00000000      -0.00155543      -0.01866850      -0.00307066
C        0.00223787       1.40002208       3.93265457       0.00000000      -0.00540757       0.00440598       0.00489100
C       -1.23248698       3.53822140       3.91274340       0.00000000       0.00595074      -0.01116357      -0.00690373
C       -2.48054192       5.67022913       3.81530409       0.00000000       0.00725472      -0.00980968      -0.00308707
C       -3.72074872       7.80077449       3.80750933       0.00000000      -0.00103713       0.00060650       0.00326677
C       -4.94861129       9.93367654       3.86898088       0.00000000      -0.00224230       0.00402113       0.00000405
C        2.45771745       1.37795482       3.95913704       0.00000000       0.00546946      -0.00705513      -0.00491678
C        1.25977668       3.54823331       3.80542119       0.00000000      -0.00443666       0.00087828      -0.00025535
C       -0.06140738       5.62601978       3.43772652       0.00000000      -0.00933802       0.00040648      -0.00376673
C       -1.24967340       7.80864780       3.60767285       0.00000000       0.00133797       0.01090523      -0.00260971
C       -2.47908865       9.93282643       3.86895228       0.00000000       0.00364907      -0.00474088      -0.00019002
C        4.92849301       1.38369443       3.99355325       0.00000000       0.00603049      -0.00273349       0.00262853
C        3.68754701       3.51057949       3.93407910       0.00000000      -0.00175406       0.00462540       0.00233353
C        1.21981472       7.92960843       3.20301453       0.00000000       0.00604504       0.00698189      -0.00412390
C       -0.01298633       9.95622953       3.77497740       0.00000000      -0.01307569       0.00260601      -0.01252941
C        7.39732265       1.40043178       3.98844291       0.00000000       0.00094200       0.00240326       0.00131512
C        6.18158588       3.51774423       4.03104132       0.00000000       0.00123063       0.00366107       0.00157402
C        4.95761362       5.61409500       3.85692456       0.00000000       0.00274499       0.00224093       0.00329198
C        3.69479293       7.93348046       3.07685286       0.00000000       0.00279224      -0.00998784      -0.00517632
C        2.45731127       9.99597650       3.68244724       0.00000000      -0.00171433       0.00670876       0.00514585
C        9.87106214       1.40829329       3.95553273       0.00000000       0.00227580       0.00857654       0.00559200
C        8.64047550       3.53475811       4.00741720       0.00000000       0.00416692       0.00299195      -0.00539583
C        7.38934349       5.66342809       3.90440741       0.00000000      -0.00205053       0.00318838       0.01037881
C        6.13150918       7.80647765       3.70561225       0.00000000      -0.00337867      -0.00841619       0.00711048
C        4.92977504       9.95512293       3.75977448       0.00000000      -0.00089929      -0.01229341      -0.00563285
Co       3.09480502       6.09344151       3.68942219       0.00000000       0.00589201      -0.00675591      -0.00032237
O        3.16796172       5.61184201       6.37797550       1.00000000      -0.01843484      -0.00109302      -0.00357740
O        2.72714835       6.48010370       5.53521742       1.00000000       0.00963299       0.01509816      -0.00650775
