51
Lattice="12.336457 0.0 0.0 -6.168228499999997 10.683685154694365 0.0 0.0 0.0 15.0" Properties=species:S:1:pos:R:3:initial_magmoms:R:1:forces:R:3 energy=-447.7764254635975 free_energy=-447.7764254635975 stress="-0.002493973440928213 -0.0003399017259038697 5.519276318694033e-06 -0.0003399017259038697 0.005686090480147687 -3.392721041435214e-06 5.519276318694033e-06 -3.392721041435214e-06 6.87454273362759e-07" pbc="T T T"
C        0.07049525      -0.04505737       3.68868795       0.00000000      -0.00972796      -0.00160157      -0.00650963
C       -1.17415566       2.06257754       3.69779769       0.00000000       0.00079402       0.00290350      -0.00564109
C       -2.40498038       4.20368814       3.72115929       0.00000000       0.00776799       0.00525593      -0.00135451
C       -3.62567079       6.35389167       3.72650410       0.00000000      -0.00018362       0.00025610      -0.00272223
C       -4.85842745       8.50466608       3.72074196       0.00000000      -0.00184036       0.00694193       0.00525610
C        2.53319685      -0.02854797       3.64230380       0.00000000      -0.00405484      -0.00310825      -0.01541873
C        1.28730683       2.15339443       3.59700236       0.00000000      -0.00050894       0.00020075       0.00578052
C        0.04422838       4.20084346       3.70101346       0.00000000       0.00045531       0.00406826       0.00345723
C       -1.17565881       6.35251878       3.72965172       0.00000000       0.00206919       0.00556294      -0.00219548
C       -2.39749146       8.49821508       3.70302787       0.00000000       0.00898563      -0.01551215       0.00062043
C        5.00848482      -0.06885229       3.54092927       0.00000000      -0.00674294       0.00038472      -0.00548656
C        3.75666816       2.03896852       3.21911944       0.00000000       0.00821155       0.00234879       0.00904316
N        1.24200343       6.31092895       3.63865414       0.00000000      -0.01653665      -0.00783588       0.00048661
C        0.07556566       8.44939358       3.64357545       0.00000000       0.00865516       0.00306410      -0.01160667
C        7.47607802      -0.09828844       3.56746274       0.00000000       0.00308539      -0.00635886       0.00738330
C        6.24551990       2.06259591       3.40894315       0.00000000       0.00103391       0.00479440      -0.01074738
C        5.08123621       4.27269134       3.24018409       0.00000000       0.00287084       0.00377560      -0.00667812
N        3.83971006       6.32236981       3.50266721       0.00000000      -0.00215475      -0.00192997      -0.00172422
C        2.53547273       8.40739295       3.61441429       0.00000000       0.00082613      -0.00481800      -0.00440557
C        9.93168719      -0.09699979       3.64620797       0.00000000       0.00882868       0.00467647       0.00344008
C        8.70136535       2.05445419       3.61845196       0.00000000      -0.00660931      -0.00415154       0.00266930
C        7.48405006       4.20912255       3.59508460       0.00000000      -0.00084793       0.00249442      -0.00080754
C        6.26879024       6.37222987       3.62727858       0.00000000      -0.00801693       0.00570249      -0.00055104
C        5.00410142       8.46221219       3.65425940       0.00000000      -0.00337167       0.00040369       0.00616579
C        0.07182654       1.39139803       3.67365514       0.00000000      -0.00425848      -0.00447557       0.00358834
C       -1.17818827       3.48398378       3.72170457       0.00000000       0.00659484       0.00393816      -0.01001273
C       -2.40335768       5.63065286       3.73671468       0.00000000       0.00676393       0.00873568       0.00969369
C       -3.62818171       7.78484279       3.72924410       0.00000000       0.00042699      -0.00395573       0.00984117
C       -4.86132860       9.93437998       3.70398723       0.00000000      -0.00863427       0.00401969      -0.01054709
C        2.52640197       1.40169353       3.49895173       0.00000000       0.00335372       0.00101928      -0.00324698
N        1.25178227       3.54765272       3.62519198       0.00000000      -0.00232061      -0.00003562      -0.00319945
C        0.03657043       5.64223308       3.70303505       0.00000000      -0.01185901      -0.00303937       0.00372264
C       -1.16819724       7.77434002       3.69824412       0.00000000       0.01626620      -0.00099159      -0.00093106
C       -2.40038698       9.92669612       3.63647386       0.00000000      -0.00317039      -0.01233683      -0.00665035
C        5.00528467       1.35430046       3.37377123       0.00000000       0.00387549       0.00733936       0.00297196
P        3.68204369       3.61594912       2.39574528       0.00000000       0.00533074      -0.00683377       0.00993137
C        1.29435347       7.69682308       3.62896889       0.00000000      -0.00150177      -0.00785554       0.00121579
C        0.07481440       9.88220628       3.58240942       0.00000000      -0.00265570       0.00330364       0.00419025
C        7.46941006       1.33954742       3.53193448       0.00000000      -0.00662178      -0.00717301       0.00402899
C        6.25860111       3.50000399       3.41159521       0.00000000       0.00022757       0.00311768      -0.00738467
C        5.05720001       5.68075101       3.45664249       0.00000000      -0.00352698      -0.00047709      -0.00215812
C        3.78366053       7.70085085       3.60081207       0.00000000      -0.00075701      -0.00328365       0.00606709
C        2.53502398       9.84846667       3.61091496       0.00000000       0.01157007      -0.00117211       0.01046021
C        9.93131674       1.33645007       3.66317939       0.00000000       0.00026528       0.00530865       0.00239741
C        8.70247304       3.48625598       3.65660980       0.00000000       0.00333603       0.00084700      -0.00458194
C        7.48740037       5.63823426       3.66204997       0.00000000      -0.00754608       0.00503460       0.00646735
C        6.25111900       7.78499282       3.68373326       0.00000000      -0.00407369       0.00769799       0.01154869
C        5.00359821       9.89446846       3.67251074       0.00000000      -0.00142229      -0.00154218       0.00145956
Co       2.51352886       5.02854887       3.55709984       0.00000000       0.00731887      -0.00478386      -0.00863633
O        0.12126459       6.48787172       9.33837967       1.00000000       0.01136735       0.00016458       0.00169529
O        1.35481520       6.49923007       9.42780411       1.00000000      -0.01133697      -0.00008826      -0.00038485
