51
Lattice="12.336457 0.0 0.0 -6.168228499999997 10.683685154694365 0.0 0.0 0.0 15.0" Properties=species:S:1:pos:R:3:initial_magmoms:R:1:forces:R:3 energy=-443.5470879100121 free_energy=-443.5470879100121 stress="-0.0026861986928489734 0.00030777032875002185 -5.719250566729537e-06 0.00030777032875002185 0.006105825830792675 1.141542080314399e-06 -5.719250566729537e-06 1.141542080314399e-06 -3.854520789610639e-06" pbc="T T T"
C       -0.02069210      -0.01512018       3.69972978       0.00000000      -0.00112004      -0.00392461       0.00486440
C       -1.26111008       2.11313742       3.56617759       0.00000000      -0.00115295       0.01205555      -0.00436814
C       -2.51281937       4.25978900       3.74428701       0.00000000      -0.00054707       0.00208441       0.00641229
C       -3.73821728       6.40181215       3.87490983       0.00000000      -0.00505242      -0.00339253       0.00275189
C       -4.96210335       8.54199890       3.85037812       0.00000000      -0.00003063       0.00117072       0.00073905
C        2.44953459       0.01895444       3.79217654       0.00000000       0.00129195       0.00124624      -0.00114317
C        1.22883845       2.08298697       3.36764262       0.00000000      -0.00344419      -0.00282769       0.00284666
C       -0.13228992       4.32846429       3.35535835       0.00000000      -0.00143414      -0.00114320      -0.00787978
C       -1.30140406       6.42268567       3.76610110       0.00000000      -0.00032087       0.00818794      -0.00545620
C       -2.49792379       8.55333067       3.86923371       0.00000000      -0.00595703       0.00600747      -0.00121833
C        4.91547213      -0.00202174       3.82414737       0.00000000       0.00222991      -0.00348850      -0.00797629
C        3.69777221       2.20191952       3.73760279       0.00000000       0.00208432       0.00162359       0.00095345
N        1.13110731       6.34921039       3.63031227       0.00000000      -0.00168324      -0.00752849       0.01052484
C       -0.01776716       8.50153864       3.78658428       0.00000000       0.00131940      -0.00212048       0.00800945
C        7.39189030      -0.05546152       3.78440373       0.00000000      -0.00467169       0.00044426       0.00096399
C        6.15801113       2.11131974       3.81576564       0.00000000       0.00365380       0.00017012       0.00842237
C        4.92821265       4.26026960       3.78837980       0.00000000       0.00116363      -0.00159552      -0.00883149
O        3.77321852       6.39439994       3.65969534       0.00000000       0.00891284      -0.00307775      -0.01048862
C        2.45999977       8.43638139       3.74323926       0.00000000      -0.00056077       0.00459201       0.00964798
C        9.84269229      -0.05456968       3.72067252       0.00000000       0.01108373       0.00213863       0.00170726
C        8.61602362       2.10290016       3.76265295       0.00000000       0.00082780      -0.00622146      -0.00461250
C        7.37586593       4.25324822       3.84663015       0.00000000       0.00311462       0.00118808      -0.00216289
C        6.15052066       6.39838723       3.84181128       0.00000000      -0.00339824       0.01010443       0.00395333
C        4.91154148       8.50701902       3.77783376       0.00000000      -0.00430052      -0.00948217       0.00385631
C       -0.01770138       1.41379228       3.53645948       0.00000000      -0.00616180       0.00293626       0.00092377
C       -1.28126320       3.54904651       3.56180229       0.00000000      -0.00381219       0.00849741      -0.00394132
C       -2.51434546       5.68611304       3.80958739       0.00000000       0.00062364       0.00222368       0.00640931
C       -3.72874530       7.83214195       3.87995913       0.00000000      -0.00349878      -0.00145934       0.00012698
C       -4.95257095       9.97592496       3.78934748       0.00000000       0.00150864      -0.00012878      -0.00858806
C        2.45437350       1.45394182       3.65657488       0.00000000       0.00226230       0.00001002       0.00120810
S        1.27992568       3.66205149       2.59614193       0.00000000      -0.00324204      -0.00611182      -0.00359106
C       -0.08906632       5.72332993       3.57536912       0.00000000      -0.00253745      -0.00314188      -0.00339509
C       -1.27150887       7.83463132       3.82658109       0.00000000      -0.00349920       0.00975675      -0.00435282
C       -2.49037628       9.98142233       3.84720210       0.00000000      -0.00081651       0.00330967       0.00214391
C        4.91390908       1.43450022       3.80331380       0.00000000       0.00576573      -0.00303190       0.00233180
N        3.72543675       3.57943993       3.77126772       0.00000000      -0.00678065       0.00426658      -0.00286566
C        1.19516704       7.72458706       3.72768091       0.00000000       0.00100754      -0.00509219      -0.00192590
C       -0.01691640       9.93522885       3.80748610       0.00000000      -0.00116174      -0.00543853      -0.00447914
C        7.38925805       1.38177108       3.79681202       0.00000000      -0.00197178      -0.00273166       0.00159787
C        6.15561669       3.53376825       3.82214527       0.00000000       0.00367761       0.00114993      -0.00167336
C        4.96600446       5.67980635       3.77184849       0.00000000       0.00579616      -0.00056631       0.00138294
C        3.70881450       7.79879222       3.74272595       0.00000000      -0.00359873      -0.00488614      -0.00030876
C        2.45061236       9.88441204       3.75351836       0.00000000       0.00304834       0.00884666       0.00762681
C        9.85281030       1.38995120       3.68817389       0.00000000       0.00624179       0.00405092      -0.00444067
C        8.60767244       3.53370837       3.79791878       0.00000000       0.00253782      -0.00577413      -0.00151022
C        7.37782768       5.67759905       3.87211622       0.00000000      -0.00833386       0.00348094      -0.00831836
C        6.15316922       7.82279176       3.83055157       0.00000000      -0.00112360       0.00488687       0.00022279
C        4.91162512       9.93995520       3.73638587       0.00000000       0.00378130      -0.01267375      -0.00058816
Co       2.37839928       4.94772718       3.92064056       0.00000000       0.00550038      -0.00499660       0.01759139
O        3.58093738       5.39557328       6.20765143       1.00000000       0.00070188      -0.00512867       0.01037536
O        2.37868371       5.17098786       5.78670214       1.00000000       0.00207702       0.00153496      -0.01347832
