52
Lattice="12.336457 0.0 0.0 -6.168228499999997 10.683685154694365 0.0 0.0 0.0 15.0" Properties=species:S:1:pos:R:3:forces:R:3 energy=-447.88327714804194 free_energy=-447.88327714804194 stress="-0.002331936934999739 0.0006631002090690597 2.7514583794762093e-06 0.0006631002090690597 0.006259331653337525 5.971797763060139e-06 2.7514583794762093e-06 5.971797763060139e-06 -7.932648230419164e-06" pbc="T T T"
C        0.01739918       0.04414240       3.75545447      -0.00641056      -0.00215683       0.00416541
C       -1.22111238       2.17312861       3.60357526      -0.00328808       0.00127332       0.00041033
C       -2.47366856       4.31738617       3.77779151       0.00183656       0.00345372      -0.00663804
C       -3.70248542       6.45824459       3.92163875       0.00046160      -0.00191062      -0.00004920
C       -4.92683053       8.59832162       3.91564987       0.00076887       0.00437924      -0.00530913
C        2.48686290       0.07733407       3.84163277       0.00151642      -0.00001128      -0.00065993
C        1.26752481       2.14002987       3.40352892       0.00660010      -0.00285575       0.00676795
C       -0.09403251       4.38834474       3.36634621      -0.00446352      -0.00390519      -0.00749684
C       -1.26538671       6.48127859       3.78917711       0.00263735      -0.00051293       0.00010142
C       -2.46196557       8.61077962       3.91535010       0.00300993       0.00354460      -0.00261687
C        4.95429700       0.05362609       3.87183216      -0.00035958       0.00150474      -0.00269614
C        3.73771365       2.25649025       3.78445867       0.00166947       0.00048993       0.00545643
N        1.16799168       6.40698432       3.69160467      -0.00311317       0.00291318      -0.00464157
C        0.01966794       8.55874349       3.83769801      -0.00144850      -0.00102546       0.00888641
C        7.43116038       0.00220059       3.84363484      -0.00057941      -0.00411162      -0.00735089
C        6.19846183       2.16802635       3.87172560      -0.00177123      -0.00181188       0.00720748
C        4.96474050       4.31125568       3.88533542      -0.00442835      -0.00595768       0.00186202
O        3.80289208       6.44923657       3.88705166       0.00609110       0.00849520       0.00740262
C        2.49913168       8.49405633       3.83128618       0.00066000       0.00327443       0.00366088
C        9.88242217       0.00504578       3.78377513       0.00480965      -0.00119124      -0.00261028
C        8.65674940       2.16042751       3.81171808      -0.00241813       0.00270298      -0.00159461
C        7.41437293       4.30927911       3.90436477       0.00077483       0.00117628      -0.00571059
C        6.18362497       6.45294740       3.93646265      -0.00541494       0.00359010       0.00808352
C        4.94659770       8.56444374       3.87045356      -0.00140052      -0.00422957       0.00099548
C        0.02195067       1.47234953       3.57834607      -0.00048876       0.00101183       0.00393007
C       -1.24241555       3.60919643       3.58643807      -0.00604355      -0.00035323      -0.00511085
C       -2.47805403       5.74439511       3.84124667       0.00399173       0.00058986       0.00125231
C       -3.69276203       7.88891148       3.93285315       0.00184295       0.00211157      -0.00542856
C       -4.91523056      10.03323222       3.84631699      -0.00310195       0.00404741      -0.00430519
C        2.49194078       1.51019512       3.69966245       0.00722678      -0.00156429       0.00454683
S        1.32298524       3.71428273       2.62630736       0.01048852       0.00709323      -0.00539533
C       -0.05137762       5.78350846       3.59457204      -0.00030442      -0.00536988      -0.00011065
C       -1.23551018       7.89308781       3.86491023       0.00002151      -0.00048231      -0.00345094
C       -2.45296400      10.03852384       3.89632489       0.00123812       0.00294916      -0.00157371
C        4.95420811       1.48943595       3.85155894      -0.00121570       0.00013330       0.00408889
N        3.76597444       3.62918003       3.83712215      -0.00772157      -0.00137911       0.00549682
C        1.23300675       7.77980748       3.79366472      -0.00072227       0.00351186       0.00119556
C        0.02187479       9.99166134       3.85981796      -0.00167543      -0.00234068       0.00392184
C        7.42935651       1.43889057       3.85168746      -0.00296354      -0.00169743      -0.00221169
C        6.19650268       3.58939716       3.89178570      -0.00049637      -0.00212202       0.00339623
C        5.00237722       5.73031446       3.91193892      -0.00112981      -0.00174498      -0.00571887
C        3.74463637       7.86278351       3.86608671       0.00019712       0.00228063       0.00242021
C        2.49054124       9.94376253       3.82318872       0.00478972       0.00065791      -0.00079310
C        9.89383699       1.44979642       3.73639879      -0.00157719       0.00025981      -0.00313551
C        8.64779505       3.59053980       3.84347764       0.00322481       0.00378513      -0.00417658
C        7.41300702       5.73287442       3.93241643      -0.00439899       0.00233861       0.00263435
C        6.18776407       7.87821636       3.91632996      -0.00136468       0.00323103       0.00423862
C        4.94927178       9.99916348       3.80426617      -0.00066175      -0.00958102      -0.00027072
Co       2.41206729       4.99941493       4.02597731       0.00054004      -0.00933267      -0.00385646
O        2.00801262       4.87846404       5.78841985       0.00419102      -0.00312416       0.00556517
O        2.84118575       3.89403546       6.45046115       0.00331944      -0.00716537      -0.01611747
H        2.49674037       4.00490898       7.35816956      -0.00294565       0.00513811       0.01134283
