52
Lattice="12.336457 0.0 0.0 -6.168228499999997 10.683685154694365 0.0 0.0 0.0 15.0" Properties=species:S:1:pos:R:3:forces:R:3 energy=-450.834363298927 free_energy=-450.834363298927 stress="-0.0027179284657671584 -0.001012176984332716 -4.083190033568871e-05 -0.001012176984332716 0.006479151793125084 1.6510943988515794e-05 -4.083190033568871e-05 1.6510943988515794e-05 7.375706156479974e-06" pbc="T T T"
C        0.01392551       0.05980818       3.88232041      -0.00484856       0.00269039       0.00285609
C       -1.23541065       2.16775457       3.87134801      -0.00207258      -0.00187806       0.00250799
C       -2.45920833       4.30999860       3.89042573      -0.00134914       0.00090402       0.00315080
C       -3.67610815       6.46286906       3.91975162       0.00540106      -0.00105291      -0.00296820
C       -4.91008562       8.61514232       3.92422687       0.00126773      -0.00107957       0.00310534
C        2.47936069       0.08293003       3.84451770      -0.00548136      -0.00348451      -0.00345410
C        1.22830400       2.26247052       3.79413312      -0.00166220       0.00252045       0.00554640
C       -0.00920408       4.30088731       3.86234378      -0.00434301      -0.00468729      -0.00261210
C       -1.22890988       6.45770677       3.89798417       0.00111205      -0.00013542       0.00109057
C       -2.45123644       8.60454687       3.89479773       0.00104524       0.00232423       0.00063483
C        4.95039231       0.03899962       3.73665890      -0.00043330       0.00285843       0.00536653
C        3.69709812       2.14352640       3.41603199       0.00088786      -0.00494641      -0.00367328
N        1.18701935       6.41155027       3.85913139      -0.00699234       0.00324998       0.00782908
C        0.02051529       8.55354490       3.82985835      -0.00828479       0.00138186       0.00275301
C        7.41838196       0.00489599       3.76416651      -0.00534970       0.00196206       0.00300035
C        6.18380377       2.17327611       3.60309404      -0.00226318       0.00098203       0.00205628
C        5.05028298       4.39469143       3.40966459       0.00396600      -0.00040983      -0.01266369
N        3.78744487       6.42056827       3.71383511      -0.00005058       0.00186243      -0.00095383
C        2.48098157       8.50521120       3.81697541       0.00149553       0.00777890       0.01146300
C        9.87340572       0.00563621       3.84148604       0.00055736       0.00377154      -0.00372979
C        8.64203435       2.16084210       3.80513919      -0.00060130      -0.00247812      -0.00186108
C        7.43257161       4.32012446       3.78843804      -0.00456417      -0.00729301       0.00007721
C        6.22163466       6.48349865       3.82472617      -0.00129941      -0.00515853       0.00085573
C        4.95123580       8.56816789       3.85369323       0.00456717       0.00394122       0.00997150
C        0.01362219       1.49641133       3.85961797      -0.00205004       0.00167665       0.00240945
C       -1.23779339       3.58752359       3.87950640      -0.00466285      -0.00310052       0.00267745
C       -2.45480681       5.73816451       3.91298452       0.00566769       0.00140134      -0.00284210
C       -3.68035522       7.89328705       3.92809823       0.00372856       0.00067707      -0.00174035
C       -4.91659918      10.04355825       3.90512150      -0.00700189      -0.00145227      -0.00745788
C        2.47141738       1.51656543       3.71077982      -0.00224740      -0.00115377       0.00041312
N        1.18587396       3.64246830       3.83787681      -0.00199732       0.00215880      -0.00678375
C       -0.01289613       5.74595500       3.87197669      -0.00273578      -0.00361203       0.00126601
C       -1.22151323       7.87938661       3.87950552      -0.00476025      -0.00184347      -0.00103153
C       -2.45567566      10.03526339       3.83265659      -0.00052831       0.00226845       0.00038188
C        4.94341984       1.46932178       3.57502465       0.00124064       0.00073208       0.00300430
S        3.62799007       3.73262847       2.68749156       0.01309480       0.00212616       0.00541485
C        1.23981756       7.79280102       3.83028094      -0.00476681       0.00622816       0.00387587
C        0.01894282       9.98607546       3.77571606      -0.00523249       0.00010419      -0.00189673
C        7.40625677       1.44688749       3.72654239      -0.00306797       0.00080572      -0.00077545
C        6.20230466       3.61098409       3.60406242      -0.00404645      -0.00480405      -0.00185708
C        5.00597122       5.78528091       3.64378270      -0.00207477      -0.00303997      -0.00300522
C        3.73044043       7.79684023       3.80413012       0.00401782       0.00442916      -0.00433263
C        2.47841634       9.94640686       3.81060148      -0.00053245       0.00759224      -0.00179269
C        9.87105697       1.44014187       3.84797134       0.00022674      -0.00119740      -0.00175159
C        8.64877246       3.59213838       3.83937715      -0.00178146      -0.00276398       0.00285427
C        7.43642639       5.74763334       3.86017786       0.00273208      -0.00509471      -0.00847662
C        6.19949826       7.89769692       3.88795790       0.00242586      -0.00143529      -0.00398876
C        4.94652283       9.99854074       3.86858404      -0.00084415       0.00405897      -0.00094997
Co       2.48238465       5.11481338       4.01811008       0.01419943       0.00253689       0.00054264
O        2.75086248       5.02570721       5.81405482       0.00238451      -0.00095851      -0.00065577
O        2.16389010       3.85205279       6.43518102       0.01187363      -0.00414850      -0.00096633
H        2.42249369       4.03265143       7.36085598       0.01603426      -0.00581527      -0.00288409
