52
Lattice="12.336457 0.0 0.0 -6.168228499999997 10.683685154694365 0.0 0.0 0.0 15.0" Properties=species:S:1:pos:R:3:forces:R:3 energy=-440.4818668787577 free_energy=-440.4818668787577 stress="-0.0015431923083523088 0.00013190904931528974 2.3282437810373226e-05 0.00013190904931528974 0.00258789007935411 1.0242967001763332e-06 2.3282437810373226e-05 1.0242967001763332e-06 5.892125272051593e-06" pbc="T T T"
C        0.04985802      -0.01056524       3.91048097      -0.00072303       0.00345325       0.00371557
C       -1.19830442       2.10208339       4.05071635       0.00078755       0.00961917       0.00028445
C       -2.43550623       4.24885635       4.08047996      -0.00829957      -0.00824042       0.00091049
C       -3.66399836       6.39203096       3.97558528       0.00890164      -0.00030914      -0.00412781
C       -4.89677827       8.53196337       3.86202924      -0.00051139      -0.00328495       0.00599776
C        2.50753076       0.03914285       3.87355493       0.01245205       0.00502304      -0.00144019
C        1.24481923       2.15295481       3.88824047      -0.01214923      -0.00327922       0.00885626
C       -0.01010222       4.19312757       3.86365675       0.00235552      -0.00428365       0.00610680
C       -1.20221075       6.36998354       3.82795388       0.00073772       0.00721262       0.00162104
C       -2.42281819       8.52940827       3.85622758      -0.00451890      -0.00614637       0.00449252
C        4.96408996      -0.01139075       3.86319687       0.00184000      -0.01136554      -0.00243914
C        3.77231306       2.14435923       3.81236215      -0.00091721       0.00200270       0.00192034
S        1.28160514       6.25437095       2.77340738       0.00532151      -0.00553194      -0.00996676
C        0.03247510       8.52199999       3.66601136       0.00246258       0.01147527      -0.00487007
C        7.43636232      -0.02489309       3.87547744      -0.00423175      -0.00206025      -0.00237743
C        6.21166154       2.10441064       3.94758351       0.00028509      -0.00124736       0.00226639
C        5.03070198       4.18925828       3.64504859       0.00186936       0.00948855       0.00206192
S        3.88757327       6.39784666       2.39634999      -0.00016483      -0.00425369       0.01052850
C        2.50043809       8.56436783       3.51442981       0.00248526      -0.00617297      -0.00388217
C        9.91212230      -0.02517558       3.90645116      -0.01063474       0.00372761       0.00595307
C        8.67383190       2.10658059       4.05777317       0.00465295      -0.00595159      -0.00131973
C        7.44564238       4.24689862       4.00005867      -0.00117284       0.00953491       0.00379842
C        6.21732922       6.37285909       3.74684334      -0.00164126      -0.00853987       0.00872346
C        4.98243752       8.52302617       3.69303452       0.01033840      -0.00128221      -0.00800584
C        0.05109669       1.42300573       3.96103680      -0.00905450       0.00298723       0.00822751
C       -1.20990070       3.51658822       4.06190660      -0.00045449       0.00462502       0.00627545
C       -2.43485179       5.66950290       4.00162935       0.00345070      -0.00601016       0.00074976
C       -3.66123527       7.81812957       3.90611247      -0.00383751      -0.00453888      -0.01030741
C       -4.88565765       9.97589718       3.87917982       0.00857349       0.00520810      -0.00069696
C        2.50773765       1.48806893       3.85784943      -0.00596688       0.00837835       0.00214506
O        1.20740969       3.53042943       3.86406560      -0.00143162      -0.00946863      -0.01666245
C       -0.03392336       5.58731975       3.67338197      -0.00223136      -0.00271318       0.01139228
C       -1.19416640       7.80296586       3.76296003       0.00046313       0.01188076       0.00040721
C       -2.43700846       9.97532822       3.85692169       0.00503712      -0.01139182      -0.00087371
C        4.96482376       1.42132376       3.88273112      -0.00263952      -0.00889627       0.00027851
O        3.82079696       3.51324127       3.65727833       0.01279611       0.00364887       0.01059595
C        1.27090695       7.87457944       3.42035870      -0.00106915       0.00395226      -0.00614478
C        0.03288573       9.95205407       3.81100457       0.00087872       0.00248132      -0.00353494
C        7.43570881       1.39718409       3.98827456       0.00354649      -0.00385832      -0.00686693
C        6.22185079       3.51738007       3.90601533      -0.00024794       0.00797365      -0.00303130
C        5.04917570       5.60551741       3.47884915      -0.00984076       0.00685714      -0.00452065
C        3.74539389       7.85259973       3.41402661       0.01383373       0.00234616       0.00004473
C        2.50678097       9.96478879       3.78927167      -0.01019362      -0.00466451      -0.00052381
C        9.91260538       1.39456048       4.03581877       0.00637704       0.00556372      -0.00493599
C        8.67229702       3.53247564       4.08371658      -0.01002632      -0.00694790      -0.00212169
C        7.44093672       5.66949308       3.94318872       0.00590313       0.00697549       0.00447156
C        6.20674725       7.80647812       3.75385257       0.00469387      -0.01355980       0.00130390
C        4.98044611       9.94742900       3.85602676      -0.00589360       0.00474582      -0.00496183
Co       2.82785317       6.02139480       4.45428093       0.00060213       0.00440843      -0.00483413
O        2.79954107       4.92215149       5.86708099      -0.00523992       0.00534865      -0.00423157
O        1.46504985       4.60409438       6.32445452      -0.00384711       0.00619956      -0.00357125
H        1.46264172       5.11966977       7.15850195      -0.00370625      -0.01111901       0.00311966
