52
Lattice="12.336457 0.0 0.0 -6.168228499999997 10.683685154694365 0.0 0.0 0.0 15.0" Properties=species:S:1:pos:R:3:forces:R:3 energy=-438.55969368976463 free_energy=-438.55969368976463 stress="-0.004578934467151244 0.0022757635652463407 -6.928994973520324e-06 0.0022757635652463407 -0.002897609188538604 -1.5444674414937175e-05 -6.928994973520324e-06 -1.5444674414937175e-05 -1.6061531173704614e-05" pbc="T T T"
C        0.02636158      -0.04050461       3.72630058      -0.00569464      -0.00255372      -0.00340543
C       -1.19053269       2.11595533       3.65636415      -0.00700488       0.00214516      -0.00449149
C       -2.42686405       4.24951356       3.84833950       0.00193739      -0.00154727      -0.00269225
C       -3.67393315       6.38087617       3.95891265       0.00497255      -0.00594449      -0.00678484
C       -4.92073600       8.50397293       3.83791505       0.00224815       0.00820785      -0.00433249
C        2.48966605      -0.05077483       3.89555472       0.00300856       0.00082110       0.00726872
C        1.29783683       2.06208085       3.57159142      -0.00230636      -0.01418093       0.00406932
C       -0.04218615       4.33118512       3.40190140      -0.00545250       0.00710734       0.00417820
C       -1.24685196       6.41481326       3.76162737       0.00737549       0.00759740      -0.00552209
C       -2.44877412       8.51841034       3.90282411       0.00519363       0.00753434      -0.00348283
C        4.96626655      -0.03521886       4.00346352      -0.00543618      -0.00094803       0.00510056
C        3.72109223       2.04574234       4.24698187       0.01178422      -0.00106805      -0.00419455
O        1.11706280       6.44709409       3.36025697       0.00687963      -0.00463000      -0.00908933
C        0.01220468       8.52207008       3.75626246      -0.00368868       0.00233291      -0.00648061
C        7.43742481      -0.04228882       3.90278803      -0.00286169       0.00003755      -0.00153982
C        6.22197841       2.08893401       4.23888956      -0.00415284       0.00050922       0.00137686
C        5.06580938       4.26688070       4.43764238      -0.00116143       0.00048884       0.01184863
P        3.74370409       6.11834203       2.87285867      -0.00208331       0.00118836       0.01110184
C        2.46524469       8.49178674       3.56969924      -0.00101718      -0.00808858      -0.00755719
C        9.89631480      -0.03920370       3.73876467       0.01073450      -0.00372438       0.00312375
C        8.68411246       2.09912687       3.95500794       0.00202039      -0.00096322      -0.00255483
C        7.47076737       4.23325873       4.13707580      -0.00199893      -0.00350548      -0.00222183
C        6.22604893       6.37261929       3.93349150      -0.01938254       0.00366097      -0.00264966
C        4.94780361       8.49262040       3.63595567      -0.00245013      -0.00506262      -0.00272602
C        0.04370179       1.39831064       3.63422236      -0.01091048      -0.00345736       0.00129674
C       -1.20089817       3.54751049       3.63429678      -0.00548354       0.00167041       0.00013893
C       -2.45040748       5.67017302       3.88015570       0.01427432      -0.00317665       0.00094078
C       -3.68488037       7.80264441       3.90918440       0.00772812       0.00259048       0.00063866
C       -4.91474796       9.92838819       3.80625192      -0.00058367       0.00844433      -0.00809375
C        2.50152985       1.37654405       3.90915211       0.00956503      -0.00571172      -0.00059355
S        1.43536263       3.60377688       2.76619581       0.01631522       0.00982933       0.00465176
C       -0.07761429       5.72241899       3.50902643       0.00802442       0.00381198       0.01190923
C       -1.22970386       7.82675049       3.82136589       0.00197131       0.00460939      -0.00582494
C       -2.44123465       9.94022548       3.94382551      -0.00006954       0.00460306      -0.00005288
C        4.97189029       1.38846937       4.18215988       0.00363164      -0.00451027      -0.00428552
S        3.62750297       3.54037443       5.13660619       0.00091153       0.01259065       0.00363231
C        1.20758868       7.84553287       3.56107352      -0.00412603      -0.00022343      -0.00196090
C        0.02996862       9.94269986       3.89831327      -0.00815795       0.00105626      -0.00325383
C        7.44449446       1.38541073       4.04907276      -0.00420626       0.00443782      -0.00780257
C        6.24831070       3.50866997       4.32011405      -0.00300758      -0.00236760      -0.00869328
C        5.02744394       5.60699748       3.99063101      -0.01581416      -0.00510089       0.00310074
C        3.71514085       7.81192209       3.45505789      -0.00048608      -0.00890066       0.00135613
C        2.48755752       9.92540135       3.74467083       0.00568129      -0.00416003       0.00187475
C        9.91636377       1.39628981       3.78631173       0.00356935      -0.00029319       0.00225412
C        8.69082534       3.52249002       3.99873956       0.00318191      -0.00329862      -0.00220668
C        7.45105668       5.65864998       4.03950477      -0.01115278       0.00057149       0.00446174
C        6.19088383       7.78658021       3.76924739      -0.00414133       0.00684633      -0.00078028
C        4.95811542       9.93114444       3.69632568       0.00260737      -0.00951177       0.00690866
Co       2.36791818       5.00769301       4.14321600      -0.01124451      -0.00397516       0.00202716
O        1.93693466       5.71889306       5.77460779      -0.00256416      -0.00465220       0.01611691
O        2.37694049       4.93774248       6.91851989       0.01667525       0.00343388       0.00429562
H        2.51270128       5.65105547       7.57243652      -0.00365191       0.00542986      -0.00039870
