51
Lattice="12.336457 0.0 0.0 -6.168228499999997 10.683685154694365 0.0 0.0 0.0 15.0" Properties=species:S:1:pos:R:3:initial_magmoms:R:1:forces:R:3 energy=-438.68969087287024 free_energy=-438.68969087287024 stress="-0.004061693194052808 -0.0016171934203289171 -1.8592569102099882e-05 -0.0016171934203289171 -0.0027739367795100232 3.1062525407362186e-06 -1.8592569102099882e-05 3.1062525407362186e-06 -3.2942135920622e-05" pbc="T T T"
C        0.04273464       0.03872169       3.93705080       0.00000000      -0.00423945       0.00332049       0.00020145
C       -1.21336702       2.17005681       4.11583080       0.00000000       0.00608586      -0.00354936       0.00671703
C       -2.45584872       4.31335180       3.96549549       0.00000000       0.00297974      -0.00390844       0.01001984
C       -3.65954936       6.45943201       3.82569942       0.00000000      -0.00196444      -0.00479705       0.00819952
C       -4.88522808       8.59351060       3.81719759       0.00000000       0.00153421       0.00902177      -0.00771508
C        2.51628569       0.03529987       3.91902657       0.00000000      -0.00135896       0.00089694       0.00097558
C        1.28194815       2.11335676       4.35518229       0.00000000       0.01101377      -0.01274143       0.00625010
C       -0.03670503       4.35384341       4.32833942       0.00000000       0.00329921      -0.00020663       0.00354543
C       -1.21376698       6.45740881       3.83816720       0.00000000       0.00096365      -0.00382295      -0.00045695
C       -2.40986353       8.58542712       3.80015340       0.00000000       0.00264276       0.00188412       0.00347879
C        4.97870260       0.04464653       3.74353350       0.00000000       0.00004162       0.00173225      -0.00653844
C        3.70515210       2.13602728       3.56750260       0.00000000      -0.00233048       0.00376585      -0.00002331
S        1.14771971       6.30550742       2.67100570       0.00000000      -0.00959710       0.00988125       0.00655452
C        0.05357871       8.58095761       3.60663680       0.00000000      -0.00330545      -0.00399935      -0.00261973
C        7.44752378       0.04082946       3.68443300       0.00000000      -0.00125119       0.00607375      -0.00453961
C        6.19647818       2.19324464       3.57592489       0.00000000      -0.00910776       0.00365311      -0.00010763
C        5.04488150       4.39364969       3.26103039       0.00000000       0.00049033       0.00048587       0.00088737
O        3.87166785       6.51790900       3.36061234       0.00000000       0.00094018       0.00056920      -0.00385407
C        2.53412514       8.56380067       3.50581772       0.00000000      -0.00628089      -0.00520401       0.00282053
C        9.90848263       0.03696758       3.79806749       0.00000000       0.00028919       0.00081465       0.00290239
C        8.66506200       2.17894473       3.81698216       0.00000000      -0.00053750       0.00743012      -0.00169168
C        7.43827154       4.32613651       3.69082588       0.00000000      -0.00371894      -0.00291746       0.00232755
C        6.24907752       6.48726313       3.61271155       0.00000000       0.00327393      -0.00190326      -0.00858212
C        4.98890512       8.59714974       3.66197327       0.00000000       0.00355009      -0.00387577      -0.00221460
C        0.04456762       1.45988990       4.14824022       0.00000000       0.00760350      -0.00044690       0.00138301
C       -1.23405353       3.59885519       4.16179396       0.00000000       0.00423938      -0.00500441       0.01236933
C       -2.44511953       5.73951767       3.90445001       0.00000000       0.00148339      -0.00569599       0.00270246
C       -3.64916640       7.88025125       3.82287261       0.00000000       0.00072471       0.00108934      -0.00695405
C       -4.88680411      10.01510449       3.90396772       0.00000000      -0.00444121       0.01008126      -0.00417100
C        2.49799648       1.47358002       3.98764501       0.00000000       0.00327009      -0.00422018      -0.00200086
P        1.17545232       3.56118475       5.46485851       0.00000000      -0.00418062       0.00182774      -0.00693885
C       -0.02838999       5.67896156       3.83926562       0.00000000       0.00249378      -0.00288110       0.00063236
C       -1.18496057       7.87151661       3.71475389       0.00000000       0.00078870      -0.00307454       0.00183279
C       -2.41823688      10.01486189       3.81658362       0.00000000       0.00067580       0.00336747       0.00201369
C        4.96106042       1.47774910       3.62730271       0.00000000      -0.00730789       0.00327510       0.00568800
S        3.60306000       3.59490536       2.60963066       0.00000000       0.00549826      -0.00000995      -0.00426296
C        1.27218875       7.90701383       3.36668631       0.00000000      -0.00624605      -0.00598585      -0.00461045
C        0.04749896      10.01705143       3.68880230       0.00000000       0.00077205      -0.00163848      -0.00747159
C        7.42850447       1.47679095       3.69584376       0.00000000      -0.00480497       0.00949640      -0.00338955
C        6.20910214       3.62209666       3.50583948       0.00000000      -0.00240646       0.00004512      -0.00121010
C        5.07617171       5.78743045       3.38456812       0.00000000       0.00237969       0.00081207      -0.01040766
C        3.79139765       7.91738996       3.51200073       0.00000000      -0.00168554       0.00125263      -0.00903792
C        2.51825365      10.00405059       3.66829598       0.00000000      -0.00282006      -0.00178102       0.00926545
C        9.90365994       1.46686315       3.91671825       0.00000000       0.00199401       0.00450580      -0.00394893
C        8.65984910       3.60195209       3.83568729       0.00000000       0.00083233       0.00436113      -0.00581964
C        7.45640167       5.74579383       3.72067846       0.00000000      -0.00287011      -0.00679771       0.00308561
C        6.23168672       7.89922099       3.70415242       0.00000000       0.00681380      -0.00128859      -0.00862721
C        4.97796854      10.02170450       3.80021767       0.00000000      -0.00057996      -0.00308406       0.00035862
Co       2.50356920       5.06273780       3.81597689       0.00000000      -0.00230936      -0.00387030       0.00543043
O        0.55785468       3.24553231       6.78642100       1.00000000       0.00418228       0.00363929       0.01863762
O        2.52643525       4.35647217       5.51220080       1.00000000       0.00248809      -0.00057796      -0.00108543
