52
Lattice="12.336457 0.0 0.0 -6.168228499999997 10.683685154694365 0.0 0.0 0.0 15.0" Properties=species:S:1:pos:R:3:forces:R:3 energy=-438.9599700185161 free_energy=-438.9599700185161 stress="-0.00539398541234233 -0.0037317178174273023 -2.9075835883492447e-05 -0.0037317178174273023 -0.003096140859124868 -1.3405074797087453e-05 -2.9075835883492447e-05 -1.3405074797087453e-05 -4.109470334235062e-06" pbc="T T T"
C       -0.06077846      -0.09098749       4.02174435       0.00887708       0.00701607      -0.00415897
C       -1.33413647       2.02419662       4.28709781      -0.00452512      -0.00449741      -0.00654186
C       -2.57754172       4.17614194       4.11620747      -0.00869666      -0.00598828       0.00731977
C       -3.75616582       6.32771194       3.84716046       0.00183169       0.00138012       0.00499507
C       -4.97435768       8.47063713       3.80276947       0.00295970      -0.00190946      -0.00142826
C        2.42000960      -0.11018146       3.96658001       0.01149101      -0.00410753       0.00187459
C        1.18144242       1.97037320       4.40709657      -0.00679502       0.00708097      -0.01161169
C       -0.19852597       4.20355727       4.58206462       0.00070806      -0.00104809      -0.01956284
C       -1.32572497       6.31983150       4.00788707      -0.01475414       0.00457238       0.00183386
C       -2.49882480       8.44879859       3.84527153      -0.00410184       0.00045116       0.00585391
C        4.88127624      -0.08843754       3.77116726       0.00286903      -0.01121315      -0.00046787
C        3.59896232       2.00468164       3.68954892      -0.00745466       0.00255128      -0.00999748
S        1.22641569       6.06834257       3.31083889      -0.00950940       0.00083182      -0.00040643
C       -0.03353481       8.43664044       3.73274478      -0.00190056      -0.00474469       0.00351225
C        7.34494513      -0.09064799       3.74079030      -0.00005956       0.00666589      -0.00270821
C        6.09005199       2.06762280       3.62008510      -0.00432527      -0.01099837      -0.00794819
C        4.95246510       4.28361013       3.28322005      -0.00100842       0.00728522       0.00481485
O        3.79407060       6.40249200       3.36492808      -0.00208056      -0.00008188       0.00534665
C        2.45215294       8.44242792       3.59954122       0.01019456      -0.00266115      -0.01316710
C        9.80802921      -0.09200550       3.87929258      -0.00363210       0.00155103      -0.01382449
C        8.55296993       2.04592021       3.90556149       0.01469100       0.00063257       0.00681427
C        7.33847164       4.19935012       3.69914636      -0.00368420      -0.00630784      -0.00918030
C        6.17529006       6.37543532       3.50864832      -0.00433927      -0.00105492       0.00338068
C        4.90481924       8.48187239       3.62724407       0.00542436       0.00930946       0.00970115
C       -0.07457092       1.31994460       4.27676203      -0.00445487       0.00567176      -0.01348025
C       -1.37801342       3.44686192       4.38006066      -0.00705500      -0.00575242      -0.00202591
C       -2.55651420       5.60139122       4.01631577      -0.00638434      -0.00652198       0.00252707
C       -3.73993511       7.74989823       3.83228383       0.00021424       0.00141708       0.00021671
C       -4.98762122       9.88488347       3.94315313       0.01137751      -0.00188153       0.00690379
C        2.40514252       1.31028640       4.06009948      -0.00378874       0.00106118       0.00343863
P        1.28059351       3.51347736       5.29025506       0.01352020       0.00505487       0.00402163
C       -0.16727564       5.53966653       4.15333065      -0.01253291       0.01057196       0.00829476
C       -1.27298926       7.72887162       3.83174949      -0.01009541       0.00148452      -0.00853223
C       -2.51050325       9.87664920       3.85050577       0.00604549      -0.00747832      -0.01347648
C        4.85851880       1.35052577       3.67333047      -0.00707047      -0.01029480       0.00732843
S        3.39318661       3.56391132       2.93021775       0.00439448       0.00209968       0.00517189
C        1.20233681       7.76435678       3.60598230       0.00255101       0.00280204      -0.01146178
C       -0.05018950       9.88041127       3.73766195       0.00279290      -0.00477072       0.01052181
C        7.32096847       1.34655795       3.74940060       0.01233837       0.00692171      -0.00108620
C        6.10704252       3.49755475       3.51784799      -0.00906305      -0.00683059       0.00233993
C        4.99974418       5.68396719       3.29968263      -0.00958288       0.00616524       0.01277667
C        3.70824560       7.80095216       3.49303142       0.01183473      -0.00195741       0.00062882
C        2.42087599       9.87680683       3.73596736      -0.00389942      -0.00102465       0.00401402
C        9.78803407       1.32908878       4.03969928       0.00649990      -0.00429708      -0.01484023
C        8.54697176       3.47049553       3.91527578      -0.00422763      -0.00381390       0.01128405
C        7.36537316       5.62078194       3.68597671       0.00128270      -0.00242984       0.00271651
C        6.15080223       7.78443243       3.63440600       0.00018599       0.00015322       0.00033286
C        4.88171033       9.89521495       3.84911424       0.00347300       0.01381571       0.00261740
Co       2.70507239       4.94720404       4.49864796       0.00223017      -0.00589860       0.01682193
O        3.70338612       5.37014771       5.93865574       0.01334630       0.01073308      -0.00140642
O        3.60499633       6.81417051       6.18866131      -0.00517712      -0.00078746      -0.00186395
H        3.40782073       6.75570724       7.14602704       0.00906512       0.00107205       0.01177319
