51
Lattice="12.336457 0.0 0.0 -6.168228499999997 10.683685154694365 0.0 0.0 0.0 15.0" Properties=species:S:1:pos:R:3:initial_magmoms:R:1:forces:R:3 energy=-435.81622681949426 free_energy=-435.81622681949426 stress="-0.0025736311804089762 -2.652565487622781e-05 6.55112246930101e-07 -2.652565487622781e-05 0.002730737250497697 5.453218126327653e-06 6.55112246930101e-07 5.453218126327653e-06 3.0557136728485295e-06" pbc="T T T"
C        0.00549789       0.02175047       3.82676101       0.00000000       0.00408210       0.00421518      -0.00103154
C       -1.24365610       2.12810534       3.98126430       0.00000000      -0.00336466       0.00689184       0.00594782
C       -2.47675077       4.27856933       4.10106800       0.00000000       0.00213638       0.00211009      -0.00750575
C       -3.70085525       6.42670175       4.01803709       0.00000000      -0.00038916      -0.00393525      -0.00619911
C       -4.93606859       8.56716829       3.82979651       0.00000000       0.00098482      -0.00683423       0.00209071
C        2.46698210       0.07288545       3.80337544       0.00000000       0.00050750       0.00341774      -0.00104098
C        1.19839869       2.16111548       3.74262578       0.00000000      -0.00213375       0.00045536      -0.01091095
C       -0.09399494       4.24082679       3.72644143       0.00000000       0.00084791      -0.00569684       0.00074619
C       -1.25393730       6.41245161       3.79602355       0.00000000      -0.00564163      -0.00133981       0.00219186
C       -2.46601604       8.56660216       3.82914441       0.00000000      -0.00146536       0.00826634       0.00023161
C        4.92817691       0.02213918       3.82997932       0.00000000       0.00174879      -0.00114122      -0.00291379
C        3.73519460       2.16089934       3.74850767       0.00000000       0.00131374       0.00145859       0.00152094
S        1.10640323       6.32809797       2.47359454       0.00000000       0.01273727       0.01072446      -0.00446462
C       -0.00513861       8.55461113       3.59076084       0.00000000       0.00192717      -0.00463489      -0.00241791
C        7.40231328      -0.00197015       3.84086042       0.00000000      -0.00403454      -0.00135353       0.00265521
C        6.17729006       2.12875859       3.99005383       0.00000000       0.00097485      -0.00233696      -0.00009527
C        5.02680124       4.24134274       3.74187889       0.00000000      -0.00277442       0.00305086       0.00634273
S        3.82831761       6.32505211       2.48076308       0.00000000      -0.00639375       0.00842208       0.00149748
C        2.46710612       8.56813149       3.39867698       0.00000000      -0.00055890      -0.00171465       0.00016258
C        9.86815306      -0.00205395       3.83958057       0.00000000      -0.00039436      -0.00481817       0.00209971
C        8.63499109       2.13190524       4.07086285       0.00000000       0.00575322       0.00397150      -0.00273770
C        7.41121234       4.27900626       4.10558494       0.00000000      -0.00294117      -0.00093042      -0.00042853
C        6.18813210       6.41252547       3.80196626       0.00000000       0.00190525       0.00099356       0.00478412
C        4.93939640       8.55403673       3.59148958       0.00000000      -0.00427459      -0.00281629       0.00103529
C        0.00704019       1.45399667       3.85892550       0.00000000      -0.00438457       0.00635610       0.00296795
C       -1.25989010       3.54200716       4.00903657       0.00000000      -0.00057481       0.00220389       0.00663600
C       -2.47283530       5.70283515       4.02466429       0.00000000      -0.00325281      -0.00028679      -0.00029264
C       -3.70109490       7.85269774       3.90328043       0.00000000       0.00296202      -0.00430349       0.00183046
C       -4.92436001      10.01297703       3.81096193       0.00000000       0.00334903      -0.00414675       0.00116583
C        2.46680172       1.53288376       3.75224513       0.00000000      -0.00080859       0.00343480       0.00925331
O        1.10846282       3.54579584       3.53788034       0.00000000       0.00135010      -0.00196743      -0.00115709
C       -0.09895909       5.63207410       3.55547564       0.00000000      -0.00519185      -0.00578652       0.00862818
C       -1.24312317       7.84268417       3.72088169       0.00000000      -0.00269495       0.00453355       0.00186612
C       -2.47811871      10.01262051       3.81095603       0.00000000      -0.00008813       0.00802876       0.00869203
C        4.92675877       1.45451491       3.86656884       0.00000000       0.00167638      -0.00114195      -0.00441870
O        3.82275299       3.54748312       3.56046882       0.00000000      -0.00026916       0.00046336      -0.01088878
C        1.21143783       7.90389655       3.26911846       0.00000000       0.00571867      -0.00345667      -0.00210789
C       -0.00448666       9.98474558       3.77063481       0.00000000      -0.00140954      -0.00468440      -0.00568812
C        7.39984031       1.41987714       3.99718770       0.00000000       0.00307660       0.00015998       0.01268894
C        6.19373858       3.54264993       4.02011756       0.00000000      -0.00319632      -0.00358048       0.00217482
C        5.03165887       5.63203509       3.56778934       0.00000000       0.00668675       0.00099579       0.00010192
C        3.72249849       7.90282147       3.27206039       0.00000000      -0.00370748      -0.00145023      -0.00665734
C        2.46706858       9.97915184       3.72479147       0.00000000      -0.00398950      -0.00250237      -0.00073633
C        9.87011314       1.41976617       3.99496229       0.00000000       0.00313164      -0.00090310       0.00270874
C        8.63533742       3.55995459       4.13826440       0.00000000       0.00301016       0.00555731       0.00281361
C        7.40751820       5.70315985       4.02890281       0.00000000       0.00011543      -0.00095181      -0.00524042
C        6.17770418       7.84274370       3.72285249       0.00000000      -0.00453617       0.00041561       0.00283354
C        4.93834764       9.98433844       3.76852413       0.00000000       0.00233647      -0.00055316      -0.00234998
Co       2.46343177       5.14630931       3.67684895       0.00000000      -0.00218777      -0.01568505      -0.00839187
O        2.43338597       3.97105024       5.93007199       1.00000000       0.00269886      -0.00177713      -0.00962497
O        2.46458751       5.19522860       5.48607814       1.00000000      -0.00037316       0.00460287       0.00163257
