51
Lattice="12.336457 0.0 0.0 -6.168228499999997 10.683685154694365 0.0 0.0 0.0 15.0" Properties=species:S:1:pos:R:3:initial_magmoms:R:1:forces:R:3 energy=-436.85218696450005 free_energy=-436.85218696450005 stress="-9.269204039929739e-05 0.0005131995083625811 -7.780942996637226e-06 0.0005131995083625811 0.003943116438304509 -2.4026686348426756e-06 -7.780942996637226e-06 -2.4026686348426756e-06 -9.042339555573987e-06" pbc="T T T"
C       -0.02495732       0.02691325       3.87498102       0.00000000       0.00104555       0.00083331      -0.00305892
C       -1.25738990       2.15869412       3.96313689       0.00000000      -0.00259427       0.00237092       0.00424238
C       -2.47375494       4.28913176       3.97805172       0.00000000      -0.00074101      -0.00088539      -0.00363132
C       -3.71080539       6.42676059       3.91432086       0.00000000       0.00470230      -0.00016654      -0.00109949
C       -4.96434281       8.56892134       3.83442381       0.00000000      -0.00135973      -0.00146193       0.00023567
C        2.43320038       0.04515508       3.84056842       0.00000000       0.00090611       0.00441472       0.00078746
C        1.18220051       2.17622989       3.81128128       0.00000000       0.00174782      -0.00034262      -0.00322245
C       -0.03239658       4.29988838       3.92809387       0.00000000       0.00070672       0.00063691      -0.00330838
C       -1.24450475       6.41467941       3.97575179       0.00000000      -0.00311903      -0.00083492      -0.00228775
C       -2.49023337       8.56160508       3.93100955       0.00000000       0.00155841       0.00074286       0.00203265
C        4.90492801       0.01254916       3.80356777       0.00000000      -0.00304600      -0.00051725       0.00102020
C        3.66929083       2.10746692       3.38496281       0.00000000       0.00022220      -0.00115339      -0.00215359
O        1.14419555       6.43848854       3.83616109       0.00000000      -0.00399813       0.00408942       0.00669454
C       -0.02511623       8.53669657       3.89959979       0.00000000       0.00323485      -0.00039417      -0.00282211
C        7.37325002      -0.00649543       3.86806641       0.00000000       0.00021566       0.00079245      -0.00022827
C        6.15560239       2.13576402       3.64812617       0.00000000      -0.00223020      -0.00124433      -0.00221415
C        5.05803157       4.28057254       3.19399166       0.00000000       0.00400150      -0.00036294      -0.00159239
S        3.60129580       6.38574321       2.56896746       0.00000000      -0.00177733       0.00364434      -0.00216059
C        2.41668478       8.51759602       3.73440022       0.00000000       0.00152389       0.00069186      -0.00007489
C        9.83787600      -0.00034649       3.88949608       0.00000000       0.00092996      -0.00249880      -0.00093433
C        8.61322966       2.14309318       3.90732473       0.00000000       0.00068249      -0.00074039       0.00034526
C        7.40764962       4.28057608       3.77596405       0.00000000       0.00386874       0.00178962      -0.00251924
C        6.19972107       6.44336872       3.59662605       0.00000000      -0.00213493       0.00011146       0.00121078
C        4.89901115       8.55397836       3.65035898       0.00000000      -0.00600072      -0.00210302       0.00120731
C       -0.01765740       1.46496862       3.90972420       0.00000000      -0.00013094       0.00227581      -0.00101598
C       -1.23967193       3.58435389       3.98104528       0.00000000      -0.00084400       0.00268169       0.00468787
C       -2.47607232       5.70690314       3.97694919       0.00000000       0.00044474      -0.00232360      -0.00027388
C       -3.72756120       7.85302077       3.90617737       0.00000000       0.00282208      -0.00103920      -0.00361985
C       -4.96300498      10.00490876       3.86528249       0.00000000       0.00253325       0.00026029       0.00321709
C        2.42334454       1.48560901       3.70051729       0.00000000       0.00252179       0.00341753       0.00671140
O        1.15713402       3.57196118       3.88795254       0.00000000       0.00050605      -0.00211808       0.00378927
C       -0.03385602       5.70620104       3.91831250       0.00000000      -0.00225125       0.00063608      -0.00110279
C       -1.26389083       7.84031921       3.95139981       0.00000000       0.00224551      -0.00043525      -0.00166149
C       -2.50106472       9.99753488       3.86510087       0.00000000      -0.00227040       0.00167145      -0.00352868
C        4.90219024       1.43829871       3.60568968       0.00000000      -0.00311123       0.00028232       0.00614577
S        3.63968578       3.57334217       2.41581879       0.00000000      -0.00069744      -0.00673275       0.00940222
C        1.17245035       7.82624289       3.80697110       0.00000000       0.00337484       0.00161558      -0.00128596
C       -0.02706738       9.97326188       3.86369989       0.00000000      -0.00073576       0.00003845       0.00152482
C        7.37593837       1.42713396       3.82746002       0.00000000      -0.00053784       0.00044190      -0.00065709
C        6.20805295       3.54586340       3.56137244       0.00000000       0.00469955      -0.00139482      -0.00432893
C        5.04635256       5.70189567       3.24908922       0.00000000      -0.00293858      -0.00096697       0.00060221
C        3.66243234       7.88244807       3.45727199       0.00000000      -0.00440216      -0.00296738      -0.00245102
C        2.43261541       9.95387546       3.86412045       0.00000000       0.00114450      -0.00039234       0.00125080
C        9.85143266       1.43634911       3.94463938       0.00000000      -0.00076881      -0.00110031      -0.00209348
C        8.62869126       3.56812547       3.91195990       0.00000000       0.00204580      -0.00060544      -0.00205153
C        7.40567704       5.71194966       3.78430581       0.00000000       0.00147016       0.00265428       0.00188701
C        6.15010949       7.85595111       3.67776873       0.00000000      -0.00666300      -0.00008104      -0.00015653
C        4.90621241       9.98401036       3.83118529       0.00000000      -0.00043659      -0.00157482      -0.00037117
Co       3.27530099       4.86968131       4.07430974       0.00000000      -0.00158231      -0.00007805      -0.01891096
O        3.05736202       4.06694966       5.71921957       1.00000000       0.00364589       0.00215802      -0.00005332
O        2.37434937       5.21273063       5.65384198       1.00000000       0.00157134      -0.00373551       0.01787583
