52
Lattice="12.336457 0.0 0.0 -6.168228499999997 10.683685154694365 0.0 0.0 0.0 15.0" Properties=species:S:1:pos:R:3:forces:R:3 energy=-452.66177375794695 free_energy=-452.66177375794695 stress="-0.00916056786724684 0.0007511377721536517 -1.0343054277665616e-05 0.0007511377721536517 -0.007625041351034255 2.3902372202527157e-05 -1.0343054277665616e-05 2.3902372202527157e-05 1.925758158896792e-05" pbc="T T T"
C        0.01702486      -0.01898956       3.84885102       0.00040759       0.00298077       0.00037461
C       -1.22460502       2.10454721       3.92174387       0.00355217       0.00171317       0.00315698
C       -2.45853654       4.25202750       3.83159900       0.00216096       0.00146669       0.00224391
C       -3.68245295       6.39091282       3.71835177      -0.00464002      -0.00074407       0.00793953
C       -4.92071475       8.52962329       3.70673847      -0.00653709       0.00654089      -0.00513224
C        2.48242906      -0.01209143       3.88265110      -0.00045993      -0.00023579       0.00101351
C        1.24408852       2.12868900       4.00728659      -0.00061573       0.00020264       0.01118308
C       -0.02336698       4.22313442       3.98177558       0.00158299      -0.00304892       0.00379511
C       -1.22785366       6.39344637       3.84017220       0.00191624       0.00025482       0.00050523
C       -2.45522898       8.53307645       3.82426245      -0.00114930      -0.00169462       0.00652440
C        4.95117438      -0.01471453       3.91321911      -0.00193282       0.00239960      -0.00384366
C        3.73017296       2.12383986       3.88796018      -0.00281823      -0.00656761       0.00642042
B        1.30907487       6.37577406       3.87393665       0.00206550       0.00224140      -0.01327925
C        0.00627084       8.54216414       3.89861570       0.00441788       0.00077207       0.00418529
C        7.41908733      -0.00893554       3.94631944      -0.00196519      -0.00979060      -0.01016113
C        6.20296177       2.10396528       3.85097044       0.00804011      -0.00334571       0.00811376
C        5.01199666       4.20613365       3.61949135       0.00635050       0.00240898      -0.00105728
P        3.45882182       6.28502070       2.81890038      -0.00344807      -0.00177472      -0.00273702
C        2.48340906       8.57599484       3.80569150      -0.00175490       0.00139158      -0.01090657
C        9.89373205      -0.01315240       3.88398923       0.00022858       0.00436299      -0.00132350
C        8.65876456       2.11514926       3.88720399      -0.00119707       0.00866311      -0.00864558
C        7.44332115       4.24982389       3.71515568      -0.00243469       0.00356071       0.00262423
C        6.19970284       6.38871093       3.51515536       0.00337364       0.00134165      -0.01077629
C        4.95179458       8.53483784       3.62285530      -0.00550520      -0.00602609      -0.01095482
C        0.00943415       1.39943131       3.93644051       0.00223182       0.00213425       0.00800443
C       -1.24788519       3.52059747       3.91023794       0.00235665      -0.00158874       0.00488207
C       -2.45840363       5.67765178       3.79362550      -0.00087321       0.00084090       0.00762701
C       -3.68567722       7.81878525       3.74005005      -0.00787450       0.00139720       0.00625281
C       -4.91707330       9.95373854       3.81262619      -0.00156786       0.00485938       0.00830661
C        2.48621654       1.40877351       3.95067287      -0.00636468      -0.00314301       0.00344201
C        1.18105581       3.51921653       4.11664751       0.00558830      -0.00012816       0.01005985
C       -0.01862073       5.65477929       3.90840926       0.00019024      -0.00323672      -0.00613099
C       -1.22559336       7.82249530       3.85337822       0.00400592       0.00108031       0.00620201
C       -2.45342882       9.95707164       3.87437282      -0.00034999       0.00028914      -0.00390297
C        4.96533214       1.40145156       3.89014664       0.00268122      -0.00074109      -0.00259543
C        3.80374186       3.51568124       3.79318076       0.01234575      -0.00616468       0.00650540
C        1.25192047       7.86913203       3.86403180       0.00275453       0.00162231       0.00025836
C        0.01281703       9.96476201       3.93094276      -0.00430379      -0.00139441      -0.00291992
C        7.42937451       1.40318708       3.90960249       0.00614263      -0.00798039      -0.00129600
C        6.23535874       3.51290854       3.72099822       0.00468131      -0.00184642      -0.00114494
C        5.01503107       5.62675191       3.40672178       0.00106725       0.00496418      -0.00752854
C        3.69551704       7.88454324       3.53970113      -0.00576762      -0.00271583       0.00059711
C        2.48880560       9.98264528       3.91209581       0.00051481      -0.00224710      -0.00417691
C        9.88485260       1.40141334       3.90871635      -0.00016985       0.00906432      -0.00089019
C        8.66012469       3.53741846       3.81415003      -0.00132124       0.00938963      -0.00708124
C        7.43361322       5.67485911       3.64381243      -0.00220774      -0.00017060       0.00616454
C        6.18759007       7.81842489       3.58280166      -0.00232238      -0.00020990      -0.00235608
C        4.95486029       9.95567070       3.79394768       0.00028992      -0.00346465       0.00651257
Cr       2.56951752       4.88037932       4.48017557      -0.01538236       0.00688145       0.00057473
O        3.23384768       5.31327509       6.28470835      -0.00921803      -0.00321848       0.00012856
O        2.25030678       4.66880373       7.14929741       0.01033239       0.00031194      -0.00581926
H        1.82334535       5.45611223       7.54070178       0.00290256      -0.01165776      -0.00893835
