51
Lattice="12.336457 0.0 0.0 -6.168228499999997 10.683685154694365 0.0 0.0 0.0 15.0" Properties=species:S:1:pos:R:3:initial_magmoms:R:1:forces:R:3 energy=-441.2874541456286 free_energy=-441.2874541456286 stress="-0.004127387686514953 0.00480499369037194 2.3713158100445612e-05 0.00480499369037194 -0.011568402188740785 -4.624910003188778e-06 2.3713158100445612e-05 -4.624910003188778e-06 9.249079676497729e-06" pbc="T T T"
C        0.03929668      -0.02819972       3.67654547       0.00000000      -0.00432355       0.00560290      -0.00147929
C       -1.15795524       2.14501489       3.65438430       0.00000000       0.00648337      -0.00897185      -0.00845561
C       -2.41903791       4.26132081       3.65419141       0.00000000       0.00149723      -0.00143739      -0.00383424
C       -3.68300424       6.37759594       3.61972862       0.00000000      -0.00532161       0.00162420      -0.01055638
C       -4.93403901       8.48928130       3.62542274       0.00000000       0.00043479       0.00091897      -0.00283150
C        2.49859628      -0.09595075       3.62369629       0.00000000       0.00009043       0.00035756       0.00484891
C        1.32478090       2.04887028       3.62591091       0.00000000       0.00175775       0.00660200      -0.00112908
C        0.01416513       4.34662902       3.80914583       0.00000000      -0.00798354      -0.00462101      -0.00206347
C       -1.23900836       6.40168920       3.92991515       0.00000000       0.00247977       0.00169977      -0.00539756
C       -2.44407995       8.49850988       3.72948343       0.00000000       0.00026330      -0.00088467       0.00018240
C        4.98013072      -0.05650852       3.65288570       0.00000000       0.00514745      -0.00151122       0.00620287
C        3.74871798       2.00699926       3.65912275       0.00000000      -0.00200277       0.00314793       0.00369899
B        1.10564865       6.51291534       4.67943829       0.00000000       0.01216780      -0.00041476       0.01053353
C        0.02981962       8.54672636       3.95294391       0.00000000      -0.00431694       0.00381943       0.00325096
C        7.44384882       0.00375466       3.75868864       0.00000000       0.00411379      -0.00336419       0.00953957
C        6.22670558       2.09728786       3.57299331       0.00000000       0.00033492      -0.00442883       0.00205960
C        5.00288433       4.21239336       3.53185279       0.00000000       0.00211990       0.00367319       0.00794146
S        3.40526665       6.21611655       3.61419971       0.00000000       0.00703760      -0.00356225       0.00161952
C        2.47924688       8.59618334       4.03302140       0.00000000       0.00084907      -0.00394334      -0.00395333
C        9.92428877       0.00922149       3.77313903       0.00000000      -0.00303549       0.00477027      -0.00512533
C        8.69929392       2.12712414       3.61669968       0.00000000      -0.00084253       0.00256487      -0.00627506
C        7.45721711       4.24543681       3.49323165       0.00000000      -0.00248788       0.00199132       0.00194813
C        6.17913819       6.37629408       3.48459934       0.00000000      -0.00575239      -0.00682568       0.00747720
C        4.94181314       8.51333407       3.75322195       0.00000000       0.00692184       0.00190478      -0.00899043
C        0.06746599       1.41652102       3.65086041       0.00000000       0.00522442       0.00133984      -0.00399484
C       -1.16607933       3.56465697       3.68260184       0.00000000      -0.00088767      -0.01091947       0.00182130
C       -2.45169839       5.67700243       3.72096052       0.00000000      -0.00122616       0.00181439      -0.00645133
C       -3.68865963       7.79230467       3.65199456       0.00000000      -0.00158296       0.00161593       0.00598994
C       -4.91669080       9.91275514       3.64353836       0.00000000      -0.00453833       0.00392360      -0.00118615
C        2.52267954       1.31950346       3.63479949       0.00000000      -0.00235615       0.00296697       0.00780924
S        1.61883041       3.75480626       3.48586694       0.00000000       0.00131487      -0.00694385       0.01031641
C       -0.03463892       5.69902126       4.11364813       0.00000000       0.00504452      -0.00146398      -0.00302596
C       -1.21939930       7.81837238       3.89936569       0.00000000      -0.00117988       0.00203825       0.00762823
C       -2.42785942       9.90849742       3.65972575       0.00000000       0.00430808      -0.00166329       0.00144656
C        4.99476579       1.36630062       3.60745245       0.00000000      -0.00199299      -0.00224342       0.00476383
B        3.75240142       3.46056869       3.96548995       0.00000000       0.00739711       0.00685827      -0.00324620
C        1.25438008       7.91402677       4.15055647       0.00000000      -0.00414484       0.00203263      -0.00166114
C        0.04193005       9.96384078       3.77134822       0.00000000       0.00555237      -0.00028285      -0.00293094
C        7.46013732       1.41316071       3.62833138       0.00000000       0.00132712      -0.00400236       0.01005960
C        6.23120066       3.51127683       3.49719856       0.00000000       0.00207368      -0.00197987       0.00293039
C        5.00011865       5.60860189       3.45704710       0.00000000      -0.00799737       0.00110390       0.00529127
C        3.69262718       7.88204515       3.90451403       0.00000000       0.00473467       0.00257539      -0.00411265
C        2.51097376      10.00726027       3.87099619       0.00000000       0.00238189      -0.00182012      -0.00420566
C        9.94266307       1.43362626       3.67734359       0.00000000       0.00119222       0.00234690      -0.00688334
C        8.69110635       3.54357770       3.56817032       0.00000000      -0.00152991       0.00442974       0.00020328
C        7.43018957       5.66310731       3.50674543       0.00000000      -0.00539540      -0.00050525      -0.00667980
C        6.16266259       7.78838567       3.61110659       0.00000000       0.00598185      -0.00738678      -0.00044028
C        4.97088571       9.95784550       3.75189511       0.00000000      -0.00335288       0.00607061      -0.00501041
Cr       2.81433922       4.54977511       5.53477054       0.00000000       0.00088474       0.00237300      -0.00575409
O        1.19867027       4.97673354       6.53332434       1.00000000      -0.00785696       0.00379060      -0.00230359
O        1.65427759       6.26597422       5.99935179       1.00000000      -0.01900835      -0.00478081       0.00041448
