52
Lattice="12.336457 0.0 0.0 -6.168228499999997 10.683685154694365 0.0 0.0 0.0 15.0" Properties=species:S:1:pos:R:3:initial_magmoms:R:1:forces:R:3 energy=-463.35130933927695 free_energy=-463.35130933927695 stress="5.0513211475974145e-05 0.00034199925980245483 2.094463516800561e-05 0.00034199925980245483 0.0014134511216701863 1.934938721021506e-05 2.094463516800561e-05 1.934938721021506e-05 -1.75591515004306e-05" pbc="T T T"
C        0.01180990      -0.02048978       3.69846328       0.00000000       0.00693798       0.00176243       0.00682521
C       -1.21598751       2.12289151       3.71643832       0.00000000      -0.00787142       0.00449971      -0.00247920
C       -2.44016656       4.25611104       3.69419460       0.00000000       0.00134169      -0.00238746      -0.01034594
C       -3.68076764       6.38961492       3.63783803       0.00000000       0.00981664      -0.00052078       0.00838828
C       -4.92593140       8.52710578       3.66319761       0.00000000      -0.01112871       0.00557995      -0.01147327
C        2.48321604      -0.00897347       3.65280555       0.00000000       0.00678128      -0.00399609      -0.00363360
C        1.24111963       2.12343756       3.83816806       0.00000000      -0.00603514       0.00546709       0.00486780
C        0.03598032       4.27233740       3.95189679       0.00000000       0.00352324       0.00344630       0.01444913
C       -1.20647901       6.39870251       3.74337566       0.00000000       0.00416268       0.00468940       0.00637397
C       -2.45364383       8.53045550       3.59466309       0.00000000       0.00120191       0.00205202      -0.00715071
C        4.95433296      -0.01937121       3.53122255       0.00000000      -0.00324010       0.00638960       0.00901970
C        3.73220004       2.12656971       3.71127576       0.00000000       0.00262358       0.00398021      -0.00037197
B        2.52746517       4.09671461       4.54668800       0.00000000      -0.00897015      -0.00786978      -0.00433947
N        1.17300633       6.47808063       4.15907331       0.00000000      -0.01864500       0.00108266      -0.00166374
C        0.01199794       8.51995675       3.59178821       0.00000000       0.00108039      -0.00481815      -0.00438076
C        7.42597120      -0.03035050       3.53244229       0.00000000      -0.01014290      -0.00619547      -0.00903417
C        6.19191285       2.12043057       3.54195745       0.00000000       0.01176722      -0.00191008       0.00563653
C        4.94278652       4.27188451       3.71326226       0.00000000       0.00719822      -0.00168252      -0.00358842
O        3.77061551       6.38744987       3.81821446       0.00000000       0.01176730       0.00757685       0.01124519
C        2.48603738       8.49135093       3.73457978       0.00000000       0.00280673       0.00130879       0.00370073
C        9.88388453      -0.03068192       3.64285838       0.00000000       0.00724581      -0.00076207       0.00112942
C        8.65865792       2.11589204       3.58379065       0.00000000      -0.00377328       0.00416259       0.00499338
C        7.42264453       4.25475817       3.60015960       0.00000000      -0.00669312      -0.00114816      -0.00504554
C        6.17906291       6.39194928       3.67786611       0.00000000      -0.00197119      -0.00356644       0.00381377
C        4.94630382       8.51676227       3.79072525       0.00000000      -0.00295462      -0.00677156      -0.00138073
C        0.00890689       1.40364087       3.73634942       0.00000000      -0.00588486       0.00596670      -0.00278829
C       -1.20331538       3.55468829       3.77611155       0.00000000       0.00517061       0.00252518       0.00224037
C       -2.43952606       5.68055647       3.68766506       0.00000000       0.01423141      -0.00083036      -0.00279458
C       -3.68652242       7.81565780       3.62765440       0.00000000      -0.00568592       0.00665248       0.00485252
C       -4.92026442       9.95648312       3.67341737       0.00000000       0.00490381       0.00370585       0.00141634
C        2.48573397       1.41059063       3.75088199       0.00000000      -0.00436579      -0.00049460      -0.00598767
C        1.21621477       3.52259578       4.03309715       0.00000000       0.00826360       0.00907179       0.00564215
C        0.03306572       5.72870523       3.96906834       0.00000000      -0.01066426      -0.00310560      -0.00081868
C       -1.22252250       7.81572533       3.62765915       0.00000000       0.00432269       0.00192006       0.00331428
C       -2.45141420       9.95745378       3.58123116       0.00000000       0.00427192      -0.00037198      -0.00935029
C        4.96205473       1.40274228       3.55982092       0.00000000       0.00741066       0.00810676      -0.00338553
C        3.75695408       3.52261189       3.86370922       0.00000000       0.00611211       0.00408046       0.00450280
C        1.21376226       7.80057113       3.77288438       0.00000000       0.00178427      -0.00788281      -0.01447825
C        0.02090213       9.94716559       3.52038080       0.00000000      -0.01186208      -0.00607057      -0.00333020
C        7.42676139       1.39973522       3.53267999       0.00000000       0.00438143      -0.00411188      -0.00966505
C        6.18598380       3.55048327       3.59101598       0.00000000       0.00175647      -0.00483188      -0.00365832
C        4.98173430       5.68710265       3.73709878       0.00000000      -0.00485776       0.00336130       0.00472602
C        3.73204966       7.82260000       3.91255079       0.00000000       0.00074901      -0.00491196       0.00050316
C        2.48786130       9.92368767       3.60297388       0.00000000      -0.00084736       0.00116180       0.00583873
C        9.88862069       1.40272516       3.63448886       0.00000000      -0.00590152       0.00257307      -0.00250838
C        8.66249331       3.54138296       3.61429048       0.00000000      -0.00721159       0.00218711      -0.00777409
C        7.42242378       5.67560448       3.63311313       0.00000000       0.00284095      -0.00296972      -0.00096918
C        6.18403982       7.81820536       3.71640570       0.00000000      -0.00651907      -0.00479733       0.00517652
C        4.94490054       9.94691927       3.71097602       0.00000000       0.00892428      -0.00530038      -0.00335150
Cr       2.56529382       6.52712392       5.60650139       0.00000000       0.00329773      -0.00174651       0.00869404
O        2.63986378       4.75428505       5.74121654       1.00000000      -0.00120797      -0.01052664       0.01384807
O        1.98685777       7.37457191       6.83961162       1.00000000      -0.01024182      -0.00372938      -0.00545054
