53
Lattice="12.336457 0.0 0.0 -6.168228499999997 10.683685154694365 0.0 0.0 0.0 15.0" Properties=species:S:1:pos:R:3:forces:R:3 energy=-464.5257277248456 free_energy=-464.5257277248456 stress="-0.005055545774504654 -0.0021987884509581243 4.100673271726114e-06 -0.0021987884509581243 -0.0026115024022356245 1.422878589425774e-05 4.100673271726114e-06 1.422878589425774e-05 -3.51630741692854e-06" pbc="T T T"
C       -0.01618522      -0.01818749       3.63377938       0.00985161       0.00151229       0.00179721
C       -1.27187825       2.10069633       3.63605681      -0.00793382      -0.00525500       0.00055532
C       -2.51136170       4.24577653       3.63201666       0.00692613       0.00696185      -0.00579998
C       -3.71811622       6.39382371       3.63017167      -0.00325224      -0.00079194      -0.00717830
C       -4.93587424       8.53810152       3.62743072      -0.00290156       0.00321988       0.00206501
C        2.45757226      -0.00805672       3.71687103      -0.00066062      -0.00291636       0.00173303
C        1.20206232       2.11107087       3.80182844       0.00628050       0.00340749       0.00041211
C       -0.07069682       4.22380071       3.86240344      -0.00117408       0.00027376       0.01212207
C       -1.26514495       6.38350650       3.79337603       0.00431823       0.00783487      -0.01083658
C       -2.47203044       8.53089619       3.71560987      -0.00683783      -0.00064271      -0.00705829
C        4.92241334      -0.01460784       3.76376872      -0.00473518       0.00543027      -0.00153574
C        3.68314139       2.13310461       3.87447839       0.00794826      -0.00517351       0.00381055
B        2.40270097       4.26252272       4.32232832      -0.00224996      -0.00572228      -0.00547442
B        1.19689448       6.34849480       4.29915061      -0.00151216      -0.00548226       0.00382309
C       -0.00576924       8.52297462       3.86988314       0.00204805      -0.00025271       0.00089776
C        7.38561033      -0.02297670       3.73805266      -0.00188744      -0.00765650      -0.01003630
C        6.14547416       2.12293293       3.73508555       0.00761704       0.00840118      -0.00832200
C        4.91952964       4.28063298       3.90193870      -0.00797055       0.00600626       0.00848572
N        3.82973737       6.47788263       4.18047109      -0.00705747      -0.01608229      -0.00646642
C        2.47325382       8.52004774       3.90432513       0.00412109       0.00038416       0.00906048
C        9.84850708      -0.02888005       3.65590116       0.00517074       0.00451133      -0.00810291
C        8.60497306       2.11120440       3.62167641      -0.00980201       0.00142335       0.00598299
C        7.37251302       4.25879618       3.64639080      -0.00151932      -0.00823573       0.00495223
C        6.16183785       6.41065981       3.68781407       0.00983252       0.00323305      -0.00404528
C        4.93953838       8.53064456       3.68965989      -0.00640405      -0.00258842      -0.00395713
C       -0.03129815       1.39616400       3.67271627       0.00259033       0.00272218      -0.00502005
C       -1.29295510       3.51886525       3.67569723       0.00206075      -0.00292944       0.00543718
C       -2.50111286       5.67269352       3.66653145       0.00294440       0.00896990      -0.00022572
C       -3.70537555       7.82087251       3.64828979      -0.00747094      -0.00094408       0.00340737
C       -4.94236643       9.96241495       3.65013717       0.00450631      -0.00219798       0.00083992
C        2.45029673       1.41455982       3.80949503       0.00556717      -0.00372820       0.00217314
C        1.14907725       3.51114315       3.96035956      -0.00008548       0.00199351       0.00087584
C       -0.07889474       5.63708681       3.94727870      -0.00251549       0.00089230       0.01091688
C       -1.24361639       7.81304709       3.80397511      -0.00082234       0.00611443       0.00032156
C       -2.47732052       9.95774890       3.73308222      -0.00499113       0.00022886      -0.00146667
C        4.91799174       1.41058943       3.78554927       0.01258995       0.00659346      -0.00129503
C        3.71051779       3.55256636       4.02903978      -0.00772336      -0.00421040      -0.00541363
C        1.23710038       7.83659241       4.02381199       0.00634597      -0.00322904      -0.00049678
C       -0.01322297       9.95362897       3.78431635      -0.00777198      -0.00046880       0.00485498
C        7.37664735       1.40280080       3.68344693      -0.00180240      -0.00640504      -0.00618583
C        6.14387018       3.55390738       3.73825816      -0.00907543       0.00639874       0.00352869
C        4.93750026       5.72671378       3.89499608       0.01021444       0.00435266       0.00330567
C        3.73476431       7.81307514       3.89573136      -0.00285594      -0.00990510       0.00854166
C        2.45555033       9.94342155       3.74500331       0.00615207       0.00231847      -0.00278289
C        9.83609151       1.39204325       3.61459191      -0.01283934       0.00309369      -0.00494733
C        8.59697044       3.53666496       3.60788643       0.00308932       0.00194926       0.00522844
C        7.38205318       5.68498679       3.63438588       0.00209269      -0.00921390       0.00143993
C        6.16905075       7.82710618       3.65219854      -0.00213761       0.00524516      -0.00001494
C        4.91997408       9.95004288       3.63984385       0.00761271       0.00232789       0.00219872
Cr       2.59475653       5.77759188       5.55568260      -0.00591540       0.00063350      -0.00594899
O        3.75417127       6.50313239       6.85405274       0.00396790       0.00411157      -0.00343354
O        2.62109782       6.09295370       7.70291439      -0.00296675      -0.00434729       0.01551230
H        3.02173154       5.38466341       8.23281549       0.00102370      -0.00216635      -0.00823506
