51
Lattice="12.336457 0.0 0.0 -6.168228499999997 10.683685154694365 0.0 0.0 0.0 15.0" Properties=species:S:1:pos:R:3:initial_magmoms:R:1:forces:R:3 energy=-440.3508818473384 free_energy=-440.3508818473384 stress="-0.0039230617473009766 -7.519305167948505e-06 5.4557666814310475e-06 -7.519305167948505e-06 -0.005875001400373305 8.027619394117066e-06 5.4557666814310475e-06 8.027619394117066e-06 -4.218031301850201e-06" pbc="T T T"
C       -0.05906424      -0.01441971       3.89698397       0.00000000      -0.00241103       0.00493373       0.00518988
C       -1.29132865       2.13159871       3.97361101       0.00000000      -0.00065016      -0.00480217       0.00120891
C       -2.53781260       4.27239570       3.89605353       0.00000000      -0.00873996      -0.00770931      -0.00154502
C       -3.75630503       6.40551751       3.77080916       0.00000000      -0.00408489       0.00077488       0.00107293
C       -5.00289756       8.52921011       3.75943439       0.00000000      -0.00227562       0.00701862      -0.00490308
C        2.41310451      -0.03503120       3.87768726       0.00000000      -0.00416439      -0.00405724      -0.00788732
C        1.19568466       2.10066692       3.97846290       0.00000000       0.01478210      -0.00249931      -0.00154064
C       -0.10543573       4.27986124       4.09539601       0.00000000      -0.00324172       0.00329391      -0.00170005
C       -1.30913034       6.41794446       4.01832120       0.00000000      -0.00229594      -0.00124231       0.00732795
C       -2.52583912       8.53645872       3.91439273       0.00000000       0.00013547       0.00044765      -0.00006643
C        4.87811334      -0.00266723       3.81540983       0.00000000      -0.00076137      -0.00194586       0.00041871
C        3.62302893       2.05651144       3.48171641       0.00000000       0.00302114       0.00169516       0.01355799
B        1.23920830       6.38399937       4.20727793       0.00000000       0.00689380      -0.01030204      -0.01149913
C       -0.05430009       8.54922216       4.01000860       0.00000000       0.00381398      -0.00443817       0.00156623
C        7.33769103       0.01616839       3.87551191       0.00000000       0.00002521       0.01064702       0.00163301
C        6.11175452       2.13177787       3.54063220       0.00000000      -0.00055488       0.00203473      -0.00432943
C        5.02451871       4.28687165       2.95627477       0.00000000       0.01543827       0.00565562       0.00247654
S        3.45359160       6.40790258       2.66589433       0.00000000      -0.01333794       0.00802771      -0.00394614
C        2.41701980       8.57583465       3.86138422       0.00000000      -0.00354441      -0.00010439       0.00143234
C        9.81594381       0.00916641       3.88153476       0.00000000       0.00567765       0.00285958       0.00214886
C        8.57773926       2.13941126       3.80911501       0.00000000      -0.00443688       0.00855278      -0.00887292
C        7.36752008       4.26958410       3.54923488       0.00000000      -0.00315841       0.00198761       0.00769658
C        6.15232008       6.42649983       3.34986412       0.00000000       0.00933763      -0.00757731       0.00180774
C        4.87476953       8.54602447       3.62165502       0.00000000       0.00812683      -0.00596921      -0.00687061
C       -0.05332058       1.41885795       3.97971015       0.00000000       0.00963170      -0.00405484       0.01094880
C       -1.30781958       3.54949365       3.99978226       0.00000000      -0.00538458      -0.00620071       0.00236708
C       -2.53825605       5.69455369       3.90233046       0.00000000      -0.00572924      -0.00215338       0.00835437
C       -3.75928934       7.82606087       3.81887273       0.00000000      -0.00190449      -0.00120763       0.00579866
C       -4.99834408       9.94986843       3.86901984       0.00000000      -0.00532944       0.00248415      -0.00695580
C        2.41708063       1.38988261       3.81955179       0.00000000       0.00883999      -0.00716156       0.01410018
B        1.24013667       3.58202600       4.17403579       0.00000000      -0.01273938      -0.00365828      -0.00194670
C       -0.10657426       5.68744716       4.11050944       0.00000000       0.00466775       0.00526350      -0.01212888
C       -1.29246401       7.83599111       3.99730747       0.00000000       0.00095179      -0.00096633      -0.00581408
C       -2.52007405       9.95696857       3.87506276       0.00000000      -0.00296763       0.00152817       0.00173836
C        4.87586301       1.41828739       3.59454146       0.00000000      -0.00115776       0.00573965       0.00303630
S        3.45496396       3.56695830       2.64752861       0.00000000      -0.01143611      -0.01089509      -0.00053253
C        1.19469306       7.86740103       4.02139608       0.00000000       0.00158341      -0.00902567      -0.00648747
C       -0.05972003       9.98130307       3.90874748       0.00000000       0.00108760       0.00174401       0.00079403
C        7.33397354       1.43571764       3.74955648       0.00000000      -0.00315623       0.00759559       0.00075595
C        6.15420403       3.53934761       3.33324104       0.00000000       0.00992904      -0.00040835       0.00490273
C        5.02378096       5.68233224       2.96596990       0.00000000       0.00803299      -0.00095172      -0.00196161
C        3.62173511       7.90610394       3.52281421       0.00000000       0.00253233       0.00063926      -0.00577494
C        2.41262443      10.00134473       3.89957943       0.00000000       0.00278626       0.00782712      -0.01055997
C        9.81134654       1.42982055       3.90366691       0.00000000      -0.00310720       0.00966005       0.00438346
C        8.58131304       3.56006236       3.76047941       0.00000000      -0.00874360       0.00372985       0.00616279
C        7.36671516       5.69579634       3.55730105       0.00000000      -0.00356594      -0.00048623      -0.00551612
C        6.11010594       7.83300903       3.56038108       0.00000000       0.00496385      -0.00371770      -0.00568340
C        4.87778011       9.96887104       3.82440934       0.00000000       0.00103259       0.00228010       0.00170778
Cr       2.71812410       4.97833503       4.50180530       0.00000000       0.00095344       0.00047164      -0.00580418
O        4.04853507       4.26737507       5.76913768       1.00000000       0.00757170      -0.00341684      -0.00277099
O        4.12562521       5.59776966       5.73137800       1.00000000      -0.01293733      -0.00194042       0.01250929
