51
Lattice="12.336457 0.0 0.0 -6.168228499999997 10.683685154694365 0.0 0.0 0.0 15.0" Properties=species:S:1:pos:R:3:initial_magmoms:R:1:forces:R:3 energy=-448.6428037886664 free_energy=-448.6428037886664 stress="-0.008286471216338185 0.0019350294250488757 7.6239940118003425e-06 0.0019350294250488757 -0.004857166714021237 -3.7825106748543443e-06 7.6239940118003425e-06 -3.7825106748543443e-06 1.1155755273356686e-05" pbc="T T T"
C        0.00255271      -0.00359957       3.70806227       0.00000000       0.00253369      -0.00043949       0.00027139
C       -1.23353860       2.12542196       3.47002061       0.00000000       0.00060760      -0.00025012       0.00045247
C       -2.47670821       4.27299836       3.58027224       0.00000000      -0.00093174       0.00010012       0.00123634
C       -3.70286182       6.40919634       3.78080556       0.00000000      -0.00089353      -0.00056853       0.00079025
C       -4.93631241       8.54788861       3.86077518       0.00000000       0.00188296      -0.00084372       0.00016488
C        2.46951600       0.00016940       3.77055536       0.00000000       0.00043772      -0.00165480       0.00007003
C        1.25025309       2.07918299       3.35919267       0.00000000      -0.00177004      -0.00120087       0.00067615
C       -0.07768585       4.30818666       3.21490470       0.00000000      -0.00066296      -0.00128649       0.00064002
C       -1.27306881       6.43470703       3.58474216       0.00000000      -0.00243408       0.00177335       0.00016401
C       -2.47796639       8.55499092       3.78951055       0.00000000      -0.00103293       0.00177627       0.00076093
C        4.94184572      -0.00469477       3.81526232       0.00000000       0.00078093      -0.00049710       0.00013088
C        3.71848169       2.14475181       3.80042078       0.00000000      -0.00057341      -0.00194459      -0.00097481
C        1.16985362       6.41540819       3.65344528       0.00000000       0.00316092      -0.00092556      -0.00065884
C       -0.00870853       8.54288757       3.76302185       0.00000000      -0.00064950       0.00091433      -0.00005889
C        7.41007050      -0.01329621       3.79504255       0.00000000       0.00040085       0.00077415       0.00073686
C        6.19662450       2.10991012       3.84533126       0.00000000       0.00162904       0.00109202      -0.00169827
C        4.99667940       4.22970971       3.98918286       0.00000000       0.00170832      -0.00283793      -0.00124320
B        3.70558410       6.38863173       4.15452325       0.00000000      -0.00041107       0.00385889      -0.00215419
C        2.46040753       8.54530972       3.88189069       0.00000000      -0.00002209       0.00173687      -0.00113641
C        9.87542490      -0.00645329       3.75419375       0.00000000      -0.00054654      -0.00028382       0.00046149
C        8.64930513       2.12355664       3.70633857       0.00000000       0.00134912       0.00087330       0.00126587
C        7.43164392       4.26060894       3.83638699       0.00000000      -0.00142060      -0.00005412      -0.00078420
C        6.19361345       6.40347914       3.97710066       0.00000000      -0.00028062       0.00121485      -0.00188113
C        4.94111655       8.55047359       3.93825675       0.00000000      -0.00091839       0.00079282      -0.00093729
C       -0.00022281       1.41052160       3.49295288       0.00000000      -0.00063966       0.00229194       0.00036682
C       -1.25864040       3.55358316       3.38986150       0.00000000      -0.00095072      -0.00052180       0.00007772
C       -2.48424192       5.70027014       3.63746380       0.00000000      -0.00227966      -0.00093343       0.00021584
C       -3.70562829       7.83642044       3.81650011       0.00000000       0.00062669       0.00111688       0.00135435
C       -4.93395177       9.97172682       3.78579898       0.00000000       0.00095608      -0.00061163       0.00055399
C        2.47845730       1.41732826       3.65516313       0.00000000      -0.00071515      -0.00251744       0.00007227
P        1.31244020       3.56733009       2.42006625       0.00000000      -0.00022348      -0.00306001      -0.00142855
C       -0.04888116       5.73812884       3.44164691       0.00000000      -0.00123241       0.00124933       0.00019928
C       -1.25065857       7.84616037       3.71974329       0.00000000      -0.00254762       0.00208982      -0.00053779
C       -2.46804528       9.97395303       3.81197290       0.00000000      -0.00010733      -0.00016682       0.00106222
C        4.95342902       1.41383034       3.83388338       0.00000000       0.00224227      -0.00175428      -0.00031314
C        3.77369482       3.53631568       3.93360692       0.00000000       0.00188395      -0.00171675      -0.00081378
C        1.22672089       7.81225618       3.77957150       0.00000000       0.00041646       0.00128716      -0.00035633
C        0.00335323       9.96145599       3.80308091       0.00000000       0.00109731       0.00020405       0.00024633
C        7.42386264       1.40473515       3.78575180       0.00000000       0.00152326       0.00210563       0.00001426
C        6.22153655       3.52655234       3.89790933       0.00000000      -0.00035566       0.00053386      -0.00080025
C        5.00653360       5.65555088       4.06909756       0.00000000       0.00210693      -0.00230061      -0.00258469
C        3.69550207       7.86856495       4.01225538       0.00000000      -0.00102987       0.00195168      -0.00270128
C        2.47154631       9.96574029       3.81149495       0.00000000      -0.00127454       0.00000606      -0.00068322
C        9.88009658       1.41518013       3.63771404       0.00000000       0.00067305      -0.00228247       0.00196799
C        8.65144520       3.55137670       3.70721912       0.00000000      -0.00130643       0.00039415       0.00164661
C        7.42255663       5.68796815       3.87018243       0.00000000       0.00086667      -0.00108645      -0.00036446
C        6.17290973       7.83384164       3.93974206       0.00000000       0.00069243       0.00104287      -0.00108181
C        4.94223905       9.97208680       3.80362448       0.00000000       0.00231652      -0.00061330      -0.00016728
Cr       2.37138837       4.93584183       4.24948522       0.00000000       0.00386612       0.00017478       0.01930539
O        2.62645240       5.43383609       6.13237501       1.00000000      -0.01472653      -0.00604616      -0.01651389
O        1.76728184       4.41120075       6.01218977       1.00000000       0.00617769       0.00704313       0.00496905
