52
Lattice="12.336457 0.0 0.0 -6.168228499999997 10.683685154694365 0.0 0.0 0.0 15.0" Properties=species:S:1:pos:R:3:initial_magmoms:R:1:forces:R:3 energy=-460.4112069951655 free_energy=-460.4112069951655 stress="-0.0053233965132468185 -0.002337290195692655 8.502390319095945e-06 -0.002337290195692655 -0.0026519849138517885 -1.7562023180088378e-05 8.502390319095945e-06 -1.7562023180088378e-05 2.9457335180341615e-06" pbc="T T T"
C       -0.04836953      -0.02579520       3.57257763       0.00000000       0.00696804      -0.00538996       0.00423998
C       -1.30613271       2.09123280       3.58944660       0.00000000      -0.00463382       0.00035117      -0.01047241
C       -2.54475037       4.23723925       3.58609873       0.00000000      -0.00147349       0.00067531       0.00636062
C       -3.74947249       6.38551798       3.57167960       0.00000000       0.00277246       0.00071693       0.00180288
C       -4.96741185       8.53056702       3.56195932       0.00000000       0.00175788       0.00067929      -0.00071333
C        2.42548220      -0.01594437       3.66771383       0.00000000       0.00012917       0.00267303      -0.00681373
C        1.16692480       2.10073766       3.75819214       0.00000000      -0.00700405       0.00294256       0.00548176
C       -0.11097821       4.21210375       3.84400840       0.00000000       0.00412096       0.00134461      -0.00784255
C       -1.30102396       6.37362631       3.77151486       0.00000000       0.00593121       0.00432716      -0.00306388
C       -2.50389848       8.52223790       3.67537319       0.00000000      -0.00081121      -0.00042591      -0.00330435
C        4.89017660      -0.02302235       3.71519130       0.00000000      -0.00072569      -0.00507267      -0.00148859
C        3.65189489       2.12618486       3.81604404       0.00000000       0.00549407      -0.01089348      -0.00209779
B        2.36702815       4.25218837       4.25274842       0.00000000       0.00136410      -0.00212747      -0.00180576
B        1.16301727       6.33466285       4.27436411       0.00000000      -0.00865080       0.00664805      -0.00871912
C       -0.03632438       8.51404765       3.84069148       0.00000000       0.00177878       0.00198329      -0.00099285
C        7.35233234      -0.03295379       3.67571739       0.00000000      -0.00021453      -0.00280009       0.00105337
C        6.11280081       2.11385524       3.66205143       0.00000000       0.00766362       0.00067898       0.00037588
C        4.88764201       4.27156692       3.80446765       0.00000000      -0.00608127       0.00195665       0.01095500
N        3.79930835       6.46607931       4.04472616       0.00000000      -0.00061948       0.00037446       0.00436817
C        2.44031718       8.51073108       3.83850897       0.00000000      -0.00421888       0.00407051      -0.01188631
C        9.81494973      -0.03818115       3.58575822       0.00000000       0.00455149       0.00121990      -0.00391770
C        8.57125228       2.10195871       3.55647411       0.00000000      -0.00565033      -0.00397273       0.00015310
C        7.34079588       4.24976298       3.57247807       0.00000000      -0.00555368      -0.00194111      -0.01113504
C        6.13281289       6.40245676       3.58653586       0.00000000       0.00679021       0.00542850      -0.00167003
C        4.90819837       8.52407317       3.59957324       0.00000000      -0.00480149      -0.00174441       0.00213198
C       -0.06514091       1.38771283       3.62366580       0.00000000      -0.00507537      -0.00213043      -0.00448626
C       -1.32926454       3.50855707       3.64319481       0.00000000       0.00127355       0.00142496       0.00661477
C       -2.53404066       5.66358586       3.62640007       0.00000000       0.00522853       0.00358402      -0.00266313
C       -3.73703325       7.81261920       3.59394058       0.00000000      -0.00072732      -0.00002246       0.00462967
C       -4.97441531       9.95503119       3.59150616       0.00000000       0.00659072      -0.00229399       0.00756566
C        2.41807050       1.40656584       3.75876239       0.00000000      -0.00348849       0.00035768       0.01107637
C        1.10745987       3.49740594       3.92898180       0.00000000       0.00088983       0.00403893      -0.00706605
C       -0.12034649       5.62409884       3.93851107       0.00000000      -0.00043206      -0.00157535       0.00779901
C       -1.27657448       7.80448982       3.77684811       0.00000000       0.00420138       0.00437670      -0.00005405
C       -2.50933010       9.94957512       3.68906967       0.00000000      -0.00390206      -0.00170450      -0.00554756
C        4.88545934       1.40295411       3.72435394       0.00000000       0.01206773      -0.00604951       0.00329486
C        3.68079225       3.54788923       3.96092734       0.00000000      -0.00365805      -0.01153415       0.00200631
C        1.20867043       7.82866897       3.99376380       0.00000000      -0.00157190      -0.00191586      -0.00846670
C       -0.04536607       9.94395039       3.73885956       0.00000000      -0.00070373      -0.00163939       0.00353705
C        7.34332328       1.39299166       3.61317047       0.00000000       0.00141327      -0.00484484       0.00530296
C        6.11170116       3.54396429       3.65416951       0.00000000      -0.00687804       0.00276092       0.00332042
C        4.90920726       5.71502697       3.77035414       0.00000000       0.00342122       0.00681023       0.00138600
C        3.70258273       7.80780680       3.79272876       0.00000000      -0.00782948       0.00012678      -0.00020765
C        2.42163399       9.93388159       3.67703319       0.00000000       0.00260885       0.00466053       0.00455506
C        9.80218085       1.38260258       3.55264088       0.00000000      -0.00569125      -0.00026811       0.00274269
C        8.56433502       3.52780876       3.54629218       0.00000000      -0.00567161      -0.00419389       0.00373838
C        7.35210715       5.67611742       3.55614557       0.00000000       0.00415536      -0.00147859      -0.00123864
C        6.13813303       7.81980607       3.56550562       0.00000000       0.00011459       0.00439904      -0.00124882
C        4.88798326       9.94299636       3.56732531       0.00000000       0.00477402      -0.00276225      -0.00446606
Cr       2.62677400       5.78441803       5.45763119       0.00000000       0.00779755      -0.00491255       0.01465072
O        4.05728490       5.72406331       6.80313700       1.00000000      -0.00133467       0.00417747      -0.00324884
O        3.45402883       6.89088686       6.85396226       1.00000000      -0.00645586       0.00890603      -0.00452544
