52
Lattice="12.336457 0.0 0.0 -6.168228499999997 10.683685154694365 0.0 0.0 0.0 15.0" Properties=species:S:1:pos:R:3:forces:R:3 energy=-455.58952670524786 free_energy=-455.58952670524786 stress="0.0012640590910714664 0.0016975936845547808 -4.8806570932162405e-06 0.0016975936845547808 0.004798879430416552 3.0902608633248086e-05 -4.8806570932162405e-06 3.0902608633248086e-05 -2.640286640465436e-05" pbc="T T T"
C        0.04510379       0.05066084       3.74031964      -0.00329465       0.00197350      -0.00934236
C       -1.18398244       2.18993684       3.63814153       0.00049534       0.00742563      -0.00613373
C       -2.41666438       4.32568754       3.58856176       0.00232452      -0.00509349       0.00883500
C       -3.66589011       6.45448025       3.66470294      -0.00139992       0.00580380      -0.00687015
C       -4.90570518       8.59212782       3.76984373      -0.00980062       0.00060039      -0.00166338
C        2.50310565       0.08080318       3.74317322       0.00887391       0.00624040      -0.00029821
C        1.26499390       2.17951394       3.74793633      -0.00537046       0.00827147      -0.00129785
C        0.02008545       4.34778019       3.66222455       0.00822841       0.00085454       0.00072977
C       -1.19577587       6.46000495       3.57960601      -0.00144293      -0.00163452       0.00783475
C       -2.43277262       8.59864166       3.65769168      -0.00484754      -0.00426384      -0.01502717
C        4.97313075       0.05306739       3.68425791       0.00723807       0.00178033      -0.00137576
C        3.77595726       2.22238886       3.90498093      -0.00306273      -0.00178039       0.00320210
O        1.21285850       6.48278445       3.57972157       0.00306348      -0.01075156       0.00767506
C        0.03748635       8.57657619       3.64059220       0.00450606       0.00958771      -0.00588630
C        7.44782608       0.02456342       3.65311811      -0.00199346      -0.00019083      -0.00771431
C        6.22424499       2.17228449       3.71043298       0.00002811      -0.00467743       0.00043950
C        5.00252962       4.27224318       4.01965224       0.00077105      -0.00023315      -0.00260657
B        3.80137457       6.47523217       4.56740616      -0.00237687       0.00490581      -0.00638826
C        2.49354518       8.54330723       3.79571088      -0.00281458      -0.00293490      -0.00313960
C        9.90884399       0.03138610       3.69573592      -0.00737850      -0.00510415      -0.00373805
C        8.68701355       2.17537450       3.62316368      -0.00488872      -0.00769258      -0.01113255
C        7.45138438       4.30836368       3.69687960       0.00526761       0.01373249      -0.00043983
C        6.20696460       6.42929445       3.90325560       0.00259759       0.00244471      -0.00625776
C        4.95482034       8.58329015       3.89237050       0.00828025      -0.00518553      -0.00304635
C        0.05568171       1.48753693       3.69653898      -0.00241988       0.00648316       0.00364865
C       -1.17173844       3.62378850       3.60628437       0.00653956       0.00589696       0.00786555
C       -2.42545875       5.74310799       3.59331213      -0.00193895      -0.00340075       0.01434370
C       -3.67041970       7.88291792       3.69457687      -0.01137446      -0.00006987       0.00590419
C       -4.89357104      10.03182538       3.75257742       0.00221318       0.00418420      -0.00113275
C        2.50464686       1.52736113       3.80911562      -0.00414743       0.00717733       0.00919097
O        1.24059411       3.59758787       3.64692978      -0.00426482      -0.00347130       0.00928343
C        0.02093214       5.75826443       3.60797967       0.00065616      -0.00581897      -0.00909699
C       -1.20546634       7.88208485       3.61112707       0.00366692       0.00374457       0.00242372
C       -2.43630618      10.03537311       3.69677038       0.00991612      -0.00186440      -0.00153707
C        4.97921373       1.48236846       3.74641974      -0.00188207      -0.00100293       0.00408646
N        3.83194475       3.56259830       4.19331277      -0.00513781      -0.00114166       0.00487800
C        1.23905641       7.85593257       3.68688178      -0.00172967      -0.00808060      -0.00045010
C        0.04242851      10.00985276       3.65532607       0.00434312       0.00972616       0.00193575
C        7.45404049       1.45755228       3.64517891      -0.00336090      -0.00911947       0.00621001
C        6.22728880       3.58475925       3.77810216       0.00898496       0.00017047      -0.00218771
C        5.02017032       5.69146281       4.10091569       0.00228062       0.00093786      -0.00464277
C        3.72684976       7.89083686       4.01176926       0.00557517       0.01054579       0.00454848
C        2.50457417       9.98298678       3.69576491      -0.00952066      -0.00312851       0.00093591
C        9.92722701       1.46971988       3.63768565      -0.00026343      -0.00033068      -0.00148152
C        8.68888264       3.60095094       3.61780805      -0.00194689      -0.00315295      -0.00004504
C        7.44853922       5.73125000       3.73969783       0.00038876       0.01505412      -0.00739122
C        6.20142625       7.87234066       3.87804823       0.00026564      -0.00694782      -0.00062877
C        4.97496380      10.01653444       3.76226967      -0.00359438      -0.00514806      -0.00571417
Cr       2.31145285       4.40354501       5.15692434       0.00144989      -0.00536061      -0.00730441
O        2.98720890       6.02765916       5.58115568       0.00300588      -0.00786934       0.01704932
O        1.67890486       3.35199812       6.50096644      -0.00680756       0.00266197       0.00939641
H        1.78039979       3.65006081       7.42724252       0.00609947      -0.01475309       0.00355396
