51
Lattice="12.336457 0.0 0.0 -6.168228499999997 10.683685154694365 0.0 0.0 0.0 15.0" Properties=species:S:1:pos:R:3:initial_magmoms:R:1:forces:R:3 energy=-437.1886119635599 free_energy=-437.1886119635599 stress="-0.005770317531884274 -0.000730827327110867 -9.342731960191935e-06 -0.000730827327110867 -0.006066055597432795 -1.0276300112694166e-05 -9.342731960191935e-06 -1.0276300112694166e-05 1.8092750066657246e-06" pbc="T T T"
C       -0.00647173      -0.00306490       3.83871893       0.00000000      -0.00486669      -0.00176082      -0.01252176
C       -1.24476659       2.13512351       3.83433055       0.00000000       0.00628403       0.00115472      -0.00481403
C       -2.49762990       4.27573368       4.09149976       0.00000000      -0.00473524      -0.00392916       0.00292598
C       -3.71791401       6.41371496       4.08326748       0.00000000       0.00305975       0.00709919       0.00087037
C       -4.95095781       8.54079582       3.92041164       0.00000000      -0.00156585      -0.00313207       0.00922561
C        2.46021653      -0.01395804       3.80414096       0.00000000      -0.00983218       0.00012005       0.00270549
C        1.21315031       2.05201464       3.36529221       0.00000000      -0.00624494      -0.01290955       0.01254839
C       -0.12890802       4.30823021       3.69863705       0.00000000       0.00669117       0.00375528       0.00951130
C       -1.27035074       6.42029103       4.17853350       0.00000000       0.00036431      -0.00151782      -0.00424660
C       -2.48131699       8.55177352       4.10808651       0.00000000      -0.00135746      -0.00305474      -0.00977663
C        4.92511875      -0.00041170       3.92384783       0.00000000      -0.00016240       0.00345205       0.00153572
C        3.71669493       2.02869820       3.28096190       0.00000000       0.00167305      -0.00259045       0.00434937
B        1.25279566       6.38781640       4.09198867       0.00000000       0.00329507      -0.01547036       0.00204646
C       -0.00951787       8.55255798       4.12501366       0.00000000      -0.01336540       0.00575788       0.00547668
C        7.38896508       0.01027353       4.02467657       0.00000000       0.00886584       0.00078064       0.00006166
C        6.16767793       2.12707541       3.72317303       0.00000000       0.00537570       0.00212651      -0.01290418
C        5.14005640       4.28031991       3.09549630       0.00000000      -0.00184594      -0.00452567      -0.01104689
S        3.59244424       6.42773922       2.65492927       0.00000000      -0.00553444      -0.00425758      -0.00495528
C        2.46793121       8.57428983       3.90011169       0.00000000       0.00187472      -0.00096048      -0.00098292
C        9.86657038       0.00848519       3.95222162       0.00000000       0.00549964       0.00340388       0.00630176
C        8.62586024       2.13962378       4.00515912       0.00000000       0.00411523      -0.00994992      -0.00593213
C        7.40783481       4.27335367       3.88921579       0.00000000      -0.00781621       0.00516714      -0.00694427
C        6.20540173       6.42243195       3.61085285       0.00000000      -0.00370964       0.00497253      -0.01041006
C        4.92893122       8.54979522       3.72464038       0.00000000       0.00630093       0.01005841      -0.00322770
C       -0.00696988       1.42474249       3.69889410       0.00000000      -0.00254328       0.00131639       0.00662718
C       -1.28193950       3.54790682       3.90394475       0.00000000       0.00381104       0.00207287      -0.00176007
C       -2.49766297       5.69898416       4.16140641       0.00000000      -0.00067291      -0.00465792       0.00584599
C       -3.71484152       7.83721703       4.05613580       0.00000000      -0.00266696       0.01040960       0.00817634
C       -4.94395051       9.96752182       3.87361927       0.00000000      -0.01447182       0.00096133       0.00607685
C        2.46011535       1.38575887       3.46653117       0.00000000       0.00468594       0.00545692       0.00757814
S        1.10035366       3.65063280       2.65837057       0.00000000       0.00980890       0.00361866      -0.00274520
C       -0.06611746       5.68238947       4.01670764       0.00000000       0.00463049       0.00414489      -0.00356164
C       -1.24730519       7.84272455       4.17635270       0.00000000      -0.00826285      -0.00733935       0.00323242
C       -2.47710348       9.97068338       3.96551169       0.00000000      -0.00587371      -0.00592568      -0.00196952
C        4.93180126       1.41078491       3.65139402       0.00000000       0.00727041      -0.00421727      -0.00351720
S        3.80771700       3.46917932       2.30915588       0.00000000      -0.00759481      -0.00419190      -0.00040591
C        1.24042253       7.87097146       4.04691129       0.00000000      -0.00990570       0.00246113       0.00687405
C       -0.01293181       9.98191769       4.05266720       0.00000000       0.00311403       0.00609425       0.00099399
C        7.38395780       1.43180297       3.95003976       0.00000000       0.00221269       0.00167813       0.00074124
C        6.22075188       3.54053264       3.59063683       0.00000000      -0.00827012       0.00751039      -0.00481092
C        5.11281316       5.67910545       3.13355578       0.00000000      -0.00592423      -0.00418215       0.00131919
C        3.67931986       7.91323176       3.55938992       0.00000000       0.00861748      -0.00411448       0.01180984
C        2.46498367       9.99713788       4.00038037       0.00000000       0.00715842       0.00241410      -0.00554940
C        9.86815950       1.43319315       3.96590440       0.00000000       0.00774566      -0.00823361       0.00054742
C        8.62139878       3.55842305       4.04342762       0.00000000      -0.01157565      -0.01081304      -0.00330679
C        7.40635653       5.69816321       3.89241495       0.00000000       0.00540949       0.00834816      -0.00280892
C        6.16462048       7.83821681       3.74059228       0.00000000       0.00427957       0.00021444       0.00424495
C        4.92667782       9.97588505       3.87742254       0.00000000       0.00578013       0.00231283      -0.00979340
Cr       2.59836226       4.79786065       4.03627169       0.00000000       0.00277937       0.00585418       0.01481031
O        2.63708040       3.57248609       5.57240461       1.00000000       0.00482308      -0.00135311       0.00440287
O        3.70531034       4.38227723       5.61554206       1.00000000       0.00327230       0.00637061      -0.01284819
