53
Lattice="12.336457 0.0 0.0 -6.168228499999997 10.683685154694365 0.0 0.0 0.0 15.0" Properties=species:S:1:pos:R:3:forces:R:3 energy=-465.684471571501 free_energy=-465.684471571501 stress="-0.0008884036525988043 -0.0006271538791334315 -1.17723547056752e-05 -0.0006271538791334315 0.003092197787497122 2.612609830487513e-05 -1.17723547056752e-05 2.612609830487513e-05 3.587381678677467e-05" pbc="T T T"
C        0.06784930       0.02824658       3.71555043       0.00782503       0.00466098       0.00562601
C       -1.17167752       2.16077665       3.79203149       0.00093086       0.00171666       0.00627542
C       -2.39966762       4.30105826       3.73705865       0.00039623      -0.00249584      -0.00047823
C       -3.62397236       6.44126116       3.63026978       0.00025361      -0.00827347      -0.00504659
C       -4.86200045       8.58206544       3.61147028      -0.00405100       0.00429616       0.01654667
C        2.54163949       0.04284709       3.74547286       0.00309972       0.00260655       0.00226789
C        1.29350240       2.16157720       3.94469488       0.00053038       0.00198305      -0.00517340
C        0.04954759       4.31812599       4.03629839      -0.00257793      -0.00008397       0.00044045
C       -1.16555190       6.44646818       3.79657064      -0.00258522       0.00161245      -0.00364453
C       -2.39174641       8.58276280       3.67378866      -0.00692309      -0.00424441       0.01046835
C        5.01290414       0.02871714       3.72819165      -0.00269555       0.00666812      -0.00721774
C        3.78117199       2.17827590       3.87989635      -0.00188997      -0.00241235       0.00014738
B        2.54579306       4.15821816       4.47372545      -0.00230757       0.00832876       0.00815192
N        1.18661760       6.49317815       4.33479798      -0.00327656       0.00330901       0.00964548
C        0.07871844       8.55875108       3.78126600       0.00686790       0.00334746       0.00778596
C        7.48318529       0.00613409       3.72761809      -0.00326523      -0.00444933      -0.00139394
C        6.24385766       2.17058079       3.71583437       0.00569509      -0.00664697       0.00712903
C        5.00919759       4.34497483       3.76674598       0.00323617       0.00499246       0.00630755
O        3.85763489       6.46852607       3.56057741      -0.01391312       0.00238873      -0.01250148
C        2.55197719       8.50197244       3.79483995      -0.00045833       0.00188218      -0.00841559
C        9.93471146       0.00436642       3.70874871       0.00156894       0.00250826       0.00150721
C        8.70601894       2.15771359       3.69828689      -0.00514681       0.00076252       0.00507178
C        7.47461141       4.30474536       3.64266601       0.00500363      -0.00560605       0.00937865
C        6.24860814       6.44862009       3.57550034       0.00370960       0.00128480       0.00280856
C        5.00860558       8.56562990       3.61704534      -0.00787286      -0.00471391       0.00406738
C        0.06130843       1.44697661       3.81390496       0.00382630       0.00396884      -0.00533899
C       -1.17225980       3.59485132       3.84187274      -0.00204842      -0.00097307      -0.00135027
C       -2.39243531       5.72694909       3.71199477       0.00087030      -0.00366049      -0.00705001
C       -3.62388720       7.86856773       3.62684441      -0.00942503      -0.00567047       0.00141294
C       -4.85958469      10.01072161       3.68528717       0.00534131       0.00636149       0.00114163
C        2.54000202       1.47002083       3.87572939      -0.00241520       0.00015908      -0.00540771
C        1.25147209       3.57236891       4.14936237      -0.00143287       0.00094101      -0.00878170
C        0.05651228       5.76109712       4.04309922      -0.00222062       0.00183293       0.00108072
C       -1.16359062       7.86460091       3.74077346       0.00237883       0.00247442       0.00209161
C       -2.39277029      10.01008816       3.70952967      -0.00050857      -0.00014523      -0.00700643
C        5.01337620       1.45329699       3.76115671       0.00009781       0.00160097      -0.01524749
C        3.81423762       3.60191707       3.99149361      -0.00196196      -0.00405696      -0.00654970
C        1.28235030       7.82072876       3.96137672       0.00693700       0.00367783       0.00852530
C        0.08018631       9.98758700       3.72997910      -0.00405495       0.00227478      -0.00931436
C        7.47607253       1.44273136       3.70288152      -0.00033757      -0.00892251      -0.00716767
C        6.23813246       3.60774793       3.68995495       0.00695608      -0.00513187      -0.00144360
C        5.03218650       5.76090837       3.63076880      -0.00394672       0.01048580      -0.00168466
C        3.80713591       7.84655477       3.65773192      -0.00475156       0.00166629       0.00547479
C        2.54308416       9.94667951       3.73451365      -0.00112891       0.00029766      -0.00321412
C        9.93603819       1.44074679       3.72487056      -0.00184111       0.00549398       0.00103841
C        8.70743272       3.58545248       3.68003078       0.00195898      -0.00101165       0.00095056
C        7.48042166       5.72683879       3.60715283       0.00436036      -0.00563993       0.00315718
C        6.24953063       7.86997526       3.57710819      -0.00107311       0.00075111       0.01614714
C        5.00161350       9.99283632       3.67773281       0.00359473       0.00003390      -0.00150604
Cr       2.27266544       5.75383393       5.81804154       0.01978719      -0.00202066      -0.00025358
O        3.69358275       6.37432981       6.28196960       0.01438870      -0.00258081      -0.01002344
O        1.04508041       5.32500312       7.04324006      -0.01294539      -0.01531766       0.00775980
H        1.31555585       4.99162730       7.92074302      -0.00255953      -0.00031057      -0.01719452
