52
Lattice="12.336457 0.0 0.0 -6.168228499999997 10.683685154694365 0.0 0.0 0.0 15.0" Properties=species:S:1:pos:R:3:forces:R:3 energy=-440.9036657595474 free_energy=-440.9036657595474 stress="-0.003038406606662364 0.0012382718309114703 -6.003127369327655e-06 0.0012382718309114703 -0.011438299246021277 3.0367138231692134e-06 -6.003127369327655e-06 3.0367138231692134e-06 -2.7618625597236597e-05" pbc="T T T"
C       -0.04584430      -0.00635746       3.83105358       0.00605236      -0.00274356      -0.00112849
C       -1.25021683       2.17237376       3.75496660       0.00422908       0.00172223      -0.01116720
C       -2.48411352       4.31256836       3.87292670      -0.00754201      -0.00292134      -0.00668987
C       -3.72952503       6.43148678       3.90276529       0.00722915       0.00201769      -0.00292583
C       -4.99377080       8.53797508       3.88707984      -0.00528770       0.00595229       0.00097487
C        2.42431488      -0.03694903       3.85618503       0.00393990      -0.00720167      -0.00520851
C        1.20005807       2.01240796       3.40832417      -0.00047894      -0.01042871      -0.00729783
C       -0.08346084       4.34723949       3.53462581       0.00000025       0.00821685       0.00619323
C       -1.24391482       6.44851383       3.91216797       0.00516274       0.00312301      -0.00346729
C       -2.50417291       8.55589525       4.03022286      -0.00556432      -0.00148478       0.00315243
C        4.89122650       0.03688372       4.05995353       0.00395353      -0.00065756       0.01138257
C        3.65958996       2.11336444       3.60443861      -0.00784994       0.00085205      -0.00444350
B        1.29940594       6.53772578       3.71153392      -0.01173848       0.00226740      -0.00465482
C       -0.04315130       8.60959520       4.10638741       0.00549225      -0.00080586       0.00038327
C        7.36278285       0.07249774       4.15947956       0.00046189       0.00779261       0.00173103
C        6.13731635       2.16824583       3.90575090       0.00378784       0.00160022      -0.00120221
C        4.99763825       4.28031221       3.38501229       0.00753720      -0.00744550       0.00068123
S        3.22782762       6.31709417       3.25297510      -0.01809594       0.00317217      -0.00644080
C        2.42687187       8.66927589       4.04661802      -0.00415024      -0.00909821      -0.00564798
C        9.85130404       0.06107357       4.02563272      -0.00709255      -0.00313619       0.00929509
C        8.62038574       2.18674231       3.99173416       0.00266459       0.00859462       0.00146455
C        7.38982145       4.30497747       3.83879804      -0.00170758       0.00283899      -0.00317970
C        6.11948394       6.43106005       3.64084516       0.00174244      -0.00520871       0.00372127
C        4.86971687       8.55592338       3.84033093       0.00402224       0.00873035      -0.01039093
C       -0.04186861       1.41914021       3.66648974       0.00219426      -0.00768249      -0.00518186
C       -1.25547220       3.59149703       3.72668675      -0.00142263       0.00453281      -0.00449358
C       -2.48340852       5.73162020       3.91030870       0.00642701      -0.00357276       0.00225829
C       -3.74111100       7.84579830       3.94476377      -0.00874219       0.00414788       0.00505398
C       -4.98873071       9.95655918       3.86930835       0.00376095       0.00297588       0.00758387
C        2.42267766       1.35256713       3.59713923      -0.00358401      -0.00829485       0.00020060
S        1.30156227       3.63418254       2.83307187      -0.00312671       0.01201388      -0.00566840
C        0.00317363       5.74399478       3.72135119       0.00119281       0.00562814       0.00466992
C       -1.26253626       7.86336135       4.03856614       0.00135995       0.00324050      -0.00432701
C       -2.50444774       9.97281871       4.01407698       0.00246295      -0.00470658      -0.00850482
C        4.90403154       1.45094716       3.90718080      -0.00074325       0.00251706       0.01015780
S        3.90872754       3.35901827       2.30650098      -0.00511942      -0.00865996      -0.00362064
C        1.20939399       7.96840760       4.01146844      -0.00205058      -0.00801842      -0.00530806
C       -0.04019043      10.03550427       4.15635727       0.00739968       0.00148160       0.00574026
C        7.37400442       1.48186216       4.05398215       0.00555224       0.01097279       0.00505733
C        6.18127636       3.57002663       3.74236829       0.00754102      -0.00099246      -0.01038988
C        4.96321141       5.69862546       3.33058023      -0.00458086      -0.00774920       0.01525902
C        3.60276065       7.94411962       3.80834963       0.00342982       0.00669147      -0.00036657
C        2.44241298      10.07625763       4.14738789      -0.00984229      -0.00841129       0.00232343
C        9.86203994       1.48261584       3.94950698       0.00264519       0.00192925       0.00368433
C        8.62556677       3.59939915       3.92296810      -0.00999880       0.00406025       0.00228865
C        7.37389370       5.72607485       3.79356950       0.00714484       0.00037884       0.00265773
C        6.10733926       7.84461111       3.78143874       0.00159185      -0.00189460       0.00879338
C        4.88723265       9.99246949       3.92545616       0.00238318       0.00556666      -0.00306042
Cr       3.10240641       4.02279585       4.51478851       0.00770326      -0.01030902       0.00254350
O        4.19133307       3.67486563       6.06744768       0.00839199       0.00358597      -0.00791689
O        3.30177157       3.52066164       7.21641035       0.00211964      -0.00099106       0.01328086
H        3.53983561       4.32264250       7.72261405      -0.01085767      -0.00418870       0.00215056
