52
Lattice="12.336457 0.0 0.0 -6.168228499999997 10.683685154694365 0.0 0.0 0.0 15.0" Properties=species:S:1:pos:R:3:forces:R:3 energy=-453.0640491077193 free_energy=-453.0640491077193 stress="-0.004676749970991986 0.0007448967521186258 1.8590470262409457e-05 0.0007448967521186258 -0.004640456901311615 3.0158939791044724e-05 1.8590470262409457e-05 3.0158939791044724e-05 -3.060280513165538e-06" pbc="T T T"
C        0.05499402      -0.01548633       3.81584985      -0.00196202       0.00618220       0.00645753
C       -1.18410889       2.11196890       3.85246832       0.00041224       0.00633879       0.00102446
C       -2.41778994       4.25581636       3.78700848       0.00712790       0.00343870       0.00102166
C       -3.64686091       6.39180543       3.73708958      -0.00952429      -0.00543897      -0.00173515
C       -4.88867055       8.52981605       3.72527145       0.00645511       0.00413124      -0.00586536
C        2.51675155       0.00849426       3.89395706      -0.00163035       0.00100696       0.00031035
C        1.26303765       2.13936047       3.98726052       0.00116442      -0.01160950      -0.00017775
C        0.01964037       4.20800097       3.88854605       0.00140206      -0.01019962      -0.00463829
C       -1.17019429       6.38435630       3.79309837      -0.00829463       0.00268491      -0.00552639
C       -2.41848805       8.53265647       3.82959806       0.00202428       0.00406345      -0.00987836
C        4.98052376      -0.01081032       3.92376088      -0.00851838       0.00351810       0.00302037
C        3.77360320       2.14610355       3.97427984      -0.00005254      -0.00429558       0.01052738
B        1.38984073       6.36995677       3.79217475       0.01677346      -0.00537762       0.00687733
C        0.04269419       8.54168631       3.86815848       0.00538743       0.00246180      -0.00402307
C        7.45007969      -0.00337333       3.91692500      -0.00330710      -0.01031536      -0.00631205
C        6.23033602       2.10943015       3.89731239       0.00507480       0.00568528       0.00095121
C        5.03481786       4.19635345       3.75977037      -0.00681192       0.00531349      -0.01317404
P        3.44644815       6.25185692       2.92447448       0.00648758      -0.00064283      -0.01322030
C        2.51365843       8.58526903       3.76798054       0.00158116       0.00958027      -0.00888947
C        9.92873184      -0.00646544       3.83452644       0.00300956       0.00783840      -0.00129894
C        8.69250485       2.12300429       3.85564143       0.00310421       0.00221224       0.00539386
C        7.46885350       4.25460071       3.76634158       0.00878060      -0.00460340      -0.00344672
C        6.21176884       6.37746056       3.59927590       0.00006007      -0.00206195      -0.00146097
C        4.98333396       8.53540952       3.62118655      -0.00782024      -0.00663365      -0.00280337
C        0.04975506       1.40871646       3.88396686      -0.00300337       0.00371832       0.00394022
C       -1.19993005       3.52275602       3.82554103       0.00019398      -0.00055010       0.00238871
C       -2.41194874       5.67996661       3.76951617      -0.00950580       0.00139119      -0.00082103
C       -3.65141303       7.81899569       3.75859857       0.00227436      -0.00210995       0.00247101
C       -4.88029709       9.96106294       3.80889321      -0.00098257       0.00694113       0.01100754
C        2.51828582       1.44333969       3.97638845       0.00153835      -0.00564724       0.00879188
N        1.18272194       3.50263477       4.07526064      -0.00235053      -0.01510402      -0.00617720
C        0.05980349       5.63886699       3.82336607      -0.00395907      -0.00464414      -0.00140888
C       -1.18524260       7.81670523       3.83097836       0.00177497       0.00491339       0.00548815
C       -2.42146475       9.96338786       3.88768161      -0.00547155       0.00318765      -0.00625044
C        4.98989182       1.41239467       3.93659029       0.00237178       0.00395985       0.00006279
N        3.85305319       3.51604994       3.94737423       0.00187318      -0.00408990       0.00625693
C        1.28841397       7.86998419       3.81558002       0.00965732       0.00687642      -0.00851502
C        0.04567398       9.96727055       3.91280525      -0.00883777      -0.00115518       0.00453319
C        7.45857230       1.41105064       3.90139451       0.00213222      -0.00742286       0.00142757
C        6.25372743       3.51667609       3.80997522       0.00117148       0.00763628      -0.00296201
C        5.01176435       5.60694471       3.54470327      -0.00924119       0.00915023       0.00249731
C        3.72559766       7.88891182       3.53110578      -0.00741447      -0.00539027       0.00930247
C        2.52116407       9.99122559       3.86687612       0.00470830       0.00540143       0.00111659
C        9.92395447       1.41089515       3.85138417       0.00315342       0.00755560       0.00646554
C        8.69379571       3.54287063       3.80184656       0.01230349       0.00192123       0.01083458
C        7.45796898       5.67731938       3.69979085      -0.00196849      -0.00888290       0.00048481
C        6.21588452       7.81305530       3.61853890       0.00284310      -0.00187590      -0.00258657
C        4.98885535       9.95989552       3.75988863      -0.00087861      -0.00038965       0.00279346
Cr       2.53022896       4.74650500       4.57471775      -0.00272473       0.01146436       0.00058421
O        2.82442708       4.81483845       6.41215827      -0.00199476      -0.00524070      -0.00651740
O        1.46661073       4.69792615       6.96949037      -0.00579218      -0.00958863      -0.00610661
H        1.42121404       5.54860741       7.44389726      -0.00279423      -0.00530299       0.00776426
