52
Lattice="12.336457 0.0 0.0 -6.168228499999997 10.683685154694365 0.0 0.0 0.0 15.0" Properties=species:S:1:pos:R:3:forces:R:3 energy=-452.53291706872596 free_energy=-452.53291706872596 stress="-0.0073817531923987085 -0.0007783011967293593 4.4228727125437996e-05 -0.0007783011967293593 0.000131677363392832 2.5280011342125365e-07 4.4228727125437996e-05 2.5280011342125365e-07 -1.0023652723132168e-05" pbc="T T T"
C        0.00520809       0.01827479       3.93234979       0.00478664       0.00186545       0.00504118
C       -1.24565400       2.12798302       3.98652432       0.00260245       0.00262147       0.00201450
C       -2.46837618       4.27457886       3.95014823       0.00273766       0.00027329      -0.00266198
C       -3.67649937       6.42315281       3.85836424      -0.00595158      -0.00464857      -0.00138547
C       -4.91939858       8.56917986       3.86614719       0.00537572      -0.00075696      -0.00293224
C        2.46684506       0.03642551       3.88843172      -0.00094311       0.00704657       0.00314780
C        1.20540198       2.18972646       3.91676191       0.00520721      -0.00656848       0.00450504
C       -0.03454400       4.25585391       4.05598545       0.00493773       0.00027358       0.00512456
C       -1.23866095       6.42252090       4.02237310      -0.00342510       0.00398291       0.00356271
C       -2.46205497       8.56754595       3.93914883      -0.00277148       0.00467912       0.01064956
C        4.94106090       0.00714350       3.79628666      -0.00520477      -0.00355788       0.00976905
C        3.68945404       2.11293785       3.47128774       0.00178479      -0.00242350      -0.00972203
N        1.16608510       6.39389903       4.06365180       0.01244118      -0.00310381      -0.00393661
C        0.00102254       8.52825162       3.95923123       0.00224597       0.00332602       0.00531615
C        7.40142423      -0.01472242       3.85035228       0.00682419      -0.00471141       0.00287060
C        6.19193621       2.12109968       3.55064076      -0.00555909      -0.00124204       0.00614211
C        5.09146200       4.28852881       3.13060796       0.00262592       0.00248187      -0.00349910
B        3.80862330       6.42437930       3.60529011       0.00647707       0.00056759       0.00080516
C        2.44942727       8.51776923       3.90279314      -0.00612204      -0.00530703      -0.00219384
C        9.86419316      -0.01542295       3.91678178       0.00198328      -0.00209857       0.01063615
C        8.63653253       2.12552652       3.83656847      -0.00244198       0.00215202       0.00567638
C        7.45005722       4.27338917       3.63827752       0.00187483      -0.00002475      -0.00469770
C        6.24187260       6.43769405       3.58166004      -0.00067160       0.00152469      -0.00203993
C        4.95723530       8.56023539       3.80836811      -0.00735878      -0.00041639      -0.01206008
C       -0.00636927       1.44443557       3.96344734       0.00357076       0.00044183       0.00700584
C       -1.25306732       3.54922190       4.01699301       0.00366239       0.00164606       0.00015325
C       -2.45953559       5.70097649       3.95591035      -0.00632410      -0.00039345       0.00313409
C       -3.68830844       7.85259475       3.89543904       0.00274710      -0.00371239      -0.00061719
C       -4.92573941       9.99614883       3.91875746       0.00325359       0.00284797      -0.00851691
C        2.45640358       1.46690562       3.78325312       0.00566209       0.00292037       0.00201036
N        1.14167339       3.55959279       4.01270909       0.00035292      -0.00776963      -0.01168702
C       -0.02230861       5.71067879       4.06824737       0.00354739       0.00471883      -0.00751384
C       -1.23396110       7.84484800       3.98537140      -0.00186324       0.00631027      -0.00283936
C       -2.46503066       9.99623169       3.88338376      -0.00814432       0.00271743      -0.00575028
C        4.94157330       1.42643557       3.58874818      -0.00424792      -0.00693273      -0.00212634
P        3.59030150       3.61227878       2.52543052       0.00446165       0.00448046       0.00363509
C        1.21746899       7.77271179       3.97494098       0.00021627      -0.00186820       0.00216975
C        0.00217707       9.95930755       3.86991771       0.00286904       0.00174904      -0.00535399
C        7.40615180       1.41111123       3.75035735      -0.00161822      -0.00215050      -0.00677687
C        6.24571337       3.53983847       3.40359557      -0.00068111       0.00049379       0.00243587
C        5.06770514       5.70267956       3.34157849       0.00119196       0.00043254       0.00356941
C        3.70624676       7.86559373       3.78408764      -0.00856733      -0.00500396       0.00469046
C        2.45599531       9.94888686       3.90554912       0.00445910      -0.00787068      -0.00659681
C        9.86224992       1.41042299       3.93101758       0.00062793       0.00047239      -0.00418875
C        8.64937808       3.55474864       3.82149275       0.00346685       0.00236495      -0.00825417
C        7.45529325       5.70710626       3.68492603      -0.00403611      -0.00231311       0.00017629
C        6.19398327       7.85144920       3.75563221      -0.00139587       0.00106640       0.00799730
C        4.94399886       9.97926967       3.90338338       0.00278382       0.00036635      -0.00278464
Cr       2.56572542       4.94009450       4.24677718       0.00185526       0.00474294       0.00134322
O        3.27728609       4.43525338       5.89456104      -0.00423177       0.00866481      -0.00282042
O        2.03353959       4.70243746       6.66255010      -0.01062592       0.00261943      -0.00381498
H        2.36440864       5.39822073       7.26239500      -0.01444730      -0.00697639       0.01118868
