51
Lattice="12.336457 0.0 0.0 -6.168228499999997 10.683685154694365 0.0 0.0 0.0 15.0" Properties=species:S:1:pos:R:3:initial_magmoms:R:1:forces:R:3 energy=-448.29729912475665 free_energy=-448.29729912475665 stress="-0.0025031882279869682 0.0015122482630996687 -1.68123241664274e-05 0.0015122482630996687 0.002055276815310631 4.07264494203895e-06 -1.68123241664274e-05 4.07264494203895e-06 1.1570304575135472e-05" pbc="T T T"
C       -0.00962963      -0.01811276       3.62757943       0.00000000      -0.00736760      -0.00034979       0.00525617
C       -1.24891516       2.10276435       3.52707855       0.00000000       0.00385521       0.00383541      -0.00361957
C       -2.48037980       4.24100858       3.51438298       0.00000000      -0.00316571       0.00142988       0.00545687
C       -3.71939271       6.37531770       3.61483625       0.00000000       0.00585278       0.00561405      -0.00281483
C       -4.95685112       8.51901606       3.69633036       0.00000000      -0.00150374      -0.00471012       0.00290575
C        2.45296463       0.00621477       3.67203680       0.00000000      -0.00392231      -0.00098690      -0.00412430
C        1.20136907       2.16082840       3.66964087       0.00000000       0.00392868      -0.00257836      -0.00185662
C       -0.03884353       4.24205330       3.61708328       0.00000000       0.00331139       0.00007111      -0.00824688
C       -1.25769687       6.38173501       3.60503964       0.00000000      -0.00720648      -0.00327393      -0.00173758
C       -2.48680562       8.51760569       3.63528681       0.00000000       0.00028381       0.00110564       0.00554106
C        4.92016242      -0.04055232       3.65122635       0.00000000       0.00276645      -0.00534480      -0.00356627
C        3.72584942       2.07149304       3.77788146       0.00000000       0.00214751      -0.00067444      -0.01107060
O        1.10744128       6.39818098       3.90225970       0.00000000       0.00634346      -0.00256743      -0.00494696
C       -0.01730745       8.49081211       3.68438025       0.00000000      -0.01326575       0.00613338       0.00605459
C        7.39074470      -0.05986069       3.61588292       0.00000000       0.00550657       0.00108636      -0.00301903
C        6.17117918       2.08220606       3.64614797       0.00000000      -0.00464309      -0.00204524       0.00629466
C        5.01340619       4.20051718       3.93237945       0.00000000      -0.00128619      -0.00398281      -0.00166788
B        3.82101678       6.47339054       4.57772350       0.00000000      -0.00637582      -0.00258394      -0.00577157
C        2.43537910       8.47095396       3.79785942       0.00000000      -0.00533225       0.00283067      -0.00055423
C        9.85003494      -0.04963141       3.60363479       0.00000000       0.00342131      -0.00245918      -0.00154727
C        8.62402195       2.09177586       3.53397380       0.00000000       0.00200308      -0.00122465      -0.00036940
C        7.40400372       4.23232843       3.62713888       0.00000000       0.00218514       0.00757871       0.00241218
C        6.16589345       6.35700880       3.85323492       0.00000000       0.00127625      -0.00471755       0.00134779
C        4.90996139       8.51877536       3.80591283       0.00000000       0.00255488       0.00178731      -0.00269014
C       -0.00850649       1.41268103       3.58809713       0.00000000       0.00096549      -0.00104527      -0.00667654
C       -1.25618573       3.52554542       3.51507396       0.00000000      -0.00156822       0.00423282       0.00357042
C       -2.48844467       5.66069324       3.55875706       0.00000000      -0.00363776      -0.00035157      -0.00631842
C       -3.72456968       7.80394321       3.64657558       0.00000000       0.00411860       0.00149769       0.00442676
C       -4.94564421       9.95701132       3.66499049       0.00000000      -0.00809614      -0.00287607       0.00245080
C        2.46695086       1.45123887       3.71747721       0.00000000       0.00360729      -0.00016323      -0.00054937
N        1.13955998       3.52761586       3.71398660       0.00000000       0.00748119       0.00076637       0.00264652
C       -0.07324978       5.66541038       3.68149986       0.00000000      -0.00634147      -0.00334962       0.00704193
C       -1.26251051       7.80466918       3.64015956       0.00000000      -0.00658788      -0.00293976       0.00015480
C       -2.49004135       9.95640744       3.65740980       0.00000000      -0.00018339      -0.00035191       0.00053871
C        4.92898695       1.38735675       3.68208473       0.00000000      -0.00030638      -0.00685755      -0.00263495
O        3.81077182       3.45587383       4.03158634       0.00000000      -0.00857414       0.00814199       0.00542766
C        1.18024671       7.79739231       3.79120318       0.00000000      -0.01084642       0.00855539      -0.00538501
C       -0.01182221       9.92290067       3.64763722       0.00000000       0.00359943       0.00386338       0.00430117
C        7.38976602       1.37516795       3.58118865       0.00000000      -0.00210029       0.00066176       0.00297875
C        6.18359403       3.49851267       3.70711568       0.00000000       0.00415714      -0.00173042       0.00378703
C        4.98170295       5.59952966       4.07299263       0.00000000       0.00076826      -0.00633475      -0.00103019
C        3.68838778       7.84115385       3.96311589       0.00000000       0.00098625       0.00741253       0.00267366
C        2.44641377       9.90617286       3.65036142       0.00000000       0.00367635      -0.00011246      -0.00670963
C        9.85533378       1.38041953       3.53293840       0.00000000       0.00564926      -0.00113884      -0.00263996
C        8.62588771       3.51886549       3.53359432       0.00000000      -0.00148901       0.00232289       0.00773188
C        7.39208264       5.65309348       3.67840666       0.00000000       0.00742724       0.00697213       0.00647739
C        6.15379258       7.79521695       3.80665836       0.00000000      -0.00057732      -0.00524871      -0.00408551
C        4.92247311       9.94562221       3.65521657       0.00000000      -0.00153886      -0.00010804      -0.00143499
Cr       2.48644314       4.77073600       4.34428204       0.00000000       0.00099964      -0.00479561       0.01790578
O        2.47210945       5.05906179       6.16450425       1.00000000       0.01147406       0.00195361      -0.00270714
O        3.17338111       6.35235450       5.89238945       1.00000000       0.00556953      -0.00295012      -0.00960748
