51
Lattice="12.336457 0.0 0.0 -6.168228499999997 10.683685154694365 0.0 0.0 0.0 15.0" Properties=species:S:1:pos:R:3:initial_magmoms:R:1:forces:R:3 energy=-450.97791260080453 free_energy=-450.97791260080453 stress="0.00192048038511232 0.002122890786924164 -5.060386315124395e-06 0.002122890786924164 0.005437551769610744 -9.41503388105687e-06 -5.060386315124395e-06 -9.41503388105687e-06 1.3820063123300644e-05" pbc="T T T"
C        0.00716049       0.03228271       3.69517335       0.00000000      -0.00983999       0.00643281      -0.00118104
C       -1.21828657       2.17296612       3.61042736       0.00000000      -0.00121451      -0.00782005       0.00664302
C       -2.45202403       4.30530377       3.55616835       0.00000000       0.00809313      -0.00174624      -0.00206097
C       -3.70546621       6.43411696       3.61183167       0.00000000      -0.00209997       0.00405211      -0.00242670
C       -4.94717658       8.57072237       3.70854644       0.00000000       0.00203271       0.00480561      -0.00590002
C        2.46496201       0.05970551       3.67951234       0.00000000      -0.00023235       0.00196588       0.00463163
C        1.23131161       2.16593665       3.74394569       0.00000000      -0.00247107       0.00848954      -0.00111344
C       -0.01521914       4.33577729       3.64399068       0.00000000      -0.01470475       0.00310632       0.00231080
C       -1.23463897       6.44029146       3.52653357       0.00000000      -0.00132604      -0.00178417       0.00119953
C       -2.47368324       8.57850197       3.58233229       0.00000000       0.01072394      -0.00198481       0.00594711
C        4.93552905       0.03267329       3.60295890       0.00000000      -0.00046021      -0.00990009       0.00138298
C        3.73910820       2.19920815       3.83974829       0.00000000       0.00884562      -0.00201739       0.00262483
O        1.17524902       6.45930700       3.48763342       0.00000000       0.00832732      -0.01141536       0.00369188
C       -0.00135001       8.55599521       3.54796723       0.00000000      -0.00608988      -0.00261196       0.00471002
C        7.41073533       0.00411790       3.56963573       0.00000000      -0.00270304      -0.01036597       0.01556798
C        6.18755104       2.15063709       3.64418474       0.00000000       0.00388669      -0.00646989      -0.00000003
C        4.96044199       4.24800090       3.95251828       0.00000000      -0.00612506       0.00724517      -0.00039195
B        3.73609551       6.43062396       4.44233088       0.00000000       0.00258993       0.00472298       0.00697610
C        2.45404448       8.52081385       3.70442434       0.00000000      -0.00248643       0.00817703      -0.00267022
C        9.87151429       0.01064130       3.63809134       0.00000000      -0.00024710       0.00758865      -0.01494550
C        8.65125307       2.15464260       3.56900601       0.00000000       0.00220136      -0.00207415       0.00023187
C        7.41341206       4.28714699       3.64240270       0.00000000      -0.00112849      -0.00156404       0.00118699
C        6.16434226       6.40479912       3.83223349       0.00000000      -0.00217807       0.00034004       0.00475123
C        4.91317457       8.55897190       3.82151941       0.00000000      -0.00093082       0.00936705       0.00753522
C        0.02143292       1.47305844       3.67254662       0.00000000      -0.00282059      -0.00072114       0.00519143
C       -1.20317009       3.60745838       3.58382224       0.00000000      -0.00075347      -0.00941973      -0.00658736
C       -2.46373980       5.72302889       3.55365022       0.00000000      -0.00111811       0.00245243      -0.00700013
C       -3.71144128       7.86232736       3.63253307       0.00000000       0.00724892       0.00416651      -0.00521469
C       -4.93278072      10.01106172       3.69669337       0.00000000      -0.00665864       0.00603734      -0.00760851
C        2.46827075       1.50482730       3.75989164       0.00000000      -0.00197584       0.00496227      -0.00440693
O        1.21734258       3.59784125       3.67566111       0.00000000       0.01457324      -0.00296184       0.00226866
C       -0.01384210       5.74106094       3.55223144       0.00000000      -0.00325960      -0.00515974       0.00046092
C       -1.24530404       7.86222382       3.53458829       0.00000000       0.00205511      -0.00617159       0.01213436
C       -2.47497120      10.01497589       3.61941601       0.00000000       0.00353950      -0.00485747       0.00046570
C        4.94155226       1.46138760       3.67536449       0.00000000       0.00456973      -0.00846038      -0.00589582
N        3.78403794       3.54234942       4.12811391       0.00000000       0.00480912      -0.00222260       0.00137443
C        1.19938608       7.83121613       3.58822418       0.00000000      -0.00578145       0.00306995       0.00653590
C        0.00458244       9.98976047       3.56484363       0.00000000      -0.00606846      -0.00614499       0.00954081
C        7.41744493       1.43689388       3.57797640       0.00000000       0.00119123      -0.01161283      -0.00636070
C        6.18831546       3.56331693       3.71729169       0.00000000      -0.00232108      -0.00197903      -0.00127238
C        4.97747282       5.66361610       4.01993292       0.00000000      -0.00813897       0.00580829      -0.01068329
C        3.68311713       7.86393604       3.92475204       0.00000000       0.00164498       0.00493860      -0.00269533
C        2.46677860       9.96153987       3.61734018       0.00000000       0.00411843       0.00717439       0.00269088
C        9.89210929       1.45035153       3.59147876       0.00000000      -0.00054001       0.00201779       0.00102370
C        8.65263280       3.58027877       3.57179239       0.00000000       0.00718411       0.00126917       0.00787663
C        7.40911527       5.70979657       3.68184874       0.00000000      -0.00461956       0.00094488      -0.00150337
C        6.15959570       7.84868772       3.80956312       0.00000000      -0.00138676       0.00376246      -0.00279590
C        4.93696047       9.99506187       3.70764377       0.00000000      -0.00659525       0.01003743      -0.01337922
Cr       2.28507057       4.25349498       5.21753648       0.00000000       0.00533893      -0.00842800      -0.00525302
O        2.10955176       3.31829726       6.52327214       1.00000000      -0.00159286       0.00305907      -0.00232608
O        2.87395827       5.93452099       5.38981057       1.00000000       0.00489442       0.00189970      -0.00528202
