52
Lattice="12.336457 0.0 0.0 -6.168228499999997 10.683685154694365 0.0 0.0 0.0 15.0" Properties=species:S:1:pos:R:3:forces:R:3 energy=-444.4276280109673 free_energy=-444.4276280109673 stress="-0.004503893098468346 -6.53828852732707e-05 9.870299886366405e-07 -6.53828852732707e-05 -0.006694038517949349 -1.815153902839892e-05 9.870299886366405e-07 -1.815153902839892e-05 5.368627453764422e-06" pbc="T T T"
C       -0.07531990      -0.04923036       3.97904764      -0.00091981       0.00354178      -0.00359027
C       -1.30615710       2.09869512       4.03873400      -0.00359401      -0.00108790       0.00022967
C       -2.55016304       4.23914103       3.93689142      -0.00244011       0.00196249      -0.00397935
C       -3.76813119       6.37326057       3.81421252      -0.00212028       0.00264873       0.00498557
C       -5.01756675       8.49613347       3.82355568      -0.00228318      -0.00206785      -0.01223195
C        2.39759806      -0.07159697       3.96842831       0.00325444       0.00054749       0.00415604
C        1.17833350       2.06158708       4.06825663       0.00152031       0.00238473       0.01344085
C       -0.11709296       4.24524060       4.13233060       0.00548004       0.00257142       0.00385954
C       -1.32039215       6.38474761       4.05026662       0.00029447       0.00390918       0.00309787
C       -2.54004927       8.50230702       3.97507724      -0.00023832      -0.00049914      -0.00348940
C        4.86258024      -0.03573106       3.90288223       0.00457994      -0.00068802      -0.00271211
C        3.60627827       2.02343563       3.59940412      -0.00085650       0.00263248       0.00392279
B        1.21892388       6.35902305       4.26020505       0.00465769      -0.00198648      -0.00057414
C       -0.06945239       8.51744804       4.07391313       0.00179807      -0.00327373      -0.01358573
C        7.32238588      -0.01360960       3.95132025       0.00204117      -0.00439689      -0.00316735
C        6.09489661       2.10023923       3.62731307       0.00211687      -0.00437790      -0.00396801
C        5.00311796       4.25403068       3.05434090      -0.00358301       0.00287196      -0.00629599
S        3.43156516       6.37078308       2.77069055       0.00345608      -0.00042139       0.00607688
C        2.40191367       8.54798559       3.93270238      -0.00151447       0.00146027      -0.00982507
C        9.80106521      -0.02142780       3.95210157       0.00054891      -0.00380090       0.00047212
C        8.56319290       2.10848252       3.86926721      -0.00008698      -0.00437347       0.01096253
C        7.35370192       4.23872670       3.60925220      -0.00513487       0.00265360       0.00830478
C        6.13757847       6.39478744       3.41240323      -0.00104378      -0.00374524      -0.00058330
C        4.86120609       8.51577741       3.68940437       0.00261440      -0.00247741       0.00552506
C       -0.07063703       1.38280495       4.06325319      -0.00057230       0.00416459      -0.01451943
C       -1.32091901       3.51612361       4.04408934       0.00083854       0.00108453       0.00258441
C       -2.55003691       5.66197557       3.93927010      -0.00074362       0.00392223      -0.00588568
C       -3.77289307       7.79302517       3.87292443      -0.00196562      -0.00010247       0.00667799
C       -5.01415927       9.91465600       3.94733845       0.00053258      -0.00158229       0.00415822
C        2.40130036       1.35205039       3.92833141      -0.00184755       0.00131004      -0.00722369
B        1.21600469       3.53827451       4.24511627       0.00278287      -0.00048254       0.00144748
C       -0.11590678       5.65592449       4.13707441       0.00201678       0.00411136       0.00674415
C       -1.30586553       7.80227406       4.04668494      -0.00000989       0.00256803       0.00628466
C       -2.53525957       9.92250565       3.95584587       0.00500678      -0.00110687       0.00375941
C        4.86101944       1.38603178       3.69434287      -0.00035871       0.00126288       0.00578428
S        3.43083489       3.53174687       2.77117841      -0.00619750      -0.00006632       0.00463160
C        1.17966664       7.83720673       4.08179359       0.00188948      -0.00242965      -0.00007185
C       -0.07476264       9.94996160       3.98698397       0.00242469      -0.00405649      -0.00867125
C        7.31867772       1.40527873       3.82387120       0.00328216      -0.00710415      -0.00263856
C        6.13624764       3.50800954       3.41817397      -0.00217065      -0.00063164      -0.00736424
C        5.00424053       5.64774270       3.05146744      -0.00142677       0.00288607      -0.01203083
C        3.60629900       7.87915160       3.59639752       0.00159706       0.00022802       0.00835060
C        2.39756212       9.97224868       3.96919282       0.00097163      -0.00105186       0.00867355
C        9.79609878       1.39886565       3.96925348      -0.00117751      -0.00480407      -0.00176278
C        8.56799630       3.52838501       3.81212267      -0.00402870      -0.00066811       0.00437945
C        7.35399396       5.66391001       3.60785131      -0.00300378       0.00177270       0.00758935
C        6.09572480       7.80211232       3.62237731      -0.00137970      -0.00735463       0.00007859
C        4.86231379       9.93662994       3.89729934       0.00019614       0.00044226      -0.00306419
Cr       2.67883633       4.93997999       4.58997574       0.00514245      -0.00508732      -0.00302967
O        4.09960301       4.55640028       5.85699951      -0.00493277       0.00567227      -0.00272729
O        4.45895123       5.92264238       6.20957571      -0.00580144       0.01625841      -0.00966892
H        4.07067203       5.98480680       7.10514508       0.00038824      -0.00314277       0.00648362
