52
Lattice="12.336457 0.0 0.0 -6.168228499999997 10.683685154694365 0.0 0.0 0.0 15.0" Properties=species:S:1:pos:R:3:forces:R:3 energy=-452.6712278767892 free_energy=-452.6712278767892 stress="-0.006285077176071962 0.002826728419598973 -4.210640718694585e-06 0.002826728419598973 -0.0008358972842989174 3.0848476534861203e-06 -4.210640718694585e-06 3.0848476534861203e-06 -1.19952670449526e-05" pbc="T T T"
C        0.05080164      -0.02278672       3.75234885      -0.00253829       0.00397883       0.00777195
C       -1.18175778       2.10692830       3.55292858       0.00569682      -0.00380666       0.00034228
C       -2.42570572       4.25002576       3.66733461      -0.00119365      -0.00444269       0.00172215
C       -3.66125888       6.38555155       3.83787435      -0.00127028       0.00408890      -0.00187836
C       -4.89405149       8.52564093       3.89857166      -0.00221538       0.00430129       0.00126631
C        2.51872626      -0.00651584       3.81587177      -0.00832066       0.00710307       0.00103395
C        1.30252108       2.08017190       3.42096753      -0.00076262       0.00795187       0.00037103
C       -0.01313543       4.30224283       3.33097864      -0.00157874       0.00653027       0.00310947
C       -1.22706497       6.41861841       3.66289066       0.00008903      -0.00745726      -0.00553265
C       -2.43543335       8.53514343       3.84794002       0.00304518      -0.00774096      -0.01449191
C        4.98564740      -0.02640997       3.84481087       0.00163467      -0.00154953      -0.00760382
C        3.78579990       2.13955785       3.82254702      -0.00271090       0.00065840       0.00423717
N        1.18252171       6.38220943       3.71954665       0.00241103      -0.00241956       0.00383284
C        0.03313101       8.50552723       3.80635726       0.00486484       0.00391611      -0.00505984
C        7.45425587      -0.04903465       3.81898228       0.01437148      -0.00305676       0.00833840
C        6.24225367       2.08290424       3.84835934      -0.00055412      -0.00447026       0.00552014
C        5.03338726       4.17480725       3.97033672       0.00321226      -0.00550042       0.00728200
B        3.78876229       6.36704360       4.16531090      -0.00706142      -0.00345683      -0.00385743
C        2.48954787       8.49117524       3.89988599      -0.00602667      -0.00675458       0.00148307
C        9.91787526      -0.04071645       3.79234871      -0.00158430      -0.00076926      -0.01577873
C        8.69749465       2.09552781       3.75333122      -0.00911059       0.00155729      -0.00460340
C        7.47056242       4.23228612       3.85288488      -0.00019817       0.00342691       0.00578330
C        6.23021017       6.37025438       3.97798097       0.00942414      -0.00530972       0.00402384
C        4.98407663       8.52052681       3.95210944       0.00195466       0.00119914       0.00308952
C        0.05287292       1.39604179       3.55782251       0.00753700       0.00064346       0.01279891
C       -1.20066213       3.53944701       3.49941792       0.00392870      -0.00370001      -0.01114327
C       -2.43814400       5.67779811       3.71888910      -0.00514626      -0.00287697       0.00047421
C       -3.66431757       7.81380173       3.87190810      -0.00241867       0.00139574      -0.01473273
C       -4.88591801       9.95433815       3.82809826      -0.00660169       0.00527360       0.01053422
C        2.53439539       1.41935222       3.69855461      -0.00481214       0.00866393       0.00032791
P        1.32481489       3.55977872       2.45759049      -0.00683086       0.01351798       0.01210811
C       -0.00974726       5.73639075       3.52219126       0.00179175      -0.00029093       0.00184511
C       -1.21012523       7.82522213       3.77928325       0.00911391      -0.00743347       0.00881571
C       -2.42453019       9.95900301       3.85740488      -0.00513636      -0.00231640       0.00058064
C        4.99976500       1.39820692       3.84407085      -0.00337965      -0.00093325       0.00355240
N        3.83964860       3.50671652       3.95224464       0.00107392      -0.00062878      -0.00562260
C        1.24842984       7.75425945       3.82150689      -0.00404473      -0.00239102      -0.00282585
C        0.04836392       9.92876890       3.83270568       0.01170250       0.00540470       0.00420418
C        7.46906955       1.37485938       3.80924737      -0.00144668      -0.00562285      -0.00140482
C        6.25693002       3.49215380       3.88591589       0.00524552      -0.00410287       0.01499367
C        5.03507285       5.60861831       4.04505364       0.00463285      -0.00365783       0.00231843
C        3.73548766       7.82542011       4.01415914      -0.00177986       0.00117779      -0.01072026
C        2.50950804       9.92053182       3.83528534       0.00624329      -0.00975836      -0.00296628
C        9.92907626       1.38666890       3.69795465      -0.00532732       0.00279654      -0.01001682
C        8.69773644       3.52424167       3.75964421      -0.00613651       0.00300806      -0.00295493
C        7.46120564       5.66063200       3.89387173       0.00449238       0.00115060      -0.00691095
C        6.21149045       7.80224341       3.95684242       0.00407163      -0.00247718      -0.00476565
C        4.98809576       9.94559667       3.83594879      -0.00161640       0.00367988      -0.00916161
Cr       2.43033799       4.88541729       4.22370311      -0.00642003       0.00450813      -0.00617465
O        2.20045197       4.53453069       6.01624274       0.00289409       0.00013872       0.00978975
O        1.34537307       5.58543472       6.58663774      -0.00977317       0.00813511      -0.00130083
H        1.92341303       5.86457122       7.32235556       0.00656445      -0.00128193       0.00795673
