52
Lattice="12.336457 0.0 0.0 -6.168228499999997 10.683685154694365 0.0 0.0 0.0 15.0" Properties=species:S:1:pos:R:3:forces:R:3 energy=-444.27848370821994 free_energy=-444.27848370821994 stress="-0.003208798035158947 5.713143104151375e-05 1.7394165072289228e-06 5.713143104151375e-05 -0.005696601863690213 -4.140794861236284e-05 1.7394165072289228e-06 -4.140794861236284e-05 -1.5241764581965088e-05" pbc="T T T"
C        0.04918418      -0.06585547       3.95627592       0.00153741      -0.00084327      -0.00249424
C       -1.17875456       2.08044336       4.04881779       0.00635185      -0.00144882       0.00218936
C       -2.41479810       4.21522000       4.04196568      -0.00544435      -0.00812013      -0.00210846
C       -3.64957153       6.34802776       3.96785455       0.00038073       0.00499744      -0.00544347
C       -4.89374565       8.47199193       3.87314794      -0.00181940       0.00596988       0.00554554
C        2.51735454      -0.10351137       3.99302331       0.00973132      -0.00818528      -0.00384983
C        1.30198892       2.03626032       4.01999079       0.00190575      -0.00364770       0.00703191
C        0.05484627       4.23021585       3.86073317      -0.01384402      -0.00066704       0.00476676
C       -1.21214343       6.35911594       3.72872895      -0.00656847       0.00026191      -0.00383551
C       -2.40664995       8.47201815       3.86516146      -0.00219625      -0.00214348      -0.00062257
C        4.98669140      -0.06788476       3.95767535      -0.00361176       0.00529041      -0.00324917
C        3.73475740       2.03392297       4.02767286      -0.00322056       0.00186325       0.01403107
S        1.16752108       6.31579452       2.50635879      -0.00281081      -0.00524980      -0.01629474
C        0.04831027       8.50273146       3.60570022      -0.00433460       0.00689705       0.01161206
C        7.45115589      -0.04586821       3.89712495      -0.00611588      -0.00261280      -0.00461771
C        6.21494370       2.07820688       4.06090214       0.00400092      -0.00233936      -0.00255405
C        4.98333201       4.22722203       3.87330799       0.00671581       0.00009501      -0.00870791
S        3.87679515       6.31428148       2.51015501       0.00063736       0.01054025       0.00219461
C        2.51787688       8.54527232       3.40578613       0.00443393       0.00056506      -0.00788908
C        9.92079299      -0.04473588       3.89350975       0.00173219       0.00418732       0.00632018
C        8.68647691       2.08205441       4.07801156       0.00178375      -0.00033350      -0.00656063
C        7.45238655       4.21418881       4.04951191       0.00228875       0.00111890       0.00160833
C        6.24745438       6.35941365       3.74968837       0.00629063      -0.00490454      -0.00244545
C        4.98580879       8.50252092       3.62159082       0.01086381      -0.01026174      -0.00415051
C        0.05203239       1.36245071       4.01987113       0.00284320      -0.00240313       0.00887631
C       -1.17527479       3.50241239       4.01963139      -0.00865243      -0.00667198      -0.00892108
C       -2.42375650       5.63564068       3.95214062      -0.00310559      -0.00410119       0.00001391
C       -3.64981481       7.76453890       3.90716287      -0.00553294       0.00665354       0.00000878
C       -4.89095353       9.89265250       3.94206766       0.00413381       0.00380336       0.00152751
C        2.51772190       1.31263041       4.02713905       0.00115558      -0.00622533      -0.00564669
B        1.43141281       3.54642324       3.97821484       0.00404736       0.00100444       0.00752861
C       -0.05021897       5.60458486       3.52295027      -0.00390766       0.00041444       0.01048775
C       -1.18170046       7.77598052       3.70238526      -0.00356457       0.00175590       0.00646193
C       -2.41043850       9.89243572       3.93908238       0.00693028      -0.00697712       0.00800113
C        4.98440161       1.35984037       4.02973587      -0.00086718       0.00345130       0.00307091
B        3.60601106       3.54379880       3.98915777      -0.00447942       0.00457899      -0.00462192
C        1.26963779       7.88445202       3.26828825      -0.00345800       0.00385381       0.00789787
C        0.05016799       9.92021049       3.83750081      -0.00857571       0.00687263      -0.00103754
C        7.45007603       1.37194993       4.04223969       0.00226339      -0.00359925      -0.01548224
C        6.21310810       3.50028409       4.03180348       0.00624415      -0.00115171       0.00217830
C        5.08699569       5.60329858       3.53786554       0.00035385       0.00207699       0.00682851
C        3.76596696       7.88236123       3.28021683       0.00597760      -0.01165854       0.01066862
C        2.51770264       9.94290569       3.75725635      -0.00071311       0.00118094      -0.00141202
C        9.92232238       1.37343459       4.03432088       0.00717691       0.00660847      -0.00399923
C        8.68737595       3.50582414       4.09033160      -0.00422426      -0.00382781      -0.00307393
C        7.46106616       5.63480495       3.96310765       0.00457173       0.00118856       0.00200209
C        6.21616006       7.77572217       3.72139490       0.00944409      -0.00586205      -0.00830884
C        4.98516280       9.92232529       3.84102620       0.00227914      -0.00516645      -0.00969891
Cr       2.52819959       5.27499920       4.15908867      -0.01356402      -0.01253310      -0.00572979
O        2.74260982       6.41876967       5.68559322      -0.01366977       0.00942894       0.00694391
O        1.38867917       6.44412331       6.23270504       0.00415848       0.00958047      -0.00148686
H        1.48132874       5.81961389       6.98239869       0.00404699       0.01669583       0.00644641
