51
Lattice="12.336457 0.0 0.0 -6.168228499999997 10.683685154694365 0.0 0.0 0.0 15.0" Properties=species:S:1:pos:R:3:initial_magmoms:R:1:forces:R:3 energy=-439.840590815553 free_energy=-439.840590815553 stress="-0.003650307771495152 -0.0062424724929344534 9.631957718662476e-06 -0.0062424724929344534 -0.0025258479632358373 -1.8278133065346198e-06 9.631957718662476e-06 -1.8278133065346198e-06 7.249672964300034e-06" pbc="T T T"
C        0.05056826       0.03618182       3.74354065       0.00000000       0.00334771      -0.00057053      -0.00088583
C       -1.22943208       2.14069589       3.52620889       0.00000000      -0.00346029       0.00226704       0.00183353
C       -2.43241068       4.30446933       3.55530129       0.00000000       0.00277174      -0.00313079      -0.00524126
C       -3.60598538       6.45642782       3.75874730       0.00000000      -0.00102257      -0.00714615      -0.00036974
C       -4.84455834       8.60240006       3.87492162       0.00000000       0.00244773      -0.00514692      -0.00312431
C        2.51426530       0.04869323       3.62412068       0.00000000       0.01074483      -0.00305947       0.00651458
C        1.21268118       2.13223328       3.39256508       0.00000000       0.00658794      -0.00103377       0.01095282
C       -0.04675607       4.21408446       3.23044059       0.00000000      -0.00080564      -0.00250542       0.00032790
C       -1.14226062       6.41292297       3.47062817       0.00000000       0.00063612       0.00482777       0.00729627
C       -2.37184772       8.57402832       3.65378504       0.00000000      -0.00943262       0.00552682      -0.00097955
C        4.98303946       0.04787404       3.68393184       0.00000000       0.00267817       0.00322487       0.00215136
C        3.70041113       2.16460471       3.62421580       0.00000000      -0.00246419       0.01828562       0.00131381
S        1.62077677       6.23128975       3.42321435       0.00000000       0.00653411       0.01242019      -0.00073403
C        0.09017732       8.56385303       3.68506931       0.00000000      -0.00034944      -0.00196194       0.00386673
C        7.43739985       0.05523269       3.82597097       0.00000000      -0.00394815       0.00236061      -0.00164629
C        6.18818547       2.20501215       3.76145615       0.00000000      -0.00491140      -0.00982865      -0.00138705
C        5.08545808       4.40456740       3.99952068       0.00000000       0.00967590       0.00946892      -0.00356884
B        3.80385354       6.49017437       4.61271050       0.00000000       0.00746714       0.00063082      -0.00187700
C        2.53484599       8.62432637       4.06750786       0.00000000       0.00113580      -0.00107028       0.00267262
C        9.91583848       0.05200264       3.88965297       0.00000000      -0.00434918      -0.00127149      -0.00535284
C        8.65919213       2.18153322       3.73968753       0.00000000      -0.00113455       0.00485181      -0.00808028
C        7.47757706       4.33506626       3.83841448       0.00000000      -0.00246996       0.00148288      -0.00667942
C        6.30490399       6.49573052       4.13213191       0.00000000      -0.00264468       0.00489524       0.00646446
C        5.02051472       8.61584551       4.13954934       0.00000000       0.00096757      -0.01044160      -0.00119870
C        0.01811881       1.44448982       3.52469455       0.00000000       0.00218116       0.00471966       0.00050191
C       -1.24279917       3.54687788       3.38848491       0.00000000      -0.00304018      -0.00183663       0.00105464
C       -2.39287006       5.72396921       3.57846269       0.00000000       0.00346676      -0.00353069      -0.00687244
C       -3.60914571       7.88068782       3.76198390       0.00000000      -0.00387158      -0.00588010      -0.00049614
C       -4.87359562      10.01997144       3.74682129       0.00000000       0.00794727      -0.00319567       0.00324749
C        2.47034987       1.47674299       3.52256484       0.00000000       0.00860787      -0.00368394      -0.00030096
O        1.14406019       3.50645451       3.30628014       0.00000000      -0.00098698      -0.00497575      -0.00798679
C        0.01555893       5.61044156       3.31059315       0.00000000      -0.00196899      -0.00177518       0.00188138
C       -1.13311290       7.84520354       3.58505832       0.00000000      -0.00813804       0.00962337       0.01243342
C       -2.40463941      10.01319208       3.65189292       0.00000000       0.00627361       0.00109800      -0.00043933
C        4.94898723       1.49869559       3.69871144       0.00000000      -0.00612012       0.00360830      -0.00601183
S        3.53186494       3.88199898       3.58700899       0.00000000      -0.00252901      -0.01196123       0.00886749
C        1.34682237       7.90763097       3.79948995       0.00000000       0.00492579      -0.00351172      -0.00199106
C        0.05371214      10.01208365       3.74311152       0.00000000       0.00065418      -0.00203359       0.00324730
C        7.41884202       1.48472880       3.78222988       0.00000000      -0.00057340      -0.00047962       0.00048355
C        6.23622455       3.62120522       3.84767395       0.00000000      -0.00012451      -0.00462637       0.00432891
C        5.09885546       5.78130328       4.27553731       0.00000000       0.00070759       0.00771200       0.00306121
C        3.77428987       7.94993924       4.27042826       0.00000000      -0.00101244      -0.00422590       0.00014357
C        2.50914175      10.04835526       3.95235871       0.00000000      -0.00706736       0.00066341       0.00493047
C        9.89549628       1.46097052       3.71924533       0.00000000      -0.00315635       0.00346559      -0.00019344
C        8.67909426       3.60337748       3.71090035       0.00000000       0.00020290       0.00344086      -0.01928125
C        7.51008663       5.75622329       3.91601746       0.00000000      -0.00421913       0.00138384       0.00930081
C        6.27242212       7.91213605       4.08827776       0.00000000       0.00063683      -0.00412290      -0.00036405
C        4.99563697      10.03169371       3.93604788       0.00000000       0.00018588      -0.00675648      -0.00461461
Cr       2.43550639       5.13048335       5.43485769       0.00000000      -0.00436203       0.00165679      -0.01007938
O        1.75739971       3.29304207       5.90865796       1.00000000      -0.00405994       0.00183178       0.00051927
O        0.73912513       4.13388538       5.82463514       1.00000000      -0.00256191       0.00031659       0.00236092
