51
Lattice="12.336457 0.0 0.0 -6.168228499999997 10.683685154694365 0.0 0.0 0.0 15.0" Properties=species:S:1:pos:R:3:initial_magmoms:R:1:forces:R:3 energy=-448.01835569625655 free_energy=-448.01835569625655 stress="0.003780195782865007 -0.0036608128092292954 -2.511928851237269e-06 -0.0036608128092292954 0.006228595532134197 8.650882822516696e-06 -2.511928851237269e-06 8.650882822516696e-06 -1.950003996563248e-06" pbc="T T T"
C        0.03637541      -0.06723395       3.81575846       0.00000000      -0.01200384       0.00059280       0.00094755
C       -1.23000935       2.04862651       3.84752045       0.00000000      -0.00565652      -0.00621736      -0.00410748
C       -2.47384107       4.18943355       3.80077531       0.00000000      -0.00407985       0.00727459       0.00391385
C       -3.68475662       6.33501332       3.75867340       0.00000000       0.00679885      -0.00176595       0.00546152
C       -4.89477277       8.48012460       3.76995742       0.00000000       0.00369044      -0.00134875       0.00603411
C        2.49938477      -0.01924398       3.79894759       0.00000000      -0.00067853      -0.00535823       0.00148148
C        1.21808422       2.08875124       3.87397700       0.00000000       0.00634948      -0.00508679       0.01738929
C       -0.02469978       4.13693760       3.88872870       0.00000000      -0.00115225      -0.00498263      -0.00263533
C       -1.19501611       6.29049166       3.82445464       0.00000000       0.00073464       0.00404810       0.00183316
C       -2.42150975       8.46661148       3.79121723       0.00000000       0.00850732      -0.00654459      -0.00776676
C        4.95456179      -0.06893578       3.74576912       0.00000000       0.00760954       0.00002870       0.00546464
C        3.73801242       2.10174391       3.71747889       0.00000000      -0.00161926       0.00572311       0.00040379
B        1.24258384       6.31027429       4.31002261       0.00000000       0.00431761       0.00390186       0.00526464
C        0.05906253       8.44403969       3.76186407       0.00000000      -0.00078891       0.00056136      -0.00010240
C        7.42035453      -0.07763727       3.73338243       0.00000000       0.00609713      -0.00294114      -0.00717833
C        6.16882103       2.07734435       3.68815211       0.00000000      -0.00858991       0.00512637       0.01126762
C        4.93072251       4.20501899       3.55656882       0.00000000      -0.00247357       0.00556047      -0.00022194
N        3.75794608       6.38502805       3.34979728       0.00000000      -0.01139855      -0.00452435       0.00512865
C        2.52088955       8.46256474       3.67519758       0.00000000      -0.00092034      -0.00060792      -0.00061291
C        9.89450511      -0.08212584       3.76746968       0.00000000      -0.00392330      -0.00043481       0.00153733
C        8.63796550       2.05964191       3.76062060       0.00000000      -0.00370722      -0.00014996      -0.00480305
C        7.39112445       4.20941705       3.69516064       0.00000000       0.00365628      -0.00288534       0.00301647
C        6.16646628       6.33672654       3.65846507       0.00000000       0.00406035      -0.00649175       0.00341523
C        4.97661120       8.46604454       3.70627874       0.00000000       0.00403920       0.00417898      -0.00169868
C        0.02670086       1.36376746       3.85595011       0.00000000      -0.00166616      -0.00297695      -0.00010804
C       -1.24377866       3.45819791       3.85682171       0.00000000      -0.01117398      -0.00646639      -0.00688005
C       -2.45833020       5.60766046       3.78950273       0.00000000       0.00397915       0.00759529       0.00254782
C       -3.66285096       7.76234115       3.77685488       0.00000000       0.00692934      -0.00362702      -0.00746201
C       -4.89185417       9.92086862       3.80106994       0.00000000      -0.00880820       0.00022176       0.00010786
C        2.48717580       1.43798114       3.80412160       0.00000000       0.00299121      -0.00292630      -0.00497234
O        1.17354931       3.45679781       3.96579105       0.00000000       0.01433041       0.01159290      -0.00478737
C       -0.00201146       5.53231082       3.86714588       0.00000000      -0.00422093      -0.00416939      -0.00156244
C       -1.18153499       7.73334458       3.80456247       0.00000000       0.00592497      -0.00272067      -0.00177421
C       -2.44216175       9.91224365       3.77994382       0.00000000       0.00704390      -0.00527199      -0.00740910
C        4.93268704       1.37657381       3.71343414       0.00000000      -0.00365258       0.00299955       0.00143864
O        3.75719180       3.48484255       3.60738481       0.00000000      -0.00386507       0.00865053       0.00469417
C        1.30692199       7.74590406       3.76415578       0.00000000      -0.00620968       0.00681803       0.01132449
C        0.02653984       9.89005070       3.73725834       0.00000000       0.00735107      -0.00073514      -0.00722240
C        7.39986751       1.35606446       3.72756377       0.00000000      -0.00635703      -0.00011366      -0.00809088
C        6.14704690       3.50502931       3.64244051       0.00000000      -0.00151059       0.00382052       0.00628015
C        4.91455486       5.64272080       3.50683501       0.00000000      -0.00587152       0.00278387       0.00053731
C        3.76701800       7.74046823       3.57801180       0.00000000       0.00281059       0.00339674      -0.00014272
C        2.49723863       9.89013244       3.72499439       0.00000000       0.00408258      -0.00410596      -0.00758967
C        9.88180776       1.34329027       3.79744826       0.00000000      -0.00551582      -0.00351661      -0.00113301
C        8.62494583       3.48546813       3.75561067       0.00000000       0.00245856       0.00266001      -0.01018209
C        7.39975280       5.62924957       3.70720783       0.00000000       0.00866801      -0.00568244       0.00079513
C        6.20521353       7.76063034       3.71826659       0.00000000       0.00400143      -0.00239425      -0.01520457
C        4.96805368       9.89446597       3.77604055       0.00000000      -0.00802175       0.00479483      -0.00615094
Cr       2.13058673       5.87898443       2.29700510       0.00000000      -0.00164670       0.00710172       0.01082768
O        2.35263174       6.82323942       6.06691945       1.00000000      -0.00824673       0.00464323       0.01057439
O        1.92680094       5.71223647       5.45223813       1.00000000       0.00732677      -0.01002898      -0.00188824
