52
Lattice="12.336457 0.0 0.0 -6.168228499999997 10.683685154694365 0.0 0.0 0.0 15.0" Properties=species:S:1:pos:R:3:forces:R:3 energy=-447.11882237377876 free_energy=-447.11882237377876 stress="-0.003908979876232868 -0.0011139630950143596 -5.783198012240166e-05 -0.0011139630950143596 -0.008867370463712632 2.5156044392965264e-05 -5.783198012240166e-05 2.5156044392965264e-05 -7.980398247644143e-06" pbc="T T T"
C       -0.02388667       0.00337745       3.90067870      -0.00314011      -0.00316735      -0.00706848
C       -1.25491484       2.15742856       3.82547662       0.00456550       0.00026139       0.00609622
C       -2.49526834       4.29845364       3.75878662       0.00007493       0.00492962      -0.00328434
C       -3.71421605       6.42436470       3.81993663       0.00134873       0.00374825      -0.00417583
C       -4.95222306       8.54950849       3.90953378      -0.01114136      -0.00012759      -0.00367544
C        2.45379988      -0.03046199       3.85840036       0.00715750       0.00220560      -0.00103791
C        1.22910361       2.09358523       3.89650184      -0.00338430       0.00511259       0.00219466
C       -0.05884794       4.30554460       3.91392850      -0.00199663       0.00056714       0.00204719
C       -1.23939078       6.43391961       3.88939341       0.00399174      -0.00158522       0.00136438
C       -2.47619307       8.54987360       3.87799857      -0.00444018      -0.00842594      -0.00189830
C        4.91817450       0.01074762       3.74140773       0.00662680      -0.00143857      -0.00050763
C        3.65036126       2.06774681       3.50216341      -0.00003505       0.00856391       0.00104086
B        1.37558042       6.37608704       4.16681961      -0.01175081       0.00030415      -0.00968133
C       -0.00857179       8.56739318       3.92119205      -0.00472766      -0.00781204      -0.00074828
C        7.37275118       0.04487113       3.76846942       0.00223580      -0.00407759      -0.00133839
C        6.13362392       2.16494752       3.52785852      -0.00084776       0.00091343      -0.00488820
C        4.97375501       4.34757993       3.41489271      -0.00644044      -0.00120668       0.00283974
B        3.57591178       6.40863650       4.03035771       0.00428785       0.00149095       0.00479483
C        2.44636466       8.62159882       3.95635902       0.00158073       0.00208387       0.00807902
C        9.84864914       0.04213314       3.84072094       0.00063565       0.00848723      -0.00831769
C        8.60973858       2.16865720       3.69002881       0.00095976      -0.00253336       0.00108457
C        7.38568267       4.30100865       3.63624628      -0.00117438       0.00009342       0.00262083
C        6.15404611       6.43539516       3.82039100      -0.00358556      -0.00465611       0.00037441
C        4.91707135       8.57494689       3.92860531      -0.00299830       0.00383569       0.00059020
C       -0.02289777       1.43241996       3.88546308       0.00097671      -0.00418274       0.00177104
C       -1.26433352       3.57792126       3.80621828      -0.00041699       0.00107292       0.00644378
C       -2.48304857       5.71741003       3.81161023       0.00453827       0.00563550      -0.00054179
C       -3.71297189       7.84312089       3.87996631      -0.00962409       0.00070713      -0.00434224
C       -4.95778886       9.96505021       3.91248331       0.00105688       0.00051958      -0.00391120
C        2.45135964       1.38647215       3.78587241      -0.00124095       0.00659303      -0.00664549
B        1.23993226       3.55608737       4.07518447      -0.00329782       0.00645777      -0.00369417
C       -0.01685746       5.71292298       3.97043255       0.00032364      -0.00077253       0.00072743
C       -1.24098236       7.85152789       3.90320181      -0.00373332      -0.00658101       0.00190236
C       -2.47587626       9.96745021       3.83171862       0.00793126      -0.00606548       0.00680538
C        4.90616746       1.43851184       3.56685355      -0.00079975       0.00360911       0.00327419
S        3.45874256       3.68052288       2.89152719      -0.00231194       0.00290665       0.00188407
C        1.23609889       7.88824223       4.01199687      -0.00134452      -0.00093960       0.00178401
C       -0.01749292       9.99781542       3.81110024       0.00253885      -0.00843927      -0.00318953
C        7.36541002       1.46567967       3.65147370       0.00006666      -0.00393359      -0.00172655
C        6.15233569       3.58510940       3.48100376      -0.00407864       0.00216340       0.00055513
C        4.92279360       5.71074487       3.76386633      -0.00404340      -0.00116174       0.00110472
C        3.66866237       7.91208414       3.96996682       0.00051953       0.00189623      -0.00106178
C        2.44182052      10.03800319       3.85265294       0.00431416       0.00349115       0.00227408
C        9.84539918       1.45883870       3.77868490       0.00415813       0.00630274       0.00137746
C        8.61400507       3.58859588       3.68418905       0.00025709      -0.00089370      -0.00327054
C        7.38771163       5.71812167       3.75534963       0.00099686       0.00034128      -0.00128447
C        6.14905834       7.85173816       3.90756029      -0.00887541      -0.00396873       0.00306063
C        4.91271665      10.00013866       3.89658145      -0.00623559       0.00393154      -0.00519563
Cr       2.58737438       4.86660692       4.87277014       0.00609117      -0.00426808       0.01137000
O        3.66691365       3.76363294       5.97718480       0.00774825      -0.00083196       0.00339134
O        2.78697122       4.39390512       7.00141973       0.00935363      -0.00509173       0.00125471
H        3.39929231       4.99015600       7.47367520       0.01732891      -0.00606465      -0.00062202
