52
Lattice="12.336457 0.0 0.0 -6.168228499999997 10.683685154694365 0.0 0.0 0.0 15.0" Properties=species:S:1:pos:R:3:forces:R:3 energy=-443.938587907183 free_energy=-443.938587907183 stress="-0.004450868660291515 -0.006340985087634567 1.0951988095408748e-05 -0.006340985087634567 -0.0030197830420614115 -1.1883499245337926e-05 1.0951988095408748e-05 -1.1883499245337926e-05 6.4897542336989364e-06" pbc="T T T"
C        0.11952107       0.06900592       3.80709234      -0.00210573       0.00116387      -0.00619515
C       -1.16137894       2.17310655       3.57535974      -0.00936862       0.00054813       0.00732644
C       -2.36569058       4.33811535       3.59605700      -0.00179604       0.00240688      -0.00697079
C       -3.54005641       6.48945924       3.81145643       0.00896981      -0.00658617       0.00638549
C       -4.77749721       8.63442320       3.93779589       0.00341705       0.00508413       0.00249384
C        2.58341023       0.08153788       3.72541718      -0.00440339       0.00597852      -0.00188001
C        1.28367249       2.16779179       3.50316491       0.00578358       0.00109207       0.00194450
C        0.02783353       4.24879336       3.34367985      -0.00236032       0.01308280       0.00673065
C       -1.07468385       6.44654960       3.57442199       0.00272043      -0.00053487       0.00333419
C       -2.30431327       8.60756604       3.74717147      -0.00197662       0.00049877       0.01122526
C        5.05081644       0.08082834       3.79628086      -0.00316991      -0.00184265      -0.01481991
C        3.77004687       2.19688382       3.75040421      -0.01369011      -0.00534188      -0.00023338
S        1.68574369       6.26245636       3.59413368      -0.00263130       0.00213116      -0.01100664
C        0.15542363       8.59753340       3.81001709       0.00094177      -0.00295799       0.00875243
C        7.50464536       0.09051808       3.90943124       0.00836231      -0.00812625       0.01083075
C        6.25682161       2.23742398       3.84345556       0.00234329      -0.00471969       0.00715909
C        5.15993677       4.43474917       4.09978346      -0.00395261      -0.00438412      -0.00134795
B        3.89368732       6.53802696       4.69282800      -0.00429714      -0.01134317       0.00894585
C        2.60094718       8.66483570       4.17911842       0.00425935       0.00404223      -0.00804180
C        9.98337260       0.08685863       3.94596442       0.00254433      -0.00839901      -0.00168662
C        8.72664175       2.21512794       3.77894992      -0.00164660      -0.00266945      -0.00359402
C        7.54553157       4.36823373       3.88355867       0.00811993       0.00206137       0.00457807
C        6.37398685       6.53010664       4.19321759       0.00137793       0.00070156      -0.00874413
C        5.08994117       8.65029493       4.20490849      -0.00629365      -0.00070146      -0.00234861
C        0.08763859       1.47853501       3.59575950      -0.00382102       0.00001684      -0.00089296
C       -1.17413415       3.57988992       3.44595672      -0.01582778       0.00323666      -0.00767379
C       -2.32631611       5.75694266       3.63807020       0.00536401      -0.00121867       0.00888085
C       -3.54234988       7.91335570       3.83099299       0.00076792      -0.00402120      -0.00641398
C       -4.80527223      10.05238642       3.82283543      -0.00157217       0.00544918      -0.00221747
C        2.53861102       1.50954958       3.64000966      -0.00187241       0.00279126      -0.00030520
O        1.21316624       3.54374398       3.45556226       0.01076063       0.00337000       0.00155986
C        0.08540680       5.64407851       3.44640255       0.00627230       0.00468250       0.00529898
C       -1.06598388       7.87863097       3.69675975      -0.00032783      -0.00561812      -0.00109047
C       -2.33626266      10.04619668       3.75778334      -0.00751591       0.00428059      -0.00416343
C        5.01805681       1.53063587       3.80860021      -0.00469007      -0.00175173      -0.00683134
S        3.60281901       3.90725674       3.72813044      -0.00817302       0.00472450       0.00573216
C        1.41171654       7.94286424       3.93912336       0.00849286       0.00555205      -0.01479242
C        0.12078359      10.04568558       3.85146003       0.00264683      -0.00239989       0.00726291
C        7.48717683       1.51872367       3.84505775       0.00436620      -0.00824341       0.00887860
C        6.30627924       3.65339325       3.92469527       0.00439135       0.00022575      -0.00418982
C        5.16931711       5.81793244       4.35858803       0.00059089      -0.00033525       0.00031271
C        3.84406857       7.98901452       4.36328657      -0.00354766      -0.00266873      -0.00839660
C        2.57622140      10.08502888       4.03526318       0.00712470      -0.00487070      -0.00126593
C        9.96271076       1.49400080       3.76212866      -0.00512152      -0.01085912      -0.01536892
C        8.74533828       3.63665885       3.74083080       0.00425399       0.00235826       0.00591637
C        7.57628616       5.79008030       3.96516099       0.01038320       0.00066415      -0.00136962
C        6.33864168       7.94433853       4.14518614       0.00081264       0.00377590       0.01306150
C        5.06365403      10.06476517       3.99062846       0.00333910       0.00276624       0.01764740
Cr       2.54090877       5.16281408       5.57721751      -0.00116255       0.00847287      -0.00724001
O        1.84047322       3.38916208       6.07997502       0.00875611      -0.00494630      -0.01540356
O        0.43669153       3.75390831       6.16101152      -0.00767981       0.00128317      -0.00199505
H        0.26546512       3.57647034       7.10659201      -0.00815873       0.01209847       0.01222165
