52
Lattice="12.336457 0.0 0.0 -6.168228499999997 10.683685154694365 0.0 0.0 0.0 15.0" Properties=species:S:1:pos:R:3:forces:R:3 energy=-455.55310716883434 free_energy=-455.55310716883434 stress="0.0007944332831437971 0.0012934023278244604 2.2146092555782802e-05 0.0012934023278244604 0.005269567386454649 3.5185415401734107e-06 2.2146092555782802e-05 3.5185415401734107e-06 -9.132263993803257e-07" pbc="T T T"
C        0.04734269       0.04184916       3.70224300       0.00441381       0.00174130      -0.00136902
C       -1.18527118       2.17083453       3.62552525      -0.00147965       0.01262701      -0.01184334
C       -2.40802854       4.30553354       3.57912632      -0.01243232      -0.00122460       0.00289741
C       -3.65172079       6.44115241       3.64583812      -0.00477291      -0.00932280      -0.01604771
C       -4.89834764       8.58220580       3.73265833       0.00578115      -0.01049288      -0.00873395
C        2.51211700       0.07382357       3.76874272       0.00141775       0.00043222      -0.00775431
C        1.25272508       2.22471779       3.88043918       0.00246525      -0.00658457       0.00344383
C        0.04838945       4.30552309       3.80180751      -0.00478728      -0.00328708      -0.00216340
C       -1.18220610       6.44083585       3.67944501      -0.00275827      -0.00122827      -0.00933922
C       -2.42607881       8.58228185       3.68995685      -0.00039987       0.00637759       0.00329342
C        4.97528006       0.03200807       3.69538443       0.00057026      -0.00318899      -0.00095523
C        3.77924814       2.16282423       3.87111363       0.00356472      -0.00260249      -0.00505803
O        1.21037635       6.45413647       3.68731642       0.01347746      -0.00378010       0.00006297
C        0.04256429       8.55547333       3.67783476      -0.00210605       0.00427529       0.00473110
C        7.44926287       0.00530749       3.61297757      -0.00144517       0.00616091       0.00104535
C        6.22450593       2.15422223       3.62287194      -0.00515537       0.00602063       0.00809055
C        5.03833981       4.27754509       3.81339493       0.00486395       0.01072883       0.00328777
B        3.82026565       6.44570624       4.43584766       0.01738746       0.00373003      -0.00097196
C        2.49760049       8.52171585       3.74330267      -0.00556896      -0.00291346       0.00983836
C        9.90879569       0.01254662       3.62372699       0.00550994      -0.00473060       0.00931338
C        8.68568728       2.15784541       3.55300123       0.00420808      -0.00542319      -0.00410330
C        7.46060431       4.29806740       3.59140373       0.00273291       0.00263245      -0.00762503
C        6.21530857       6.41371746       3.77431382       0.00254516       0.00824113      -0.00056593
C        4.95984247       8.56750966       3.79177584      -0.00572081      -0.00602571       0.00562585
C        0.05226046       1.47554983       3.70824164      -0.00176015       0.00708221      -0.00320569
C       -1.17570543       3.59877378       3.62796896      -0.01072891       0.00992277      -0.00769884
C       -2.41635596       5.72536822       3.62594812      -0.00690773      -0.00582612      -0.00257497
C       -3.66281967       7.86946892       3.69252957       0.00549330      -0.00907622      -0.00917500
C       -4.88690159      10.02091918       3.74069369       0.00399834      -0.00584589      -0.00675118
C        2.52496997       1.52154016       3.86467095       0.00472154      -0.00107080       0.00083902
N        1.18543558       3.58153479       4.08893066      -0.00098604      -0.00668306      -0.00418608
C        0.02832988       5.74276658       3.75471291       0.00424680      -0.00108018       0.00425380
C       -1.19850888       7.86557527       3.67780318      -0.00243931       0.00485631       0.00580383
C       -2.43143327      10.02288537       3.72180386      -0.00112819       0.00514524       0.00890141
C        4.97831356       1.46579780       3.71680614      -0.00065410      -0.00556428      -0.00139677
O        3.82604376       3.57271313       3.94991379       0.00618450       0.00811881       0.00664131
C        1.24098118       7.83372439       3.70813126      -0.00099814      -0.00227324       0.01053744
C        0.04507122       9.99105401       3.65787306       0.00036964       0.00271116       0.00110706
C        7.44695320       1.44260226       3.57749426      -0.00352694       0.00755422       0.00727512
C        6.22654127       3.57396138       3.62978874       0.00453844       0.00825239       0.00403152
C        5.02147723       5.66272487       3.91517556       0.00485016       0.00877519      -0.00235186
C        3.73513971       7.86905923       3.90542595      -0.00334092      -0.00484996       0.01505330
C        2.50563600       9.96329144       3.63729774      -0.00204744      -0.00096466       0.00487034
C        9.91814862       1.44695641       3.58006042       0.00755780      -0.00271802       0.00057212
C        8.69126712       3.58464407       3.55253828      -0.00255444      -0.00675262       0.00111187
C        7.45601100       5.71825658       3.64771517      -0.00494277       0.00084446      -0.00299977
C        6.20773525       7.85360749       3.78674121      -0.00284874       0.00043172      -0.00988485
C        4.97756172      10.00187035       3.68451543       0.00543032      -0.00567155       0.00641910
Cr       2.38442451       4.31168948       5.48073652      -0.00804815      -0.00899049      -0.00299653
O        3.08767973       6.00853271       5.49416875      -0.00498782      -0.00093543       0.00137867
O        1.48589965       3.71977323       6.93436634      -0.01123284      -0.00008526      -0.00630843
H        1.77768167       3.98240860       7.82900910      -0.00056943       0.00253064       0.00563450
