52
Lattice="12.336457 0.0 0.0 -6.168228499999997 10.683685154694365 0.0 0.0 0.0 15.0" Properties=species:S:1:pos:R:3:initial_magmoms:R:1:forces:R:3 energy=-460.67036603126803 free_energy=-460.67036603126803 stress="-0.004418492258985853 0.0029722651834594694 -5.55869647778517e-06 0.0029722651834594694 -0.007854454942572081 -2.872479950788208e-06 -5.55869647778517e-06 -2.872479950788208e-06 -1.062720401100261e-05" pbc="T T T"
C        0.22735485       0.02328485       3.79241162       0.00000000       0.00310066      -0.00118174      -0.00340228
C       -0.98961307       2.17203006       3.84252199       0.00000000      -0.00188255       0.00677104      -0.00887091
C       -2.22144332       4.30406488       3.82763568       0.00000000       0.00069560      -0.00065992      -0.00654972
C       -3.47145623       6.42919004       3.76881709       0.00000000      -0.00208733      -0.00021228       0.00503634
C       -4.71746681       8.56250621       3.73375976       0.00000000      -0.00334404      -0.01106629      -0.00027105
C        2.68715215       0.00806704       3.77801528       0.00000000       0.00321568       0.00368418       0.00206814
C        1.47240081       2.15313695       3.85571042       0.00000000      -0.00446610       0.00140015       0.00224841
C        0.24937785       4.30905152       3.91818194       0.00000000       0.00176144      -0.00598900      -0.00374520
C       -1.00851118       6.44379540       3.83549793       0.00000000      -0.00303261      -0.00351364      -0.00374716
C       -2.25571959       8.56917204       3.76506557       0.00000000      -0.00145140       0.00186462       0.00696343
C        5.15656214       0.01909222       3.73980225       0.00000000       0.00100220      -0.00176803       0.00658452
C        3.93443946       2.12142337       3.75510204       0.00000000       0.00094957      -0.00333106      -0.00358499
C        2.73864295       4.24417661       3.90053328       0.00000000      -0.00222596      -0.00206118      -0.00131949
C        1.43709219       6.49588679       3.90294799       0.00000000       0.00440926       0.00386073       0.00136323
C        0.19660600       8.59270116       3.75006131       0.00000000       0.00445973       0.00205742       0.00425586
C        7.62374318       0.04114447       3.73818231       0.00000000      -0.00194677      -0.00309226      -0.00170024
C        6.40909537       2.14511812       3.72972665       0.00000000      -0.00148861      -0.00032309       0.00558130
C        5.19429636       4.23367353       3.65516699       0.00000000      -0.00262659      -0.00125750       0.00528296
P        3.89144264       6.41151557       2.51394015       0.00000000      -0.00196379       0.00885123      -0.00575843
C        2.65711794       8.62716921       3.66767886       0.00000000       0.00121900      -0.00244768      -0.00092829
C       10.10347103       0.04376226       3.75742844       0.00000000      -0.00547777      -0.00137129       0.00147633
C        8.87874351       2.17028275       3.77556661       0.00000000       0.00041796       0.00096295       0.00069004
C        7.65377377       4.29090114       3.73574101       0.00000000      -0.00353439       0.00617289       0.00203230
C        6.40649304       6.42487207       3.64726916       0.00000000       0.00111949      -0.00249380      -0.00527534
C        5.16135296       8.57722096       3.66195735       0.00000000      -0.00229953      -0.00096440       0.01043193
C        0.23802148       1.45087330       3.83988652       0.00000000      -0.00379139       0.00237347      -0.00013856
C       -0.98383550       3.60002399       3.86707230       0.00000000       0.00104327       0.00200132      -0.00133315
C       -2.23254765       5.72577707       3.81863956       0.00000000      -0.00385143      -0.00086090      -0.00864182
C       -3.48402909       7.85171045       3.75425902       0.00000000      -0.00267348      -0.00376400       0.00418813
C       -4.71448642       9.98443211       3.77297599       0.00000000       0.00444527      -0.00538416      -0.00017759
C        2.69440946       1.42738192       3.80077100       0.00000000      -0.00257905       0.00375451      -0.00121840
C        1.49484991       3.59001155       3.90737306       0.00000000      -0.00168828      -0.00270017      -0.00655328
C        0.24873729       5.74737275       3.89966141       0.00000000       0.00503243      -0.00508142      -0.00839354
C       -1.02359023       7.86549671       3.78512422       0.00000000      -0.00079071       0.00226610       0.00912661
C       -2.24870152       9.98804969       3.75631762       0.00000000       0.00187105       0.00192896       0.00319338
C        5.16992340       1.43222180       3.73405082       0.00000000       0.00006053      -0.00669786      -0.00183990
C        3.94733265       3.53518748       3.75236245       0.00000000      -0.00489871      -0.00290516       0.00108542
C        1.42730455       7.89644083       3.75509793       0.00000000       0.00436771       0.00509951      -0.00417390
C        0.21763852      10.00766723       3.73432907       0.00000000       0.00115179       0.00086036      -0.00573193
C        7.63981859       1.45276442       3.75054849       0.00000000      -0.00035859      -0.00279717      -0.00339773
C        6.42540683       3.56240005       3.70070701       0.00000000      -0.00365817       0.00171526       0.00251957
C        5.16864889       5.67464703       3.57597361       0.00000000       0.01486957      -0.00404877       0.00121000
C        3.89246167       7.88384470       3.58423491       0.00000000      -0.00057813       0.00726939       0.00603922
C        2.68952697      10.02816859       3.71850629       0.00000000      -0.00380898      -0.00440183       0.00721177
C       10.11243568       1.46138517       3.79785295       0.00000000       0.00020455       0.00021358      -0.00160855
C        8.88420124       3.59121119       3.78379860       0.00000000       0.00261791       0.00506001      -0.00128173
C        7.63568540       5.71728320       3.72601950       0.00000000       0.00053609       0.00462551      -0.00507855
C        6.38232977       7.84803051       3.66977132       0.00000000      -0.00526039      -0.00499557       0.00384759
C        5.16309049       9.99762222       3.74822396       0.00000000      -0.00096880      -0.00097873       0.00018916
Cr       3.23918565       6.03294203       4.56987031       0.00000000       0.01475025       0.01089922      -0.00766073
O       -2.95370170       4.56718140       6.60734956       1.00000000      -0.00913717       0.00310415       0.00459564
O       -3.93555573       5.30253708       6.55243601       1.00000000       0.00856972      -0.00044767       0.00516119
