52
Lattice="12.336457 0.0 0.0 -6.168228499999997 10.683685154694365 0.0 0.0 0.0 15.0" Properties=species:S:1:pos:R:3:initial_magmoms:R:1:forces:R:3 energy=-456.0750427622841 free_energy=-456.0750427622841 stress="-0.0031575147678068742 -8.207123162204824e-05 -6.520449535640229e-06 -8.207123162204824e-05 -0.0065197491593068 1.8406032758444344e-06 -6.520449535640229e-06 1.8406032758444344e-06 -2.5728628230212618e-05" pbc="T T T"
C       -0.11174499      -0.14004336       3.79336819       0.00000000      -0.00203701      -0.00216558      -0.00207905
C       -1.34052647       2.00035380       3.87559531       0.00000000      -0.00674542       0.00295950       0.00413610
C       -2.57616923       4.14351464       3.87080499       0.00000000      -0.00032568       0.00357909       0.00071283
C       -3.80644400       6.27871219       3.80565968       0.00000000       0.00218387      -0.00024818      -0.00131034
C       -5.05416282       8.40789026       3.73101845       0.00000000       0.00339177      -0.00016080      -0.00627580
C        2.35089659      -0.15157647       3.89057180       0.00000000       0.00265738       0.00542333       0.00003820
C        1.12377939       1.97326256       3.92076585       0.00000000      -0.00417187      -0.00106149       0.00048749
C       -0.11641227       4.10251560       3.74864982       0.00000000      -0.00424600       0.00124488       0.00900033
C       -1.34190732       6.28163804       3.66507359       0.00000000       0.00002625      -0.00124158       0.00482536
C       -2.57978533       8.41203866       3.78408358       0.00000000       0.00046846      -0.00227108      -0.00837632
C        4.81905560      -0.12860950       3.89638113       0.00000000      -0.00458939      -0.00470367      -0.01359737
C        3.58378485       1.99278513       3.98862435       0.00000000       0.00297398       0.00374632       0.01003347
C        2.34353438       4.09617900       3.93959630       0.00000000      -0.00421868       0.00535024      -0.00122592
P        0.93645003       6.29832607       2.14710286       0.00000000      -0.00214322      -0.00689337       0.00062597
C       -0.13382362       8.45527736       3.54443414       0.00000000      -0.00094760       0.00133637       0.00585167
C        7.28597512      -0.10212626       3.77732307       0.00000000       0.00285113      -0.00033143       0.00091115
C        6.05630225       2.00941454       3.98139272       0.00000000      -0.00253210      -0.00604219       0.00347809
C        4.83142620       4.12835881       3.83203185       0.00000000       0.00196683      -0.00436252      -0.00313058
P        3.53692318       6.17055218       2.52213471       0.00000000       0.00108963       0.00359382       0.00348170
C        2.36006453       8.53074639       3.29213875       0.00000000       0.00701381       0.00179091      -0.00353844
C        9.76863542      -0.10734240       3.71604509       0.00000000       0.00375588       0.00156334       0.01291662
C        8.52816075       2.01420224       3.91917651       0.00000000      -0.00012892       0.00142091       0.00482391
C        7.29529670       4.14665537       3.91020630       0.00000000       0.00456754       0.00157799      -0.00652153
C        6.06652656       6.27320275       3.61603923       0.00000000      -0.00486756      -0.00254024      -0.00660843
C        4.83335813       8.43737452       3.48673520       0.00000000       0.00230509      -0.00231065       0.00061696
C       -0.10921051       1.27794359       3.86649188       0.00000000      -0.00740184      -0.00181200       0.00374397
C       -1.34406693       3.42106310       3.85219361       0.00000000      -0.00600775       0.00264415       0.00071733
C       -2.56589760       5.57148061       3.80860598       0.00000000       0.00182988       0.00111334       0.00750001
C       -3.81488089       7.70252988       3.77438104       0.00000000       0.00279403      -0.00191535       0.01106053
C       -5.04937210       9.82804556       3.80363292       0.00000000       0.00278858       0.00195440      -0.00189851
C        2.35573529       1.26997725       3.95506880       0.00000000       0.00205336       0.00469256      -0.00423788
C        1.12595369       3.39552243       3.88454780       0.00000000      -0.00223128       0.00137277      -0.01006546
C       -0.09792609       5.53438071       3.50941978       0.00000000      -0.00350284      -0.00285357      -0.00212504
C       -1.34266696       7.70747581       3.66106160       0.00000000      -0.00139234      -0.00139067      -0.00511757
C       -2.58000709       9.83234285       3.86582939       0.00000000      -0.00203342      -0.00309107       0.00249290
C        4.81893225       1.29228534       3.97684236       0.00000000      -0.00384830      -0.00548351       0.00111745
C        3.57359978       3.42467910       3.93851418       0.00000000      -0.00012435       0.00586571      -0.00031522
C        1.10285666       7.80588672       3.19522698       0.00000000       0.00256582       0.00213571      -0.00172785
C       -0.11907853       9.85867713       3.75875121       0.00000000      -0.00162985       0.00127873      -0.00098699
C        7.28981138       1.30541656       3.92014256       0.00000000       0.00041838      -0.00243410      -0.00185631
C        6.06159885       3.42993588       3.94935380       0.00000000       0.00428758      -0.00470380      -0.00193475
C        4.87595769       5.50838216       3.49056158       0.00000000      -0.00652945      -0.00398861       0.00172054
C        3.59208425       7.80898592       3.21688771       0.00000000       0.00385105       0.00195880      -0.01192050
C        2.35580361       9.89860216       3.60149672       0.00000000       0.00638950       0.00443958      -0.00204113
C        9.76357139       1.30240940       3.85676036       0.00000000      -0.00244246       0.00210174      -0.00091167
C        8.52987410       3.43671211       3.92821719       0.00000000       0.00327560       0.00197696      -0.00197844
C        7.29779167       5.56730041       3.80186637       0.00000000      -0.00117362       0.00385609       0.00184463
C        6.05493381       7.70348949       3.58644574       0.00000000      -0.00081296      -0.00129817       0.00117716
C        4.82911867       9.85220584       3.66999736       0.00000000       0.00084610      -0.00277063       0.00419519
Cr       1.90235740       6.03842375       4.13809006       0.00000000       0.00420196       0.00127960      -0.01861783
O        6.49457381       9.28848809       6.54100668       1.00000000       0.01406160      -0.00280325       0.00594719
O        5.36709760       8.82114357       6.40623563       1.00000000      -0.00853110      -0.00137932       0.01494218
