51
Lattice="12.336457 0.0 0.0 -6.168228499999997 10.683685154694365 0.0 0.0 0.0 15.0" Properties=species:S:1:pos:R:3:initial_magmoms:R:1:forces:R:3 energy=-447.35134836991375 free_energy=-447.35134836991375 stress="-0.005658981307727004 -0.002301090823051961 3.3758844611935322e-06 -0.002301090823051961 0.000852916636945551 -1.7725761650211116e-05 3.3758844611935322e-06 -1.7725761650211116e-05 4.068779689384697e-06" pbc="T T T"
C       -0.03718528       0.00117535       3.91456086       0.00000000      -0.00781187       0.00400964      -0.00415014
C       -1.29676440       2.11106924       3.95133668       0.00000000      -0.00135097      -0.00185602       0.00017245
C       -2.52387284       4.25608171       3.92950796       0.00000000      -0.00001792      -0.00069329       0.00136810
C       -3.72617877       6.40902273       3.88393482       0.00000000      -0.00108212      -0.00364432      -0.00113268
C       -4.95870163       8.55847199       3.89120384       0.00000000       0.00150412      -0.00526605      -0.00639514
C        2.43630663       0.01046183       3.84095907       0.00000000      -0.00031309      -0.00261338       0.00615992
C        1.18703868       2.16441634       3.88889722       0.00000000       0.00090586       0.00371585      -0.00012874
C       -0.07266494       4.24193178       4.03185585       0.00000000      -0.00454389      -0.00084484       0.00202396
C       -1.29601232       6.40883118       3.96218976       0.00000000      -0.00519445       0.00478597       0.00418729
C       -2.50131351       8.55110554       3.88684166       0.00000000       0.00304813       0.00181193      -0.00096950
C        4.90203202      -0.01081045       3.71533395       0.00000000       0.00329814       0.00147246      -0.00442525
C        3.64182520       2.07581864       3.37838988       0.00000000      -0.00204015       0.00525748       0.00201522
C        1.13700314       6.37540600       3.96107165       0.00000000      -0.00200101      -0.00490201      -0.01123088
C       -0.02784305       8.51691885       3.84809252       0.00000000       0.00064974      -0.00688693      -0.00053723
C        7.36802788      -0.03347594       3.74761575       0.00000000      -0.00003690      -0.00506279      -0.01109827
C        6.12643209       2.13239024       3.53534589       0.00000000       0.00181040      -0.00361718      -0.00207648
C        4.99736672       4.35611261       3.24913381       0.00000000       0.00030396      -0.00060066       0.00081639
O        3.79771435       6.45378919       3.46337034       0.00000000       0.00581607       0.00401760       0.00180165
C        2.46222219       8.47602028       3.79915679       0.00000000       0.00258600       0.00659457      -0.00238803
C        9.82319252      -0.03420436       3.84819026       0.00000000       0.00276622      -0.00071235       0.00789077
C        8.58440788       2.11477423       3.79552405       0.00000000       0.00562246       0.00116253       0.00112611
C        7.37394452       4.27115945       3.69855525       0.00000000      -0.00882068       0.00509606      -0.00480150
C        6.19001702       6.44221223       3.67652530       0.00000000      -0.00973790      -0.00198228      -0.00189426
C        4.91590322       8.53704133       3.82003912       0.00000000       0.00121104      -0.00458481      -0.00369183
C       -0.04836079       1.42375308       3.93981309       0.00000000      -0.00223072       0.00463343      -0.01052532
C       -1.30868391       3.53066003       3.98882076       0.00000000      -0.00203256      -0.00422868       0.00306064
C       -2.51214599       5.68602258       3.93743057       0.00000000       0.00032135      -0.00057985       0.00468863
C       -3.72556857       7.83831106       3.89902174       0.00000000       0.00537038      -0.00437431       0.00345630
C       -4.96340893       9.98424631       3.90682189       0.00000000      -0.00553056      -0.00119078      -0.00091356
C        2.42959998       1.43707391       3.72723163       0.00000000      -0.00044770      -0.00036002       0.00512709
C        1.13306783       3.54465873       4.01765598       0.00000000       0.00178420       0.00536361       0.00024854
C       -0.06708984       5.69003609       4.00288359       0.00000000      -0.00790701       0.00180774      -0.00141510
C       -1.27288922       7.82973202       3.90209589       0.00000000      -0.00180795       0.00230046       0.00817440
C       -2.49966205       9.97500870       3.81695798       0.00000000       0.00456894       0.00121342       0.00322611
C        4.89368134       1.41564678       3.52957314       0.00000000      -0.00001379       0.00337802      -0.00361250
S        3.57070821       3.61057860       2.52682965       0.00000000       0.01885714      -0.00624452       0.00193984
C        1.20667126       7.75594309       3.86448206       0.00000000       0.00485210      -0.00099242       0.00447349
C       -0.03156694       9.94456819       3.76542087       0.00000000      -0.00048284      -0.00765914       0.00083822
C        7.34966660       1.40534320       3.69233744       0.00000000       0.00673991      -0.00459614      -0.00349448
C        6.15050041       3.56654648       3.48479267       0.00000000      -0.00511188      -0.00217420       0.00538885
C        5.02182216       5.75245470       3.40912547       0.00000000      -0.00425964       0.00050266      -0.00251447
C        3.71391616       7.83386760       3.74567864       0.00000000       0.00206382       0.00143047      -0.00259823
C        2.43520223       9.91714115       3.79792800       0.00000000       0.00248710       0.00465618       0.00577393
C        9.80994360       1.39531905       3.87545506       0.00000000       0.00370570      -0.00212706      -0.00157914
C        8.59014604       3.54361747       3.81853930       0.00000000      -0.00397293       0.00547760       0.00278899
C        7.39502999       5.69410639       3.76412362       0.00000000      -0.00961775       0.00420470      -0.00250020
C        6.16280921       7.85328843       3.81494500       0.00000000      -0.00079772      -0.00500883      -0.00429998
C        4.89713704       9.96155799       3.87900737       0.00000000      -0.00298215      -0.00442905      -0.00000906
Cr       2.58943340       4.93491199       4.14952884       0.00000000       0.00119918      -0.00134950       0.01774999
O        2.83667681       5.48497506       5.99889618       1.00000000       0.00670413       0.00025924      -0.00136585
O        3.58530090       4.38861967       5.73310303       1.00000000       0.00197009       0.01542980      -0.00474910
