52
Lattice="12.336457 0.0 0.0 -6.168228499999997 10.683685154694365 0.0 0.0 0.0 15.0" Properties=species:S:1:pos:R:3:forces:R:3 energy=-451.43065706120103 free_energy=-451.43065706120103 stress="-0.006296242425538502 0.002951038345558071 2.4424088672735826e-05 0.002951038345558071 0.0003981275464645496 -1.2344616304253493e-05 2.4424088672735826e-05 -1.2344616304253493e-05 1.916260004787274e-05" pbc="T T T"
C       -0.00202048      -0.00878902       3.82340328       0.00381227      -0.00087927      -0.00215743
C       -1.23291837       2.11701482       3.93438443       0.00154840       0.00401286      -0.00704200
C       -2.45688888       4.25895202       3.89488082      -0.00691709      -0.00319588      -0.00097336
C       -3.69793168       6.39618069       3.76110666      -0.00418082       0.00526163      -0.00561023
C       -4.95155564       8.53509272       3.69081316       0.01016050       0.00232961       0.00492445
C        2.46060680       0.01271582       3.84464948      -0.00103089      -0.00613220      -0.00253305
C        1.23356009       2.17621915       3.93340120      -0.00172032      -0.00118502       0.00714100
C       -0.00509683       4.28167175       4.02273040       0.00260117      -0.00174285      -0.00009046
C       -1.25827261       6.41699838       3.96188850      -0.00203512      -0.00073609      -0.00716272
C       -2.48190885       8.54501187       3.86487547       0.00554894      -0.00428917       0.00128570
C        4.93540232      -0.01057731       3.89018338      -0.00599505      -0.00359665      -0.00587674
C        3.72639522       2.14752941       3.80917338      -0.00146923      -0.00210163      -0.00020816
O        1.10785860       6.45289005       4.16740893       0.01215159      -0.01265942      -0.00424523
C       -0.01633768       8.52556953       3.94771429       0.00052124       0.00473239      -0.00555849
C        7.40960759      -0.04164398       3.92844398       0.00239827      -0.00029096      -0.00132824
C        6.20452774       2.09017993       3.79205334       0.00563733       0.01171329       0.00534699
C        5.02456581       4.20389157       3.47800157      -0.00596907      -0.00194906       0.00668514
S        3.58085289       6.31599509       2.61834446       0.00336785      -0.00105580      -0.00055373
C        2.43907173       8.48250602       3.80322829      -0.00712269      -0.00013888      -0.00073918
C        9.86865400      -0.03979686       3.87598602       0.00079127       0.00572384      -0.00076717
C        8.65390809       2.10372498       3.88188276       0.00111182      -0.00787723       0.00014854
C        7.44773756       4.24218174       3.68347703       0.00576501      -0.00013470       0.00842676
C        6.20240606       6.38560124       3.42917533       0.00048692      -0.00399199       0.00483446
C        4.91744299       8.51662438       3.57851607      -0.00000138       0.00355104       0.00081619
C       -0.00174357       1.41780822       3.90736086      -0.00032209      -0.00021292       0.00283249
C       -1.24098287       3.54441851       3.96093224      -0.00146557       0.00240218      -0.00293976
C       -2.47436386       5.68333348       3.87974251      -0.00898507       0.00184645      -0.00516365
C       -3.71380770       7.82567870       3.76714904       0.00622444       0.00331319       0.00658768
C       -4.93950238       9.96861197       3.78592089       0.00232694       0.00015197      -0.00148125
C        2.47170682       1.44510682       3.87577958      -0.00364391      -0.00441269      -0.00755675
C        1.19343397       3.57398281       4.02472851       0.01332598       0.00443642      -0.00505906
C       -0.06908738       5.71024639       4.03592498      -0.00327025      -0.00484892       0.00540685
C       -1.26194818       7.83580232       3.93881132       0.00409414      -0.00011524      -0.00202698
C       -2.47817697       9.97547953       3.86589432      -0.00470997      -0.00898374       0.00556501
C        4.95919089       1.40547015       3.83152073       0.00480071       0.00113042      -0.00937330
C        3.81388998       3.53696492       3.69839872      -0.01219934      -0.00124955       0.00187531
C        1.18218549       7.82944155       3.92292675      -0.00316544       0.00010526       0.00115835
C       -0.00094111       9.95282226       3.92589148      -0.00103615       0.00572706      -0.00124583
C        7.42756325       1.38192014       3.87806407       0.00058838       0.00081639       0.00249144
C        6.24398710       3.49998448       3.63841090       0.00173780       0.01054845       0.00032543
C        5.05785171       5.60848061       3.21284754      -0.00151669      -0.00613047       0.01156459
C        3.67052981       7.85031428       3.46166678      -0.00405616      -0.00138850       0.00844396
C        2.46409064       9.91997176       3.89920496       0.00135743       0.00173924       0.00025325
C        9.87461297       1.38950000       3.91398476       0.00481251       0.00089160      -0.00223928
C        8.66179111       3.53218303       3.82672953      -0.00056323      -0.01155306       0.00534069
C        7.43045902       5.67022964       3.62436345       0.00345969      -0.00117652      -0.00511767
C        6.16300589       7.81490301       3.52939801       0.00686892       0.00174565       0.00238040
C        4.93249727       9.94548573       3.77715899       0.00238749       0.00463051       0.00033811
Cr       2.62284542       4.97353456       4.23298013      -0.00457787       0.00431495       0.00143036
O        3.26725607       5.89319108       5.76290768      -0.01034485       0.00673737      -0.00475186
O        2.12224445       5.14072191       6.35732913      -0.01334474       0.00426118      -0.00507954
H        2.60019372       4.57104911       6.99133788       0.00175596      -0.00009453       0.00127797
