51
Lattice="12.336457 0.0 0.0 -6.168228499999997 10.683685154694365 0.0 0.0 0.0 15.0" Properties=species:S:1:pos:R:3:initial_magmoms:R:1:forces:R:3 energy=-449.4129357946216 free_energy=-449.4129357946216 stress="-0.0041808793050475725 0.0007751111926054302 -5.973873975771382e-06 0.0007751111926054302 0.005344897135284216 2.2639335730840225e-05 -5.973873975771382e-06 2.2639335730840225e-05 -1.329605087181896e-05" pbc="T T T"
C        0.00983368       0.01422270       3.68821781       0.00000000       0.00128719       0.00157742       0.00687629
C       -1.23549393       2.12817596       3.66049636       0.00000000       0.00583622       0.00222471      -0.00025377
C       -2.46223929       4.26874427       3.63138117       0.00000000       0.00183118      -0.00288749      -0.01139850
C       -3.68697843       6.41590467       3.63905411       0.00000000      -0.00589194      -0.01075480      -0.00059301
C       -4.91607514       8.57170126       3.66739078       0.00000000      -0.00950120      -0.00344972       0.00779980
C        2.47768382       0.05857796       3.71461567       0.00000000      -0.00178834       0.00103696      -0.00563152
C        1.21742003       2.21230687       3.74466596       0.00000000      -0.00378358       0.00338171       0.00523120
C       -0.01962360       4.27340806       3.67134639       0.00000000       0.00474951      -0.00044583       0.00806496
C       -1.24271953       6.41343650       3.64501430       0.00000000       0.00460616       0.01008309      -0.00734331
C       -2.46107938       8.56204185       3.67362756       0.00000000      -0.00023182       0.00663504       0.00274115
C        4.93932771       0.00451202       3.72504684       0.00000000       0.00624013       0.00980324      -0.00107930
C        3.73993972       2.13337858       3.76012969       0.00000000      -0.00747075       0.00025914       0.00424535
O        1.13071662       6.42163486       3.65786816       0.00000000      -0.00694283      -0.00022902      -0.00057146
C       -0.00218555       8.52734360       3.70835743       0.00000000       0.00829604       0.00248173      -0.00378106
C        7.41398057      -0.03711394       3.71541499       0.00000000      -0.00745227      -0.00045388       0.00362736
C        6.19193600       2.11835421       3.71720725       0.00000000      -0.00021196       0.00199390      -0.00363365
C        5.01786245       4.26203764       3.74689158       0.00000000       0.00462953       0.00525156       0.00011187
C        3.79654275       6.37909209       3.86679873       0.00000000       0.00695940       0.00820151      -0.00574674
C        2.44816918       8.46894395       3.75750215       0.00000000      -0.00582613       0.00026305      -0.00518600
C        9.86834693      -0.03522703       3.69941142       0.00000000       0.00607642      -0.01139757       0.00202780
C        8.64427054       2.11643276       3.67026181       0.00000000       0.00154642      -0.00172652       0.00746198
C        7.42551068       4.26728784       3.67010765       0.00000000      -0.00804094       0.00484464      -0.00275522
C        6.21657795       6.41589279       3.67192866       0.00000000      -0.00223151       0.00417069       0.00161729
C        4.94482135       8.52886166       3.71600086       0.00000000       0.00256610      -0.01135517      -0.00401117
C        0.00850287       1.44622312       3.68901158       0.00000000       0.00295462       0.00381564       0.00302751
C       -1.24187343       3.55183416       3.63519606       0.00000000       0.00527461       0.00088903      -0.00346109
C       -2.46810098       5.69152989       3.63276908       0.00000000       0.00676961      -0.00045551       0.00210086
C       -3.69346202       7.84856407       3.65405114       0.00000000      -0.00602760      -0.00657069       0.00166150
C       -4.91814162      10.00397682       3.68932121       0.00000000      -0.00390218      -0.00011584       0.00179095
C        2.48777454       1.50696487       3.75168761       0.00000000      -0.01044136      -0.00097025       0.00179813
N        1.16156169       3.57956863       3.80694359       0.00000000      -0.00001239       0.00193029       0.00504572
C       -0.05842915       5.69676116       3.65702744       0.00000000      -0.00094607       0.00227248      -0.00222458
C       -1.24301481       7.84171513       3.67270507       0.00000000       0.00711389       0.01293438       0.00094002
C       -2.46776514      10.00351933       3.70621319       0.00000000       0.00585289       0.01057800       0.00236091
C        4.94444411       1.43613204       3.73962435       0.00000000      -0.00335613       0.00807819      -0.00191804
O        3.80353032       3.54928094       3.67131517       0.00000000       0.00818610      -0.01371342      -0.00876129
C        1.20042684       7.81715801       3.72650114       0.00000000       0.00002935      -0.01013896      -0.00175801
C        0.00726542       9.95821263       3.71971198       0.00000000      -0.00037842       0.00116816       0.00575035
C        7.41045533       1.40192928       3.69881854       0.00000000      -0.00284213      -0.00109565       0.00477689
C        6.19539199       3.54108071       3.70948729       0.00000000       0.00039713       0.00170377       0.00155584
C        4.98243506       5.67816905       3.74670637       0.00000000       0.00462836       0.01089031       0.00114964
C        3.71459499       7.75445215       3.78050661       0.00000000      -0.00311414       0.00305460      -0.00190094
C        2.46720275       9.91055945       3.72339121       0.00000000      -0.00634839      -0.00123946       0.00170545
C        9.87209099       1.39812473       3.67038873       0.00000000       0.00908120      -0.00507571       0.00597716
C        8.64420841       3.54695626       3.65304366       0.00000000      -0.00591735       0.00220858      -0.01096373
C        7.42593526       5.69328708       3.65201742       0.00000000      -0.01344276       0.00092639      -0.00578782
C        6.19245486       7.84141224       3.67859991       0.00000000      -0.00212667      -0.00477324      -0.00027126
C        4.94247466       9.95711684       3.69795321       0.00000000       0.00728339      -0.01307912      -0.00162745
Cr       2.55981761       4.84171657       4.37059445       0.00000000       0.00116900      -0.00323581      -0.01277362
O        2.68005284       4.41267634       6.23604899       1.00000000      -0.00126881      -0.00212185       0.00650866
O        1.82838269       5.48488473       6.02697366       1.00000000       0.00613324      -0.01737270       0.00747788
