52
Lattice="12.336457 0.0 0.0 -6.168228499999997 10.683685154694365 0.0 0.0 0.0 15.0" Properties=species:S:1:pos:R:3:forces:R:3 energy=-455.1534840480847 free_energy=-455.1534840480847 stress="-0.00922485156124421 -0.001464764455969004 2.5581095997234065e-05 -0.001464764455969004 -0.0031842363369418833 9.709125495218809e-06 2.5581095997234065e-05 9.709125495218809e-06 -6.808809029385619e-06" pbc="T T T"
C        0.00997133      -0.00297113       3.89011434      -0.00251511      -0.00472222      -0.00630692
C       -1.24262772       2.11179237       3.92288992      -0.00725639      -0.00223744      -0.00878608
C       -2.46928596       4.25998958       3.92127674       0.00461224      -0.00286150       0.00519066
C       -3.67601442       6.41027425       3.87308444       0.00710517       0.00058088      -0.00737313
C       -4.90470410       8.55939584       3.86907370      -0.00107132       0.00916592       0.00209650
C        2.48099291       0.00420565       3.84680408       0.00536329      -0.01044285       0.00696892
C        1.23086426       2.14953794       3.83117447      -0.00891192       0.00780533       0.00143554
C       -0.02614268       4.24708043       3.98835546      -0.00709497      -0.00277671       0.00276357
C       -1.24842965       6.41466188       4.01247963       0.00929492       0.00617082      -0.00622427
C       -2.45549445       8.55456364       3.92969939      -0.00126256       0.00156101       0.00009765
C        4.95056805      -0.00722094       3.77163277       0.00150510       0.00242759       0.00252670
C        3.70119785       2.08134928       3.44714741       0.00250989      -0.01422133      -0.01162719
C        1.18224553       6.39759740       4.05974049      -0.00594722      -0.00400075       0.00292866
C        0.00705786       8.53480947       3.94652218      -0.00121574      -0.00307938      -0.01133771
C        7.41492703      -0.02371473       3.80991784      -0.00874163      -0.00395258      -0.00362363
C        6.19038872       2.11932189       3.55948763       0.01192048       0.00598157       0.00237555
C        5.05516593       4.31229279       3.26880963      -0.00730903       0.00524606       0.00780889
C        3.81483287       6.41980857       3.59999414      -0.01289197      -0.00420704       0.00025318
C        2.48411910       8.51239692       3.87148707       0.00741306       0.00559424      -0.00526785
C        9.87476836      -0.02601388       3.86199974       0.00362934       0.00518921       0.00393018
C        8.64099336       2.11635583       3.80384995       0.00132649      -0.00352440      -0.00524492
C        7.43907853       4.26803660       3.67512025       0.00112042      -0.00525831      -0.00861776
C        6.24734365       6.43905584       3.63960568      -0.00027992       0.00396506       0.00620846
C        4.96674439       8.54325529       3.79884574       0.00017989      -0.00522934      -0.00503902
C       -0.00277611       1.41545005       3.89965353      -0.01038268      -0.00164679      -0.00054788
C       -1.25557955       3.53441220       3.95972524      -0.00117169      -0.00630524      -0.00191891
C       -2.46301476       5.68972886       3.94823228       0.01367287       0.00300063      -0.00537826
C       -3.67896133       7.83919828       3.90127582      -0.00421375       0.00662611       0.00082654
C       -4.91660157       9.97794996       3.88954981       0.00011889       0.00389558       0.00293958
C        2.47306357       1.41943364       3.72234086      -0.00354017      -0.00783371       0.00527324
C        1.17736609       3.54574405       3.88269262       0.00605919       0.01527254       0.00699901
C       -0.02353839       5.69983501       4.04138472      -0.00484608      -0.00658348       0.00064509
C       -1.22919492       7.83792932       3.97740209      -0.00069521       0.00300227      -0.00497698
C       -2.45254688       9.97553707       3.85649838       0.00606554      -0.00293256       0.00547451
C        4.95276271       1.40984666       3.57453956       0.01388964       0.00158628      -0.00335157
P        3.58695416       3.61801626       2.57560530       0.00121809       0.00750428       0.00142488
C        1.24372209       7.79180008       3.96489806       0.00458523      -0.00328759       0.00160441
C        0.01203951       9.95499342       3.84355989      -0.00913404      -0.00235671       0.00710347
C        7.41068061       1.40342747       3.72384186       0.00297996      -0.00281024      -0.00122538
C        6.22196826       3.54839435       3.47400978      -0.00369823       0.00346916       0.00458938
C        5.03325914       5.74272818       3.45943858      -0.00525383       0.00610467       0.00399380
C        3.73245521       7.80533155       3.75997742       0.00131025      -0.00288269       0.00046645
C        2.47673397       9.93628071       3.85287775       0.00111669       0.01057227       0.00302450
C        9.86543235       1.39698268       3.87433067      -0.00112468       0.00035973       0.00449220
C        8.64585738       3.54704542       3.80901028       0.00281557      -0.00517871      -0.00040668
C        7.44919980       5.69797185       3.72476390       0.00483189      -0.00143043      -0.00334123
C        6.20970742       7.84973258       3.77765152       0.00317208       0.00626323      -0.00536427
C        4.94883591       9.95833188       3.86462402       0.00079182      -0.00619154       0.00508197
Cr       2.60186943       4.96398937       4.18080934       0.00665423      -0.00017849       0.00623289
O        3.22100488       4.56538037       5.96153767      -0.00333905      -0.00680646      -0.01164611
O        2.07541383       4.83082462       6.83895247      -0.00203675      -0.00179594       0.00478565
H        2.40927322       5.61662014       7.31669389      -0.01132830       0.00339000       0.00806371
