52
Lattice="12.336457 0.0 0.0 -6.168228499999997 10.683685154694365 0.0 0.0 0.0 15.0" Properties=species:S:1:pos:R:3:forces:R:3 energy=-448.94895544480585 free_energy=-448.94895544480585 stress="-0.005756007381653108 -0.0014377270100403563 3.7275195535957025e-07 -0.0014377270100403563 0.0022182257936452384 -2.3800124298538204e-05 3.7275195535957025e-07 -2.3800124298538204e-05 6.463452352188412e-06" pbc="T T T"
C       -0.02186429       0.04637930       3.92390858      -0.00458196       0.00413044      -0.00485621
C       -1.27345118       2.16868849       3.95275282       0.00414351       0.00408525       0.00611999
C       -2.48974876       4.31540726       3.91674773       0.00212537      -0.00141137      -0.00290575
C       -3.69926234       6.46163400       3.86753011       0.00195818       0.00098088      -0.00871585
C       -4.93469697       8.61299699       3.88634283       0.00065249       0.00375161       0.00314903
C        2.44178770       0.07912102       3.89957089       0.00528623       0.00184880      -0.00619827
C        1.17034269       2.18187276       3.90998475       0.00399561      -0.00124423       0.00258606
C       -0.08158359       4.31800237       4.04359430      -0.00156955       0.00014898       0.00500686
C       -1.25983941       6.45365211       4.00237675      -0.00261888      -0.00529853       0.00153913
C       -2.47686085       8.60338673       3.94344765       0.00557174       0.00382703       0.00898549
C        4.91552741       0.05037808       3.80209517       0.00747909       0.00009128      -0.00088929
C        3.66469422       2.15392484       3.47224922      -0.00756718       0.00344198      -0.00533782
O        1.11396555       6.47428329       4.17414342       0.01225963       0.00157265      -0.00351933
C       -0.01952093       8.57639704       3.95416795      -0.00257889      -0.00697365       0.00801655
C        7.38251498       0.01940387       3.82521561      -0.00265382      -0.00193146       0.00564559
C        6.16020718       2.17186615       3.56799575      -0.00914830      -0.00430258       0.00334729
C        5.03348277       4.36628870       3.25062918       0.00384621      -0.00151728       0.00042539
C        3.78895666       6.46556119       3.57047414       0.00207419      -0.00143688      -0.00403601
C        2.42700030       8.52784865       3.88855287      -0.00340112      -0.00273877      -0.00271421
C        9.83824023       0.01421071       3.88702152      -0.00692670      -0.00404315      -0.00055442
C        8.61086131       2.16577041       3.81333399      -0.00041463       0.00488538      -0.00541018
C        7.41413348       4.31896560       3.66923836       0.00023827       0.00224694      -0.00423784
C        6.22299813       6.48995634       3.63686296       0.00231413       0.00453117      -0.00677879
C        4.92517464       8.58113685       3.81431854      -0.00212646      -0.00274082       0.00288708
C       -0.03129091       1.47721685       3.94488592       0.00181261       0.00317634       0.00374266
C       -1.27196930       3.59412737       3.97811130       0.00049786       0.00068674      -0.00508799
C       -2.48143363       5.73495979       3.93614847      -0.00134080      -0.00443586      -0.00009436
C       -3.70841784       7.89184711       3.90911130       0.00368325       0.00455652      -0.00025461
C       -4.94818021      10.03921956       3.92691203      -0.00213729       0.00609851       0.00233070
C        2.42104064       1.51434063       3.78903478       0.00031530       0.00068972      -0.00538729
O        1.10355305       3.56762162       4.17628480      -0.00397985      -0.00443383      -0.00291490
C       -0.07511855       5.72683144       4.05335028      -0.00130837      -0.00053332       0.00401977
C       -1.25736000       7.88218280       3.97894862      -0.00183438      -0.00629617       0.00421188
C       -2.49000622      10.03853258       3.89306653       0.01000890       0.00374996       0.00097975
C        4.91058222       1.47210527       3.59903640      -0.00858620       0.00067826       0.00900758
P        3.60567095       3.64130527       2.49974069       0.00413936      -0.01071617      -0.00297576
C        1.18452733       7.86708026       3.98031147       0.00067018       0.00006577       0.00492261
C       -0.01965011      10.00840959       3.85930041       0.00343434      -0.00739028       0.00219610
C        7.37993667       1.45399728       3.73498368      -0.00440450       0.00185980       0.00263157
C        6.19612091       3.60060731       3.47249000       0.00021819      -0.00359703      -0.00007094
C        5.01404999       5.79486720       3.43866413       0.00245924      -0.00113160       0.01026392
C        3.69536606       7.83427893       3.76437199      -0.00191479      -0.00094403      -0.00518534
C        2.43646638       9.96889886       3.87321813      -0.00723574      -0.00530095       0.00260072
C        9.84328613       1.44979026       3.89589590       0.00192521       0.00031922      -0.00116804
C        8.62020409       3.59666582       3.80688906       0.00047100       0.00520926      -0.00592062
C        7.42548349       5.74871324       3.71901250       0.00094843       0.00380577      -0.00463863
C        6.17974602       7.90005373       3.78725229       0.00063567       0.00274406      -0.00111252
C        4.91475659      10.00217748       3.89036658      -0.00511508      -0.00330463       0.00775594
Cr       2.58530263       5.03001933       4.08963526      -0.00073588       0.00219042      -0.00652292
O        2.38069115       5.06899971       5.98750495      -0.00504025      -0.00214002       0.00932957
O        2.82205089       3.71576947       6.25713192       0.00383548      -0.00076535      -0.00949886
H        3.56947917       3.88647064       6.86244909       0.00022094       0.01325521      -0.00471450
