51
Lattice="12.336457 0.0 0.0 -6.168228499999997 10.683685154694365 0.0 0.0 0.0 15.0" Properties=species:S:1:pos:R:3:initial_magmoms:R:1:forces:R:3 energy=-452.51397439652175 free_energy=-452.51397439652175 stress="-0.005021818241044339 -0.000530833537018783 -7.8276670538018e-06 -0.000530833537018783 0.003987756704073971 -9.332368853486557e-06 -7.8276670538018e-06 -9.332368853486557e-06 -3.65275789356664e-07" pbc="T T T"
C       -0.01531833      -0.00322626       3.76243759       0.00000000      -0.00598701       0.00612549      -0.00042071
C       -1.26591732       2.10725027       3.72681909       0.00000000      -0.00578933      -0.00397964       0.00410674
C       -2.49612298       4.25246809       3.61824508       0.00000000       0.00470817      -0.00063580       0.00779907
C       -3.71812898       6.40126566       3.60049462       0.00000000       0.00377713      -0.00021791       0.00517370
C       -4.94806313       8.54991180       3.68571604       0.00000000      -0.00498106      -0.00193166      -0.00119466
C        2.45425690       0.02540403       3.73851061       0.00000000      -0.00429463      -0.00288549       0.00158467
C        1.20723980       2.17012532       3.85297947       0.00000000       0.00271144       0.00366315       0.00099814
C       -0.05075716       4.25779865       3.78831657       0.00000000       0.00300521       0.00312803      -0.00129958
C       -1.27437265       6.40991160       3.63764445       0.00000000       0.00155563       0.00312776       0.00019553
C       -2.48724265       8.55125117       3.65463079       0.00000000      -0.00131344      -0.00010629      -0.00290975
C        4.92503898      -0.00988887       3.67289213       0.00000000       0.00879649       0.00487731       0.00898091
C        3.69813186       2.17839237       3.73369034       0.00000000      -0.00153064       0.00637571       0.00127533
N        1.13320227       6.37104959       3.78759320       0.00000000      -0.00235940      -0.00323052      -0.00575927
C       -0.01102502       8.50434820       3.68658008       0.00000000       0.00054211      -0.00612198      -0.00698044
C        7.39815692      -0.05414419       3.68063986       0.00000000       0.00296652      -0.00046853      -0.00292879
C        6.16941653       2.10811414       3.61468774       0.00000000       0.00201803      -0.00054338       0.00429557
C        4.93957038       4.27328078       3.63709685       0.00000000       0.00422958      -0.00536164      -0.00436053
O        3.79284391       6.40867912       3.81088876       0.00000000       0.00094461      -0.00031190       0.00103120
C        2.46755089       8.44175285       3.77054106       0.00000000      -0.00674891       0.00385762      -0.00152266
C        9.84627438      -0.05195274       3.73053590       0.00000000       0.00353331      -0.00626477      -0.00245141
C        8.62036523       2.09940112       3.63363868       0.00000000      -0.00514701      -0.00003815      -0.00132255
C        7.39530434       4.25369903       3.57344382       0.00000000      -0.00438410       0.00560369      -0.01051670
C        6.17170608       6.41110665       3.61862537       0.00000000       0.00117540      -0.00097819       0.00075243
C        4.92554460       8.51898144       3.75058030       0.00000000      -0.00009211      -0.00375694       0.00111144
C       -0.02651729       1.42006688       3.78691826       0.00000000      -0.00095157       0.00537852       0.00579468
C       -1.27863451       3.53315148       3.69629423       0.00000000       0.00356976      -0.00338306       0.00639778
C       -2.49349651       5.68242557       3.60605884       0.00000000       0.00552726       0.00177814       0.00875187
C       -3.71563041       7.83284797       3.64186298       0.00000000      -0.00198677      -0.00136878      -0.00469146
C       -4.94328304       9.98257702       3.73711265       0.00000000      -0.00964609      -0.00088176      -0.00070589
C        2.45284697       1.45752523       3.79528585       0.00000000       0.00030918       0.00155927      -0.00336489
C        1.14145200       3.56997330       3.94391072       0.00000000      -0.00330450       0.00059878       0.00594685
C       -0.05235005       5.70850253       3.72195955       0.00000000      -0.00059171       0.00088854      -0.00415115
C       -1.26019430       7.82731816       3.65151095       0.00000000      -0.00163426       0.00036752      -0.00827552
C       -2.48488556       9.97986135       3.68736326       0.00000000       0.00442010       0.00266801       0.00941558
C        4.93315353       1.41477999       3.66448960       0.00000000       0.00084917       0.00811610       0.00634154
C        3.74672414       3.57374702       3.75381404       0.00000000       0.00218963       0.00350011       0.01627958
C        1.19913955       7.74042047       3.74331499       0.00000000      -0.00248092      -0.00453132      -0.00359100
C       -0.00923846       9.93481994       3.67715828       0.00000000       0.00671723      -0.00507586      -0.00615559
C        7.39851616       1.37771064       3.63476528       0.00000000      -0.00195223      -0.00306772       0.00201211
C        6.17875968       3.53502526       3.58163416       0.00000000       0.00183358      -0.00345949      -0.00889943
C        4.98815387       5.69615684       3.64395211       0.00000000       0.00416250      -0.00563029       0.00101733
C        3.72305042       7.81302990       3.79185299       0.00000000      -0.00574316       0.00371710      -0.00560988
C        2.45645221       9.88990709       3.72689698       0.00000000       0.00235110       0.00257958      -0.00552380
C        9.84375051       1.38156729       3.69252043       0.00000000      -0.00678403      -0.00530431       0.00315446
C        8.62039436       3.53194219       3.59627417       0.00000000      -0.00218114       0.00549478       0.00287292
C        7.39802964       5.68096547       3.58713878       0.00000000      -0.00092119       0.00489154      -0.00113137
C        6.16914564       7.83315010       3.68772529       0.00000000      -0.00165143      -0.00323027      -0.00065795
C        4.91910250       9.94914530       3.75343845       0.00000000       0.00177532      -0.00470408      -0.00095880
Cr       2.44852160       4.97761992       4.36950195       0.00000000       0.00146125      -0.01110060      -0.01309872
O        2.26333822       5.74609800       6.12452771       1.00000000       0.00558754       0.00588410      -0.00030672
O        3.26687430       4.85277709       6.14119568       1.00000000       0.00173938       0.00438946       0.00349978
