52
Lattice="12.336457 0.0 0.0 -6.168228499999997 10.683685154694365 0.0 0.0 0.0 15.0" Properties=species:S:1:pos:R:3:forces:R:3 energy=-450.60100509760537 free_energy=-450.60100509760537 stress="-0.0020719462578709996 0.003563362377931854 -1.2295715939538851e-05 0.003563362377931854 0.0022144435779951105 5.069666011153422e-06 -1.2295715939538851e-05 5.069666011153422e-06 -8.671097881147634e-06" pbc="T T T"
C        0.03479109      -0.04544504       3.71762851      -0.01168974       0.00181562       0.00576747
C       -1.18837012       2.10305901       3.63617068      -0.00584501      -0.00042173      -0.00302115
C       -2.43156324       4.23842525       3.82270374       0.00435085       0.00491293       0.00753533
C       -3.68317761       6.37344409       3.92342940       0.00331615       0.00351257       0.00108492
C       -4.90886012       8.51125264       3.87092801       0.00178665       0.00736540       0.00432696
C        2.50991701      -0.01190380       3.77434540      -0.00334715      -0.00638718      -0.00549976
C        1.29156171       2.07951921       3.41504491       0.00397731      -0.00703459      -0.01076258
C        0.00056251       4.30758565       3.57177290       0.00241626       0.00614586       0.00289357
C       -1.23422164       6.40192960       3.89255859       0.00284334      -0.00059186       0.00764607
C       -2.44656539       8.52100525       3.88198961       0.00401308      -0.00138311       0.00550039
C        4.97020917      -0.03553793       3.82925919       0.00326988      -0.00281290       0.00773513
C        3.79441083       2.09489653       3.68828255       0.00198522       0.00891640      -0.00607155
O        1.16564907       6.43129312       3.56440395      -0.00640787       0.00086175      -0.00224750
C        0.01799928       8.51372275       3.79407019      -0.00754978      -0.00481342       0.00050520
C        7.44811025      -0.06075687       3.80820506       0.00836568      -0.00100119       0.00205441
C        6.22949538       2.08292117       3.86799023      -0.00507035      -0.00451069      -0.00535370
C        5.00747688       4.18868823       3.92652816       0.00075366      -0.00683993       0.01407638
C        3.75305201       6.34083912       4.22125322      -0.00991412       0.00097328       0.00397905
C        2.47691970       8.45303293       3.82334774      -0.00151007       0.00352403       0.01395776
C        9.90488642      -0.06094876       3.76460880       0.00691605      -0.00056619       0.00741803
C        8.68791989       2.08776816       3.81402048      -0.00270544       0.00115149       0.00670665
C        7.44624149       4.22832735       3.92944749       0.00058811      -0.00481509      -0.00534068
C        6.18816812       6.35083313       3.95540378      -0.00813856      -0.00364639      -0.00449162
C        4.95459786       8.47728953       3.87230705       0.00285015      -0.00003268       0.01414209
C        0.04942388       1.38811070       3.58020430      -0.00633659      -0.00188106      -0.00908381
C       -1.20252426       3.53509776       3.66530734       0.00006207       0.00295484       0.00600154
C       -2.45461494       5.66276167       3.89428911       0.00527275       0.00522169      -0.00653330
C       -3.68310276       7.80116872       3.90315814       0.00475157       0.00563104       0.00154950
C       -4.89829151       9.93907559       3.78962004      -0.01119541       0.00456245      -0.00181067
C        2.53831918       1.41574852       3.62646052       0.00526994      -0.00336877       0.00124952
P        1.37767420       3.68482291       2.71189482       0.00809737       0.00457726       0.00051885
C       -0.03704673       5.71341592       3.77153672       0.00212254       0.00499388       0.00257168
C       -1.22756160       7.81876138       3.87017656      -0.00435715      -0.00718748      -0.00457096
C       -2.43844625       9.95187174       3.83997883       0.00193372      -0.00443723      -0.00745130
C        4.98726823       1.39075649       3.81427877      -0.00433743       0.00042317      -0.00747811
O        3.85394859       3.47744351       3.66082355       0.00331642       0.00669511      -0.00741996
C        1.22539756       7.82586615       3.71851997      -0.00563618       0.00496689      -0.00159597
C        0.03761474       9.93377606       3.82056213       0.00579942      -0.00446647      -0.00778110
C        7.45168083       1.37401836       3.83833907      -0.00256148       0.00021098      -0.00700715
C        6.22053035       3.50258021       3.92646233       0.00027961      -0.00850684      -0.00126937
C        4.93535428       5.62036428       4.03091777      -0.01123869      -0.00710551      -0.00207516
C        3.72002604       7.70984215       3.96726878      -0.00056642       0.00158346      -0.00407420
C        2.50162383       9.89235051       3.79341819       0.01010130       0.00342522      -0.00155969
C        9.91883523       1.37453200       3.73682501      -0.00369785      -0.00217201       0.00482549
C        8.67917988       3.51688462       3.86172299       0.00395207       0.00203321      -0.00084255
C        7.42258462       5.65117470       3.94078838      -0.00167999      -0.00162631      -0.01925870
C        6.19144592       7.77905318       3.90407128       0.00303041       0.00132727      -0.00445682
C        4.96741385       9.90993316       3.77649870       0.00037179      -0.00286141       0.01412839
Cr       2.08574000       5.35362598       5.06884777       0.00181535       0.00354014      -0.00128640
O        2.44834414       3.97508223       5.81473082       0.00529081      -0.00125674       0.00309905
O        1.39147956       6.53694401       6.25313382      -0.00793795      -0.00220694      -0.01181044
H        1.43302251       6.30724729       7.20305141       0.01282368       0.00060777       0.01088076
