51
Lattice="12.336457 0.0 0.0 -6.168228499999997 10.683685154694365 0.0 0.0 0.0 15.0" Properties=species:S:1:pos:R:3:initial_magmoms:R:1:forces:R:3 energy=-447.08052106287863 free_energy=-447.08052106287863 stress="-0.007127300592324382 0.000908404202925223 1.1651102610501292e-05 0.000908404202925223 -0.00034220464265572104 -2.4229962658219797e-06 1.1651102610501292e-05 -2.4229962658219797e-06 -1.3678866191906301e-05" pbc="T T T"
C        0.02572604       0.01309694       3.74098912       0.00000000       0.00349043       0.00354866      -0.00214004
C       -1.21305105       2.14042135       3.53504894       0.00000000      -0.00631869      -0.00329277      -0.00208646
C       -2.46864691       4.28503591       3.67554758       0.00000000      -0.00640569      -0.00012647      -0.00190390
C       -3.69280128       6.42651305       3.86744422       0.00000000      -0.00482401       0.01025911      -0.00734554
C       -4.91490171       8.56732464       3.90385014       0.00000000       0.00317763      -0.00084083      -0.00458487
C        2.49299033       0.02668317       3.78950445       0.00000000       0.00201458      -0.00288223       0.01336548
C        1.26924172       2.08305197       3.33999172       0.00000000       0.00567825       0.00249858       0.00523722
C       -0.10796341       4.33376208       3.17908718       0.00000000       0.00617545       0.00104194       0.00603727
C       -1.28115515       6.45288100       3.61730714       0.00000000      -0.01010395       0.00171391       0.00360253
C       -2.45717045       8.57678447       3.84266574       0.00000000       0.00224401      -0.00036844       0.00313269
C        4.96762223       0.01047409       3.83399807       0.00000000      -0.00824979       0.00248314      -0.00099558
C        3.74560289       2.17850848       3.74753987       0.00000000      -0.00728876       0.00386990       0.00831670
C        1.14591098       6.42604637       3.53554931       0.00000000       0.00670510      -0.00010202      -0.00248143
C        0.01839174       8.54908292       3.76268604       0.00000000       0.00046070       0.00322625      -0.00149136
C        7.44299064      -0.01775572       3.82295253       0.00000000       0.00381093       0.00193841       0.00571204
C        6.21515972       2.13503898       3.86731195       0.00000000       0.00496014      -0.00060985       0.00670780
C        4.98323899       4.29521078       3.90734559       0.00000000      -0.00251513      -0.00351565       0.00964055
O        3.83541039       6.44743992       3.83497598       0.00000000       0.00595373       0.00290621       0.01034656
C        2.51926522       8.49677962       3.80059325       0.00000000      -0.00295492      -0.00155051       0.00517830
C        9.89794395      -0.01303953       3.77626519       0.00000000      -0.00346103      -0.00480739      -0.00642335
C        8.66915990       2.13345547       3.78632069       0.00000000       0.00477142       0.00198425      -0.00216807
C        7.43437507       4.28044071       3.89905846       0.00000000      -0.00000548       0.00093544      -0.00415978
C        6.20605859       6.43271925       3.97339425       0.00000000       0.00116159      -0.01143502      -0.00348451
C        4.96621460       8.54724463       3.88675605       0.00000000       0.00123733      -0.00524130       0.00720161
C        0.02346465       1.43291010       3.53362509       0.00000000       0.00011124       0.00507068       0.00134545
C       -1.24698411       3.56804507       3.45791259       0.00000000      -0.00360920       0.00007168      -0.00875442
C       -2.47947832       5.71323548       3.72031555       0.00000000      -0.01200098       0.00185741       0.00473930
C       -3.68348549       7.85575040       3.88378821       0.00000000       0.00376388       0.00718665       0.00112402
C       -4.90840535       9.99670743       3.82078453       0.00000000       0.00487878      -0.00086853      -0.01184150
C        2.49717025       1.44959220       3.64011113       0.00000000       0.00059143      -0.00274158       0.00843468
S        1.27838277       3.58005633       2.43219615       0.00000000       0.01478219      -0.00914829      -0.00845904
C       -0.06613472       5.74726888       3.40013364       0.00000000      -0.00151665       0.00721282      -0.00290035
C       -1.23334564       7.86451718       3.75482413       0.00000000      -0.00128323       0.00290631      -0.01631169
C       -2.44307616       9.99615237       3.84237024       0.00000000      -0.00355264      -0.00493118       0.00492456
C        4.97727749       1.43337017       3.82851330       0.00000000      -0.00377044       0.00484861      -0.00752833
C        3.79736718       3.56000183       3.82977528       0.00000000      -0.00466993       0.00390176       0.00428161
C        1.24985949       7.79354229       3.70815318       0.00000000       0.00135918       0.00355379      -0.00499860
C        0.03132696       9.96910860       3.82339653       0.00000000      -0.00225884       0.00566581      -0.01361387
C        7.44569842       1.41058788       3.83932266       0.00000000       0.01078641       0.00195191      -0.00039654
C        6.22240955       3.56146026       3.90535978       0.00000000       0.00026200       0.00081211       0.00020627
C        5.02101321       5.71997776       3.93873855       0.00000000      -0.00070252      -0.00709640      -0.00093097
C        3.76256585       7.84426750       3.85533302       0.00000000      -0.00129803      -0.00059958      -0.00364916
C        2.50774295       9.93628948       3.80864850       0.00000000      -0.00240732      -0.00469826       0.00403448
C        9.90510405       1.42506191       3.70593518       0.00000000      -0.00475861      -0.00520139      -0.00488659
C        8.66058210       3.56183109       3.80228386       0.00000000      -0.00316075       0.00004058      -0.00355582
C        7.42963587       5.70409844       3.93236011       0.00000000       0.00320591      -0.00067753      -0.00539946
C        6.20267143       7.85508884       3.93812842       0.00000000       0.00394956      -0.00958738       0.00239732
C        4.96027051       9.97529832       3.80707380       0.00000000       0.00060970      -0.00126974       0.00282724
Cr       2.35798861       4.90836486       4.04347067       0.00000000       0.00452046      -0.00042927       0.00686322
O        2.46128073       5.29742320       5.93776234       1.00000000       0.00895701       0.00186900       0.01309429
O        1.65047708       4.22533370       5.72373466       1.00000000      -0.01250246      -0.00133332      -0.00625996
