52
Lattice="12.336457 0.0 0.0 -6.168228499999997 10.683685154694365 0.0 0.0 0.0 15.0" Properties=species:S:1:pos:R:3:initial_magmoms:R:1:forces:R:3 energy=-455.0262408786554 free_energy=-455.0262408786554 stress="-0.0022308737785058904 0.0004136559060319673 -2.832856907654308e-06 0.0004136559060319673 -0.0062916568555043285 1.8094481773650454e-05 -2.832856907654308e-06 1.8094481773650454e-05 6.1074389823964135e-06" pbc="T T T"
C       -0.00349535      -0.04074131       3.94457461       0.00000000      -0.00696161      -0.00169028      -0.00494926
C       -1.23512152       2.10066321       4.02822444       0.00000000       0.01200521       0.00083007       0.00891785
C       -2.46663415       4.24300762       4.00158881       0.00000000      -0.00628919       0.00367397      -0.00384151
C       -3.70165558       6.37668705       3.92627436       0.00000000       0.00184062      -0.00942894      -0.00056629
C       -4.94705608       8.50180498       3.86297007       0.00000000       0.00175813      -0.00171238       0.00133174
C        2.46686243      -0.05847866       3.99749210       0.00000000       0.00345800       0.00932577       0.00486823
C        1.23211258       2.07430485       4.07738454       0.00000000       0.00283709       0.00411513      -0.00408734
C       -0.00334649       4.22390285       3.90105608       0.00000000      -0.01106425      -0.00645233      -0.00669788
C       -1.24169264       6.37489929       3.71966438       0.00000000       0.00959530       0.00693816      -0.00162855
C       -2.46087963       8.50415769       3.83003686       0.00000000      -0.00987190       0.00124056      -0.00290771
C        4.93807249      -0.04296248       3.87369362       0.00000000       0.00871461      -0.00321288       0.01014156
C        3.70530917       2.06811141       4.02820280       0.00000000      -0.00520360       0.00636438       0.00406899
C        2.47453271       4.15168320       4.03427305       0.00000000      -0.00208550      -0.01222852      -0.01317259
P        1.09553468       6.28213607       2.36917968       0.00000000       0.00021347       0.00343631       0.00835707
C       -0.01256029       8.54294206       3.47527777       0.00000000       0.00055875       0.00064064      -0.00377501
C        7.39869114      -0.00779220       3.70402106       0.00000000       0.00103554       0.00272285       0.00115182
C        6.17040058       2.09497102       3.95704088       0.00000000      -0.00861096       0.00160374       0.00378752
C        4.94638369       4.21516451       3.81181649       0.00000000       0.00483921      -0.00277140      -0.01386175
S        4.00263715       6.38507465       2.13484765       0.00000000       0.00400253       0.01383149      -0.00557403
C        2.47446012       8.64380801       3.10214686       0.00000000      -0.00316570      -0.00315930       0.00694416
C        9.87198779      -0.00588115       3.73963276       0.00000000      -0.00700606      -0.00259361      -0.00235803
C        8.63573019       2.11051615       3.96090828       0.00000000       0.00733508      -0.00428782       0.00479587
C        7.40459550       4.24127818       3.97024345       0.00000000       0.00014630       0.00383459      -0.00376241
C        6.16742092       6.37963847       3.73976435       0.00000000      -0.00459893      -0.00175052       0.00295034
C        4.94773680       8.54446483       3.51504346       0.00000000       0.00151746      -0.00150365      -0.00528938
C       -0.00446402       1.37733465       4.03979670       0.00000000       0.00929442      -0.00004464      -0.01231410
C       -1.23570719       3.52395531       4.01831280       0.00000000      -0.00901588       0.00078155      -0.00081788
C       -2.46821498       5.66557903       3.92023048       0.00000000       0.00887779       0.00377365       0.00264288
C       -3.70217807       7.79587838       3.88622745       0.00000000      -0.00355524      -0.01055441      -0.00036481
C       -4.94080352       9.92467258       3.94658275       0.00000000       0.00086332       0.00471826      -0.00495236
C        2.46721660       1.36117769       4.06167841       0.00000000      -0.00027532       0.00958130      -0.00215459
C        1.23737235       3.50030729       4.01901646       0.00000000      -0.00597592       0.00024733       0.00881971
C       -0.04123592       5.62095477       3.58014366       0.00000000      -0.00007920      -0.00792144      -0.01044815
C       -1.22898540       7.80298874       3.65350349       0.00000000      -0.00223625       0.00861396       0.00648552
C       -2.46441885       9.92454090       3.90464884       0.00000000       0.00315236       0.00320398       0.00641326
C        4.94073563       1.37413791       3.96458226       0.00000000      -0.00936690      -0.00049484       0.00611184
C        3.70537852       3.49126737       3.96826965       0.00000000       0.00273019       0.00411784      -0.00166691
C        1.21679828       7.92760003       3.09425672       0.00000000       0.00048984      -0.00996778       0.00578237
C       -0.00155735       9.95398638       3.68916956       0.00000000       0.00848698      -0.00197651      -0.00178075
C        7.40218921       1.39724902       3.89751327       0.00000000      -0.00241550       0.00362636      -0.00499318
C        6.17572703       3.51934010       3.93959078       0.00000000       0.00276120       0.00182959       0.00006762
C        4.97673044       5.62287014       3.50871610       0.00000000       0.00013871      -0.00609202      -0.00124069
C        3.74775391       7.95000505       3.02844665       0.00000000      -0.00056702       0.00510582      -0.00111684
C        2.47150846      10.00596580       3.50600587       0.00000000      -0.00662447      -0.00434355       0.01244533
C        9.86956708       1.39999042       3.93590827       0.00000000       0.01311031      -0.00246943       0.00405195
C        8.63705915       3.53197879       4.01162702       0.00000000      -0.00224403      -0.00107236      -0.00559983
C        7.39464098       5.66808174       3.91948047       0.00000000      -0.00338625       0.00083481      -0.00207166
C        6.15521792       7.80109568       3.69330068       0.00000000       0.00157269      -0.00242593       0.00344715
C        4.93589112       9.95111863       3.74960235       0.00000000      -0.01059072      -0.00365277      -0.00092812
Cr       2.69885771       6.09204594       3.95734252       0.00000000       0.00518046       0.00889946       0.00932950
O        3.39699483       6.62973219       5.69487539       1.00000000      -0.00197038      -0.00064386      -0.00445654
O        2.04844645       6.73260083       5.67923918       1.00000000       0.00664516      -0.01144041       0.00446581
