52
Lattice="12.336457 0.0 0.0 -6.168228499999997 10.683685154694365 0.0 0.0 0.0 15.0" Properties=species:S:1:pos:R:3:forces:R:3 energy=-456.3290562879538 free_energy=-456.3290562879538 stress="-0.0070281573772821996 0.00026758619971079163 -3.7068042477148695e-05 0.00026758619971079163 0.0039533865718403075 -1.293829075451497e-05 -3.7068042477148695e-05 -1.293829075451497e-05 2.065336678789526e-06" pbc="T T T"
C       -0.00596146      -0.01026388       3.78437152       0.00622276       0.00025810      -0.00021200
C       -1.26153231       2.09384540       3.78278168      -0.00039331       0.00542421      -0.01288778
C       -2.49780527       4.24372737       3.68525397      -0.00299496      -0.00184566      -0.00070209
C       -3.71421713       6.39873786       3.62368636       0.00614266      -0.00442154       0.00369457
C       -4.93626243       8.55089642       3.68812986      -0.00565068      -0.00405645       0.00002501
C        2.46763641       0.03371940       3.77305675       0.00338088       0.00765182      -0.01040546
C        1.22189174       2.18512915       3.89978131      -0.00482446      -0.00778062      -0.00100668
C       -0.06480053       4.23437032       3.90457016       0.00292793      -0.00317127       0.00744748
C       -1.28940220       6.40477498       3.75691332      -0.00441320      -0.00221477       0.00014159
C       -2.48877165       8.54946903       3.71261475      -0.00385066       0.00308821       0.00757125
C        4.92716927      -0.01752578       3.74959430      -0.00301999      -0.00013272      -0.00146323
C        3.73330091       2.12395369       3.75195558      -0.00084965      -0.00506449       0.00532316
C        1.12090215       6.37661038       4.02489285      -0.00429452       0.00565515       0.00092212
C       -0.02083108       8.50857940       3.81630951       0.00367562       0.00163275      -0.00133747
C        7.40277377      -0.06355576       3.76527664      -0.00265529       0.00286080       0.00221391
C        6.17865415       2.09473039       3.66748106      -0.00106574       0.00470182       0.00557785
C        4.99956123       4.24600625       3.64511806      -0.00548973       0.00090124       0.00226891
N        3.80358575       6.36757297       3.91565041      -0.00059777      -0.00118099       0.00190039
C        2.47464284       8.45248898       3.88103261       0.00552944      -0.00126816       0.00604380
C        9.85782260      -0.06078587       3.78304314      -0.00557848      -0.00303591      -0.00700115
C        8.62723174       2.08892059       3.68924659       0.00655332       0.00228376       0.00121674
C        7.40441040       4.24883306       3.60008011       0.00084481      -0.00247148       0.00189094
C        6.18498408       6.39685138       3.61588247       0.00361041      -0.00626967       0.00216743
C        4.94014451       8.50339069       3.76456212      -0.00837556       0.00184723      -0.00089888
C       -0.01082181       1.41504879       3.82664326      -0.00290765       0.00046108      -0.00335910
C       -1.28806930       3.51618191       3.77597760      -0.00175268       0.00414093      -0.00591702
C       -2.49983552       5.67782620       3.67346799      -0.00010948      -0.00574392       0.00501753
C       -3.71125280       7.83094341       3.66381312      -0.00282115      -0.00153270      -0.00375482
C       -4.93262294       9.98275426       3.75355262       0.00640217       0.00132448      -0.00292394
C        2.48818509       1.47388018       3.82514206      -0.00216488       0.00313057      -0.00340598
C        1.13278993       3.55704577       4.03694935       0.00192010      -0.00860612      -0.00098380
C       -0.07092752       5.68595015       3.89723760      -0.00328112       0.00029620       0.00886469
C       -1.26464719       7.82645105       3.75567086      -0.00133710      -0.00003725      -0.00104212
C       -2.48060551       9.98081539       3.74530619      -0.00339394       0.00483156      -0.00502406
C        4.93624420       1.41277488       3.72060718      -0.00007957      -0.00180339       0.00045241
O        3.80145963       3.52423540       3.62919633       0.00251091      -0.00498235       0.00614078
C        1.21442438       7.75089792       3.91411718       0.00658433       0.00329337      -0.00252630
C       -0.00811224       9.92984609       3.77483417      -0.00195100       0.00224105      -0.00012911
C        7.39568502       1.37117582       3.69840293       0.00250612       0.00701524       0.00727567
C        6.18124353       3.52317889       3.61704281      -0.00347940       0.00334535      -0.00192330
C        4.96962788       5.67241755       3.68836371      -0.00074679       0.00026475      -0.00784143
C        3.72788167       7.73822986       3.85542834      -0.00123281      -0.00108945       0.00160045
C        2.46593430       9.88593034       3.80839377      -0.00523938      -0.00373421      -0.00716482
C        9.84932932       1.36756362       3.74617533       0.00326854      -0.00214963       0.00219709
C        8.62178509       3.52327171       3.64305872      -0.00012102      -0.00089701       0.00140180
C        7.40035569       5.67400918       3.58910021       0.00998605      -0.00397874       0.00256129
C        6.17531380       7.82079786       3.68080241      -0.00972628      -0.00412675       0.00354138
C        4.92969192       9.93083125       3.78028635       0.00004626       0.00317665      -0.00349499
Cr       2.50873318       5.01984341       4.50425173      -0.00272434       0.00386880      -0.00206782
O        3.20393069       4.43575116       6.11563823      -0.00339066       0.00317212       0.00366602
O        2.37277650       5.59580944       6.57157602       0.01817063       0.00312636      -0.00678348
H        3.05485048       6.12385459       7.02857810       0.01023027       0.00160165       0.00313254
