52
Lattice="12.336457 0.0 0.0 -6.168228499999997 10.683685154694365 0.0 0.0 0.0 15.0" Properties=species:S:1:pos:R:3:forces:R:3 energy=-456.4710052794145 free_energy=-456.4710052794145 stress="-0.006938567352077473 -0.0012209440322208662 -1.2367158526055086e-06 -0.0012209440322208662 0.003223517109183352 1.325701955068641e-05 -1.2367158526055086e-06 1.325701955068641e-05 -1.506276304342442e-05" pbc="T T T"
C        0.01168311      -0.00603568       3.75010580       0.00202957      -0.00190778       0.00357140
C       -1.24307118       2.10626637       3.68142499      -0.00655327      -0.00017908       0.00008000
C       -2.46921983       4.26123235       3.61028892       0.00260009      -0.00650744      -0.00310926
C       -3.68551112       6.41351856       3.62247940       0.00210457       0.00527344       0.00097796
C       -4.90997903       8.56236707       3.70417145      -0.00788316      -0.00320519       0.00615543
C        2.47177542       0.04781387       3.76746870       0.00109795      -0.00682276      -0.00161763
C        1.20111554       2.12985111       3.77694129      -0.00552485      -0.00159197      -0.00461579
C       -0.05971146       4.23778706       3.66058667       0.00189876       0.00264450      -0.00608638
C       -1.25068707       6.40583596       3.62575985       0.00792110       0.00368687       0.00014775
C       -2.46179347       8.56534142       3.68104660      -0.00100665       0.01264281       0.00620533
C        4.94407188       0.00775640       3.76094076       0.00180501      -0.00479975       0.00315651
C        3.71453843       2.20314947       3.88274432       0.00579835       0.00967485      -0.00055392
C        1.15814860       6.37619293       3.88052445       0.00291983       0.00060726       0.00478235
C        0.00320547       8.52798393       3.74974462      -0.00668992      -0.00173502      -0.00857629
C        7.41920221      -0.04094975       3.76089600      -0.00163521       0.00422329       0.00932216
C        6.19383792       2.11741824       3.74959304       0.00436543      -0.00831817       0.00272981
C        4.99125757       4.27141592       3.88072173       0.00163056       0.00484886      -0.00311655
N        3.84476687       6.40924379       4.03942199       0.00199187      -0.00283289      -0.00293148
C        2.49276120       8.47305069       3.86904652       0.00113353      -0.00299997       0.00413316
C        9.87473652      -0.04459013       3.76011418       0.00627118      -0.00115575       0.00347522
C        8.64423507       2.10706264       3.68207887       0.00986271      -0.00031906       0.00570926
C        7.43137991       4.26353173       3.66684086      -0.00796306      -0.00596785      -0.00038727
C        6.21835946       6.42365879       3.73321867      -0.01117111       0.00232265       0.01620689
C        4.96280626       8.52109596       3.80200727      -0.00164491       0.00065054       0.00382647
C       -0.00160903       1.42050052       3.73583768      -0.01027812      -0.00046081      -0.00412138
C       -1.24785784       3.52917887       3.62868239       0.00326921      -0.00258581      -0.00824435
C       -2.46460004       5.68866306       3.59951888       0.00784405      -0.00146658      -0.00045845
C       -3.68391188       7.84462528       3.65895499      -0.00068191       0.01241316      -0.00456527
C       -4.91602930       9.99513383       3.74111081      -0.00165929      -0.00599446      -0.00187817
C        2.45141934       1.48521208       3.82778618       0.00119914      -0.00099103      -0.00551599
O        1.13056087       3.52229615       3.69626933       0.00349079       0.00665880       0.00604225
C       -0.01884257       5.66373331       3.69847526       0.00702954       0.00175768      -0.00580750
C       -1.23447078       7.83375560       3.67519769      -0.00662197       0.00518320      -0.00112463
C       -2.46382747       9.99567649       3.74150271       0.00218164       0.00403079      -0.01413266
C        4.94612731       1.43471017       3.79648733       0.00460702      -0.00643754       0.00816036
C        3.80472082       3.58152009       4.01963919       0.00335349       0.01306608      -0.00051745
C        1.23591197       7.76144230       3.83606790      -0.00438276      -0.00210421       0.00132988
C        0.00895878       9.95268944       3.75701626      -0.00211546      -0.00236510      -0.00226336
C        7.42095567       1.38701184       3.72600533       0.00894809       0.00417172      -0.01417767
C        6.21917551       3.54294699       3.74378873      -0.00677717      -0.00778153       0.00193038
C        5.00756937       5.72438382       3.87908777      -0.00599454      -0.00006466       0.00310984
C        3.75150814       7.77049083       3.90861635       0.00439542      -0.00430797      -0.00316645
C        2.48264055       9.90652974       3.79473610       0.00079378       0.00185203      -0.00083972
C        9.87591826       1.38900116       3.70161265       0.00285784      -0.00442089      -0.00544214
C        8.64940664       3.54046136       3.63925644      -0.00118005      -0.00464939      -0.00133874
C        7.43413819       5.69402157       3.65999769      -0.00778665       0.00354141      -0.00740931
C        6.20316011       7.84160726       3.74134774      -0.00971236      -0.00123741      -0.00019546
C        4.94613632       9.94481850       3.76811678       0.00638698      -0.00149290       0.00653305
Cr       2.49681382       5.06022395       4.54970814      -0.00496902      -0.00117706       0.01057865
O        1.81539022       4.40573437       6.16529124      -0.00155755       0.01421595      -0.00456300
O        2.50059195       5.64963696       6.65894455       0.00834319      -0.00214884       0.00094275
H        3.13025948       5.24763948       7.28788856      -0.00434172      -0.01543702       0.00764939
