51
Lattice="12.336457 0.0 0.0 -6.168228499999997 10.683685154694365 0.0 0.0 0.0 15.0" Properties=species:S:1:pos:R:3:initial_magmoms:R:1:forces:R:3 energy=-452.3992620632483 free_energy=-452.3992620632483 stress="-0.007340526669930658 -0.0012511522908162057 -1.1501934920018224e-05 -0.0012511522908162057 0.002777186456471825 -9.277420569710847e-06 -1.1501934920018224e-05 -9.277420569710847e-06 -1.0856310935589178e-05" pbc="T T T"
C        0.00786643       0.00458479       3.70162326       0.00000000       0.00668141       0.00222709      -0.00487753
C       -1.24781065       2.11689501       3.62392998       0.00000000       0.00043378       0.00378786       0.00390713
C       -2.47351591       4.27260361       3.58236166       0.00000000      -0.00008979       0.00045293      -0.00675006
C       -3.68813790       6.42448168       3.61107851       0.00000000      -0.00623619       0.00548861      -0.00729835
C       -4.91328740       8.57316223       3.67901651       0.00000000       0.00100883       0.00240460      -0.00350103
C        2.46836347       0.05791991       3.69790678       0.00000000       0.00287237       0.00318580       0.00859450
C        1.19680822       2.13918065       3.66888365       0.00000000      -0.00121948      -0.00182541       0.00557631
C       -0.06615124       4.24879857       3.57360311       0.00000000       0.00645344       0.00401399       0.00052658
C       -1.25333261       6.41692811       3.58822195       0.00000000      -0.01013989      -0.00236901       0.00948437
C       -2.46476148       8.57588068       3.64674850       0.00000000      -0.00345400       0.01037740      -0.00379519
C        4.94089104       0.01816305       3.70589048       0.00000000      -0.00178610      -0.00240856      -0.00322522
C        3.71066992       2.21141091       3.78629337       0.00000000      -0.00511606      -0.00915262       0.01515029
C        1.15230872       6.39236792       3.80668275       0.00000000       0.01554277      -0.00325288       0.00878111
C       -0.00002797       8.54070477       3.70892911       0.00000000      -0.00868706       0.00039159      -0.00463224
C        7.41598542      -0.02871769       3.72298693       0.00000000      -0.00320488       0.00319090      -0.00424688
C        6.19061315       2.12820538       3.69900700       0.00000000      -0.00481686       0.00681449       0.01092678
C        4.98620046       4.28434304       3.80322184       0.00000000       0.00219950      -0.00057514       0.01201277
N        3.83260382       6.41746579       3.92545274       0.00000000       0.00594436      -0.00029615       0.00220761
C        2.48935495       8.48626121       3.81865849       0.00000000      -0.01090209      -0.01039405      -0.00121823
C        9.87183881      -0.03212516       3.72297474       0.00000000      -0.00631214      -0.00690964       0.00061020
C        8.64060687       2.11929130       3.65172259       0.00000000       0.00502390      -0.00032389      -0.00636828
C        7.42706802       4.27568001       3.64489971       0.00000000       0.01360320      -0.00447864      -0.00338688
C        6.21498246       6.43606596       3.70953422       0.00000000       0.00782920      -0.00675927       0.00068497
C        4.95909918       8.53340774       3.77010501       0.00000000      -0.00163534      -0.00210832      -0.00843658
C       -0.00622957       1.43050575       3.66391715       0.00000000      -0.00088775       0.00152613      -0.00831894
C       -1.25318940       3.53976973       3.57212779       0.00000000       0.00327329       0.00620875       0.00257702
C       -2.46747166       5.69966968       3.57803904       0.00000000      -0.01339489      -0.00067173      -0.00504712
C       -3.68702338       7.85540263       3.63642716       0.00000000      -0.00054425       0.00740587       0.00825115
C       -4.91984110      10.00569682       3.69302162       0.00000000       0.00693242       0.00343693       0.00129789
C        2.44776301       1.49646739       3.72877810       0.00000000      -0.00518299      -0.00451947       0.01029843
O        1.12442175       3.53001487       3.54546369       0.00000000       0.00815272      -0.00349819      -0.00922745
C       -0.02283672       5.67296203       3.63190538       0.00000000       0.00439999       0.00502815      -0.00742153
C       -1.23728895       7.84508929       3.64059130       0.00000000      -0.01057783       0.00223640      -0.00230879
C       -2.46686999      10.00646099       3.68619522       0.00000000      -0.00101529       0.00601874      -0.00121394
C        4.94271976       1.44492485       3.72872262       0.00000000      -0.00467115      -0.00465927       0.00348197
C        3.79777132       3.59155182       3.91025331       0.00000000       0.00386936      -0.00893785       0.00626204
C        1.23320538       7.77742687       3.78432359       0.00000000      -0.00951520      -0.00186167      -0.00773777
C        0.00584652       9.96485735       3.71471292       0.00000000      -0.00206154       0.00157960      -0.00656541
C        7.41780034       1.39877562       3.68731319       0.00000000      -0.00202060       0.00867164       0.00245528
C        6.21416046       3.55421913       3.69741472       0.00000000       0.00774026       0.00556230       0.00715019
C        5.00039599       5.73572179       3.80798205       0.00000000       0.00396260      -0.00024141       0.00750211
C        3.74583200       7.78049801       3.84670817       0.00000000      -0.00412247      -0.00318093      -0.00681998
C        2.47966874       9.91958300       3.75601153       0.00000000      -0.00899411      -0.01031699       0.00393561
C        9.87182728       1.40070174       3.66190217       0.00000000       0.00239342      -0.00345802       0.00154112
C        8.64477261       3.55255972       3.61699250       0.00000000       0.00960334      -0.00453654      -0.00194569
C        7.43062123       5.70606997       3.64714785       0.00000000       0.00626827      -0.00625846      -0.01106802
C        6.19934167       7.85379949       3.71960780       0.00000000       0.00126588      -0.00456254      -0.00407374
C        4.94269105       9.95640059       3.73368396       0.00000000       0.00073715       0.00059741      -0.00349266
Cr       2.48891970       5.05967715       4.40171400       0.00000000      -0.01273232       0.00869813      -0.00783027
O        2.63249088       5.38157370       6.28301054       1.00000000       0.00626488       0.00433506       0.00796107
O        1.76990286       4.34994343       6.04720228       1.00000000       0.00686392       0.00391627      -0.00036871
