52
Lattice="12.336457 0.0 0.0 -6.168228499999997 10.683685154694365 0.0 0.0 0.0 15.0" Properties=species:S:1:pos:R:3:forces:R:3 energy=-454.9926122597428 free_energy=-454.9926122597428 stress="0.0006408060063535016 0.0022706319818848095 -2.3440996408588755e-05 0.0022706319818848095 0.010161265532623748 2.0042238038655365e-05 -2.3440996408588755e-05 2.0042238038655365e-05 7.516771643954372e-07" pbc="T T T"
C        0.05024640      -0.00132306       3.84406088      -0.00470422      -0.00868550       0.00783139
C       -1.18472776       2.11570547       3.77823628      -0.00104779      -0.00005602      -0.00359167
C       -2.41536710       4.24845644       3.64450821      -0.00136093      -0.00284564      -0.00407797
C       -3.66391945       6.39313254       3.64306726       0.00282626       0.00265797       0.01017927
C       -4.89033423       8.54566749       3.75526774      -0.00536628       0.00369975       0.00885226
C        2.51173017       0.05036341       3.79478758       0.00280447      -0.00664415      -0.00333941
C        1.27024599       2.22733067       3.96011027      -0.00470156       0.00380707      -0.00662369
C        0.04818950       4.26256368       3.80698849       0.00146351       0.00463881       0.00222795
C       -1.20864886       6.39281456       3.62601397       0.00632893       0.00399342      -0.01029353
C       -2.43264622       8.54308622       3.68402135      -0.00370845       0.00201300      -0.00803622
C        4.97818377      -0.02014249       3.71137814      -0.00066394       0.00764971      -0.01375495
C        3.78842201       2.13139132       3.71163666       0.00024255      -0.00531498      -0.00377370
O        1.17104742       6.40645440       3.57451801       0.00314200      -0.00373085      -0.00305332
C        0.03176690       8.50581000       3.67793264      -0.00632254       0.00560899       0.00964203
C        7.45825620      -0.06577787       3.72713493      -0.00744433       0.00760217       0.00029570
C        6.23546087       2.09169668       3.64874321       0.00189127      -0.00174310      -0.00858086
C        5.02582507       4.21008813       3.67067270       0.00457046       0.00768046      -0.00711814
C        3.81144925       6.31087080       4.18261500      -0.00377571       0.00316024      -0.00205514
C        2.48646849       8.43093291       3.85112346      -0.00477164      -0.00224451      -0.00310515
C        9.91058889      -0.06108239       3.80980086       0.00081102       0.00311851       0.00933026
C        8.69212253       2.09269506       3.68676138      -0.00224452       0.00085605       0.00220812
C        7.46051166       4.24246215       3.62937440      -0.00398137      -0.00435816       0.00285076
C        6.21689673       6.37762870       3.72497837       0.00560795       0.00083280       0.00071676
C        4.96892062       8.49039781       3.87642429       0.00628958      -0.01135156      -0.00446135
C        0.06179726       1.44005421       3.86153186      -0.00439288      -0.00467981      -0.01039197
C       -1.18527271       3.54160019       3.71005780       0.00271527       0.00138144       0.00127942
C       -2.43608373       5.67223012       3.62916113       0.00618245      -0.00008913      -0.00394083
C       -3.66824395       7.82636114       3.68747959      -0.00608476       0.00569987      -0.00060466
C       -4.88339188       9.98372833       3.80864350      -0.00119346      -0.00186510       0.00028072
C        2.52727639       1.50035699       3.84048239      -0.00512979      -0.00681308       0.01057227
N        1.21157576       3.60388826       4.12692468       0.00599853       0.01024981      -0.00411833
C       -0.00382373       5.69120091       3.66003535       0.00101489      -0.00034406       0.00018180
C       -1.21207331       7.82221900       3.64338376      -0.00142248       0.00511645       0.01128531
C       -2.43568443       9.98491888       3.73039491       0.00516569      -0.00083909      -0.00211742
C        4.98967108       1.40699293       3.68801027       0.00280497       0.00071362       0.00039497
O        3.84364498       3.50784800       3.57933365       0.00872691      -0.00720719       0.00428841
C        1.23489761       7.78219420       3.70550463      -0.00803493      -0.00458804      -0.00117309
C        0.04729766       9.93291475       3.70552405      -0.00843346       0.00782520       0.00863554
C        7.45693128       1.37467008       3.68489454       0.00022370       0.00249693      -0.01013239
C        6.23379043       3.51541830       3.62215358      -0.00303677      -0.00025274       0.00407836
C        4.96466958       5.63687093       3.83087910       0.00262673       0.01173489       0.00743150
C        3.74033393       7.69399965       3.97964727       0.00284663       0.00058790       0.00587901
C        2.50986932       9.87679157       3.79514522      -0.00511603       0.00473893      -0.00026395
C        9.92075932       1.37696849       3.75396404      -0.00141893       0.00647683      -0.00194768
C        8.68815986       3.52511275       3.64164592      -0.00435560      -0.00409843       0.00480426
C        7.44280709       5.67101044       3.64947278       0.00147412      -0.00358866       0.00125632
C        6.21309919       7.80548217       3.78717175       0.00535830      -0.00514965       0.00054507
C        4.98024597       9.92876070       3.84903929      -0.00207756      -0.01167245      -0.00576637
Cr       2.47493804       4.92292558       5.20849738       0.00628616      -0.00084019       0.00762184
O        3.36608885       3.93610029       6.11556946       0.00930762      -0.01468739       0.00295516
O        1.37988691       5.98976033       6.18108689      -0.00346794       0.00420048       0.00648632
H        1.44495262       5.92275354       7.15598598       0.00754788      -0.00485183      -0.00978900
