51
Lattice="12.336457 0.0 0.0 -6.168228499999997 10.683685154694365 0.0 0.0 0.0 15.0" Properties=species:S:1:pos:R:3:initial_magmoms:R:1:forces:R:3 energy=-449.5718746059945 free_energy=-449.5718746059945 stress="-0.004263774132984812 0.0006977894414043622 1.9507611888799843e-05 0.0006977894414043622 0.006029434443687358 5.516552231590215e-06 1.9507611888799843e-05 5.516552231590215e-06 1.4673535637345184e-05" pbc="T T T"
C        0.02112250       0.00966735       3.74190716       0.00000000       0.00135144      -0.00331018       0.00424787
C       -1.22279262       2.13189556       3.66190753       0.00000000       0.00027432       0.00058347       0.00140338
C       -2.45236183       4.27792244       3.61188298       0.00000000      -0.00333969       0.00512413       0.00746655
C       -3.67834953       6.42256788       3.66202152       0.00000000       0.00031993      -0.00225249       0.00053545
C       -4.90444188       8.57418222       3.73347737       0.00000000       0.00234006      -0.00285731      -0.00309742
C        2.48453401       0.06684423       3.73162848       0.00000000       0.00050851       0.00088113       0.00391469
C        1.22643709       2.15474542       3.71889388       0.00000000       0.00462488       0.00216955      -0.00159611
C       -0.04325643       4.29266442       3.55278130       0.00000000      -0.00282160      -0.00159379      -0.00423301
C       -1.23659707       6.42179917       3.56607260       0.00000000       0.00088414      -0.00280130       0.00164178
C       -2.44928861       8.57325007       3.66168900       0.00000000      -0.00154675      -0.00682299      -0.00075075
C        4.95245995       0.02152239       3.70071892       0.00000000      -0.00206467       0.00212894       0.01044665
C        3.75079176       2.21034518       3.78450952       0.00000000      -0.00039034       0.00425773       0.00581890
O        1.15221751       6.42955209       3.47769478       0.00000000      -0.00237187       0.00187522      -0.00506960
C        0.01161229       8.53589469       3.65171537       0.00000000      -0.00230552       0.00114284      -0.00088487
C        7.42764767      -0.03222867       3.70736113       0.00000000       0.00825199      -0.00891293      -0.00110421
C        6.20784776       2.12634527       3.72317241       0.00000000       0.00000965      -0.00090178       0.00295043
C        5.00245702       4.24365461       3.82992154       0.00000000       0.00290894      -0.00059075      -0.00401996
C        3.80496298       6.37520905       3.96254412       0.00000000      -0.00021699       0.00133317       0.01307394
C        2.46151597       8.46979189       3.76255893       0.00000000       0.00078940       0.00367540      -0.00363659
C        9.88181924      -0.03411575       3.73058345       0.00000000       0.00550206       0.00422695       0.00590557
C        8.66182995       2.12047421       3.67965089       0.00000000      -0.00647496      -0.00141091      -0.00133872
C        7.43963313       4.26937507       3.70239735       0.00000000       0.00332614       0.00297809      -0.00190503
C        6.22575623       6.41945610       3.77982434       0.00000000       0.00166788       0.00225833      -0.00266017
C        4.95573139       8.52614457       3.79990649       0.00000000      -0.00517009      -0.00072941      -0.00123544
C        0.02201753       1.44491969       3.70982441       0.00000000       0.00409775      -0.00010669       0.00106552
C       -1.22655986       3.56017663       3.59666778       0.00000000      -0.00453947       0.00180929      -0.00258126
C       -2.45669908       5.69913097       3.60472533       0.00000000      -0.00076292       0.00221006       0.00470977
C       -3.68148022       7.85580262       3.68311537       0.00000000      -0.00013499      -0.00612811      -0.00291200
C       -4.90725444      10.00922008       3.73964133       0.00000000       0.00190781      -0.00215729      -0.00733258
C        2.47670512       1.51735197       3.75700254       0.00000000       0.00359501       0.00290870      -0.00463317
O        1.16805992       3.56212143       3.56051462       0.00000000       0.00223357       0.00453062       0.00139906
C       -0.05022268       5.69653194       3.52309997       0.00000000       0.00057937      -0.00202186      -0.00277549
C       -1.23191947       7.84930834       3.61632084       0.00000000      -0.00074372      -0.00400758      -0.00275473
C       -2.45684327      10.01273807       3.69882697       0.00000000      -0.00185943      -0.00365852       0.00496374
C        4.95880642       1.45095551       3.73270629       0.00000000      -0.00230921       0.00395693       0.00311397
N        3.82240977       3.57414816       3.87743269       0.00000000       0.00064918       0.00453841       0.00159652
C        1.21596527       7.82190284       3.66204510       0.00000000      -0.00108024       0.00438348      -0.00313382
C        0.01949547       9.96664078       3.68951547       0.00000000       0.00213398       0.00032000       0.00159191
C        7.43367508       1.40312501       3.70196690       0.00000000      -0.00225118      -0.00873386      -0.00373090
C        6.22173897       3.54216031       3.74407772       0.00000000       0.00419928       0.00090190      -0.00471059
C        4.99481815       5.69178643       3.86490282       0.00000000      -0.00001967       0.00198669      -0.00028641
C        3.72512767       7.75718728       3.84895095       0.00000000      -0.00528042       0.00052681      -0.00188292
C        2.48012587       9.91369094       3.73433631       0.00000000       0.01134337      -0.00008097      -0.00287040
C        9.89489686       1.40472800       3.68683248       0.00000000      -0.00262121       0.00274545       0.00174672
C        8.66281935       3.55173738       3.65981007       0.00000000      -0.00125835       0.00120320      -0.00104092
C        7.43966466       5.69983959       3.71149184       0.00000000       0.00245536       0.00082454       0.00035129
C        6.20495833       7.84538397       3.77514349       0.00000000      -0.00129152       0.00172995      -0.00060281
C        4.95419067       9.95512599       3.75672673       0.00000000       0.00015667      -0.00115894       0.00322371
Cr       2.46376319       4.91039175       4.29681197       0.00000000       0.00325292      -0.00177546       0.00833118
O        2.38529797       4.30797463       6.09977752       1.00000000      -0.00747181      -0.00066012      -0.00284512
O        1.61345350       5.44328471       5.94538267       1.00000000      -0.01103704      -0.00453773      -0.01387361
