52
Lattice="12.336457 0.0 0.0 -6.168228499999997 10.683685154694365 0.0 0.0 0.0 15.0" Properties=species:S:1:pos:R:3:forces:R:3 energy=-453.72098213908885 free_energy=-453.72098213908885 stress="-0.004927745111308676 -0.0005891363718532476 -9.482442943182368e-06 -0.0005891363718532476 0.0042778810470661625 1.1590343786690655e-05 -9.482442943182368e-06 1.1590343786690655e-05 2.1327393905776955e-05" pbc="T T T"
C        0.04371064       0.03463307       3.76387772       0.00681624       0.00170139       0.00362480
C       -1.20898112       2.14830429       3.74925602       0.00721079      -0.00659434       0.00506576
C       -2.43871912       4.29777324       3.69501621       0.00579000       0.00949605       0.00723357
C       -3.65779751       6.44851358       3.67096915       0.00469440      -0.00033509      -0.00786057
C       -4.88312049       8.59875031       3.71663215      -0.00300024      -0.01242131      -0.00715730
C        2.50941624       0.09013779       3.75971778      -0.00614786       0.00702049      -0.00559596
C        1.23519528       2.17553485       3.79809436       0.00061987       0.01086068       0.00285481
C       -0.03015209       4.28307345       3.79614629      -0.00013338       0.00147467      -0.01060972
C       -1.22382077       6.44419739       3.75123335      -0.00639678       0.00093186      -0.00544229
C       -2.43533821       8.59872763       3.73770170       0.00249281       0.00029921      -0.00235848
C        4.97182899       0.04067903       3.76765512      -0.00222283       0.00298335       0.00032647
C        3.77386828       2.18927108       3.73842797      -0.00334347      -0.00756732       0.00211618
C        1.18957278       6.42534198       3.98756695       0.00028820       0.00347807      -0.01003809
C        0.02908866       8.56674812       3.82620670       0.00389101      -0.00518254       0.00210621
C        7.44871494      -0.00157228       3.79214425      -0.00146425      -0.01029374       0.00344382
C        6.22034994       2.15542970       3.71267644      -0.00245707       0.00211514      -0.00882687
C        5.04029828       4.30321353       3.67930311      -0.00346886       0.00268606       0.00734236
N        3.86008690       6.43667972       3.94184252      -0.00870222      -0.00085271       0.00733364
C        2.52157286       8.51207011       3.89267835       0.00657645      -0.00231071      -0.00747021
C        9.90724524      -0.00450717       3.79276487      -0.00998687      -0.00503762      -0.00789066
C        8.67523842       2.14745228       3.72370641       0.00559846       0.00299940      -0.00204178
C        7.45272358       4.30272306       3.66079782       0.00107435       0.00007752      -0.00644933
C        6.23924433       6.45054657       3.67690950       0.00342339      -0.00255023      -0.00272329
C        4.99158953       8.55709666       3.78882896      -0.01060889       0.01270108      -0.00294023
C        0.04057886       1.46636175       3.76843547       0.00906047      -0.00104697       0.01042380
C       -1.21483513       3.56833095       3.73117141       0.00141892      -0.00187164       0.00076268
C       -2.43685683       5.72477786       3.69243322      -0.00239090       0.00577151       0.00868710
C       -3.65717383       7.88003770       3.70025702       0.00416011      -0.00514562       0.00208748
C       -4.88219888      10.03590560       3.74961305       0.00103334      -0.00925809      -0.00174743
C        2.50828574       1.54699890       3.77477981      -0.00758314       0.00883310       0.00181747
O        1.16229836       3.56737037       3.90827636      -0.00667366      -0.00148713      -0.00037360
C        0.00466037       5.70672819       3.84129900      -0.00455289       0.00591878      -0.01069300
C       -1.20872636       7.87161621       3.76870729       0.00088735      -0.00460354       0.00062074
C       -2.43507927      10.03471224       3.75653098      -0.00414882       0.00710517       0.00414885
C        4.96903417       1.47619618       3.74052463      -0.00211856      -0.00023309       0.00548503
O        3.83797129       3.58924256       3.63935233       0.00756490      -0.01014767       0.00459097
C        1.26273469       7.80837178       3.90823647       0.00980497       0.00240186      -0.00648385
C        0.03781383       9.99083757       3.79674014      -0.00252373      -0.00557045      -0.00182702
C        7.44062193       1.43231507       3.73971372       0.00068168      -0.00250456       0.00350688
C        6.22564315       3.58010238       3.66998683      -0.00288077       0.00263574       0.00623083
C        5.02628166       5.73189135       3.74091938      -0.00136659       0.00326009       0.00187823
C        3.77931255       7.80286726       3.87885085      -0.00154261       0.00256579       0.00910939
C        2.51346170       9.94824665       3.82566231      -0.00326319      -0.00950324       0.00507380
C        9.90882634       1.43011454       3.75261285       0.00357124      -0.00729646       0.00101043
C        8.67509370       3.57950540       3.68509036       0.00643057       0.00916883      -0.00129634
C        7.45568293       5.72666429       3.65002581       0.00919931      -0.00175878       0.01003244
C        6.22786575       7.87355894       3.72012065      -0.01143537       0.00038254       0.01226552
C        4.97822056       9.98300898       3.78394031      -0.00407680       0.01362706      -0.00113379
Cr       2.53754931       5.11703672       4.35724825       0.00414551       0.00215417      -0.01014705
O        2.89549381       4.28065208       5.98951803       0.00394040      -0.00553101       0.00949306
O        1.49796448       4.35106721       6.43150965      -0.00601034       0.00151326      -0.01037787
H        1.58000923       4.97967099       7.17598262       0.00812533      -0.00505902      -0.00718758
