53
Lattice="12.336457 0.0 0.0 -6.168228499999997 10.683685154694365 0.0 0.0 0.0 15.0" Properties=species:S:1:pos:R:3:forces:R:3 energy=-464.4246088664059 free_energy=-464.4246088664059 stress="-0.006228401055610704 0.002606336228200995 3.299126326533495e-05 0.002606336228200995 -0.008979725162860294 5.445799921356363e-05 3.299126326533495e-05 5.445799921356363e-05 -1.3164001665432562e-05" pbc="T T T"
C       -0.03771096      -0.05026657       3.87191387      -0.00427197       0.01236649       0.00223449
C       -1.26081229       2.09404310       3.96756204       0.00855460      -0.00829834       0.01446745
C       -2.49233660       4.22707568       3.97242009       0.00129629      -0.00035889      -0.01003394
C       -3.73703184       6.35785126       3.87925396      -0.01344868      -0.00576722       0.00412061
C       -4.97895326       8.49193202       3.80788350       0.00283472      -0.00458036      -0.00562259
C        2.42302378      -0.06590135       3.90060116      -0.01823524      -0.00742106       0.00690208
C        1.20139818       2.07045000       4.01850228      -0.00153514       0.00948028      -0.01243250
C       -0.02301207       4.23207768       4.08515504       0.00038385      -0.01544045      -0.00893478
C       -1.27894463       6.37003130       3.96611018       0.00040020       0.00539759       0.00825327
C       -2.52087625       8.49538115       3.87819452       0.00650775       0.00734289      -0.00587637
C        4.88969584      -0.05589086       3.84054775       0.01239870       0.00089305       0.00465722
C        3.66901063       2.04270794       3.90472133      -0.01375903       0.00522552       0.01265358
C        2.46697201       4.13141735       4.11221388       0.00263880       0.01455040      -0.00302576
C        1.13825245       6.43814512       3.99910207      -0.01604085       0.01440208       0.00499129
C       -0.07137817       8.52081250       3.81140057       0.00469088      -0.00426101      -0.01132714
C        7.35722086      -0.03469723       3.78837440      -0.00606333      -0.00169923       0.00952150
C        6.14063983       2.06973970       3.84833798       0.00539140       0.00992140      -0.00592664
C        4.92476900       4.16231888       3.74665024       0.01791197       0.00027162      -0.00745226
P        3.74315646       6.37315419       2.42887495      -0.00167521      -0.00210548      -0.00619127
C        2.39187412       8.55343376       3.61695462      -0.00431223       0.00342379       0.02075456
C        9.83650573      -0.03085238       3.78858359      -0.00234465       0.00520799      -0.00416821
C        8.60815183       2.09080321       3.88950618       0.00536633       0.00564733      -0.00739135
C        7.38287014       4.21595636       3.84749358      -0.00085400       0.00387529      -0.00863359
C        6.15328217       6.35894832       3.66806625      -0.00398698      -0.00623988       0.00823377
C        4.90968869       8.51644090       3.62635987       0.00620682      -0.00418084      -0.00026927
C       -0.03343240       1.37141458       3.96492878       0.00518402       0.00722697      -0.00840565
C       -1.25507208       3.51971776       4.02270391      -0.00083304      -0.01387961      -0.00281137
C       -2.50288445       5.65074007       3.95216869      -0.00421093       0.00331015       0.00320221
C       -3.74845370       7.78105679       3.86280176       0.00380855      -0.00253559      -0.00328033
C       -4.97808886       9.91287255       3.86602568      -0.01706781      -0.00331789       0.00125910
C        2.42812701       1.35152437       3.95014130      -0.01755004      -0.00405954       0.00661445
C        1.21709626       3.50168743       4.09377680       0.00745868       0.00288601       0.00344253
C       -0.03253115       5.66976306       4.03754009      -0.00153281      -0.00686385      -0.01037197
C       -1.28971447       7.79139436       3.88866732       0.00676521       0.00548272       0.00969281
C       -2.51346501       9.91425854       3.87037752       0.00125644       0.00811296      -0.01033560
C        4.90391614       1.35530459       3.85388145       0.00020980       0.00823438       0.01547609
C        3.68272202       3.45718647       3.91494553       0.00662487       0.00876787      -0.00188184
C        1.16094213       7.82745204       3.78465479       0.00002560       0.00803547      -0.00491445
C       -0.04928950       9.93527327       3.79623153       0.00853008      -0.01507797       0.02030660
C        7.37123214       1.37630245       3.84801384       0.00161550       0.00812602      -0.01453387
C        6.15469857       3.48659945       3.81533046       0.01429440       0.00574825      -0.00790111
C        4.92538194       5.60014092       3.54490316       0.01165106      -0.00654549       0.00380584
C        3.64310196       7.83421446       3.47110944      -0.00263357      -0.00918147      -0.01587591
C        2.42298079       9.95506367       3.71844500      -0.01179787       0.00635594      -0.00389467
C        9.84234400       1.38407343       3.88958276       0.00862644       0.00133319      -0.00495788
C        8.61252255       3.51303475       3.91329883      -0.00185781       0.00622183       0.00319281
C        7.37150884       5.64495322       3.81025328      -0.01414475      -0.00586398       0.00666655
C        6.12423793       7.78008557       3.68244435       0.00583519      -0.00566948       0.00004023
C        4.89999693       9.92841266       3.76713097       0.00130879       0.00361175       0.01441191
Cr       2.95885895       5.98010591       4.43413099       0.00768506      -0.01021867       0.00019945
O        3.84226177       6.60470589       6.08139855       0.02183971      -0.02361259      -0.01773091
O        3.14701687       5.96422004       7.20113978       0.00819423       0.01627272       0.02335345
H        2.81936345       6.75851069       7.66548467      -0.03733999      -0.03055302      -0.00427261
