51
Lattice="12.336457 0.0 0.0 -6.168228499999997 10.683685154694365 0.0 0.0 0.0 15.0" Properties=species:S:1:pos:R:3:initial_magmoms:R:1:forces:R:3 energy=-439.6611901240005 free_energy=-439.6611901240005 stress="-0.005021181537467039 0.0004098771670930249 -1.8592107905701856e-06 0.0004098771670930249 -0.002876073728795788 -1.7942474146909338e-06 -1.8592107905701856e-06 -1.7942474146909338e-06 -1.287977289747742e-07" pbc="T T T"
C       -0.02211269       0.00626495       3.89248555       0.00000000      -0.00150405      -0.00482143      -0.00730218
C       -1.25666139       2.14488757       3.91209772       0.00000000       0.00121603      -0.00318981       0.00095346
C       -2.50501497       4.28395930       4.17436321       0.00000000      -0.00137919       0.00066173       0.01176575
C       -3.73417725       6.42522638       4.15753301       0.00000000      -0.00091097      -0.00174691       0.00040360
C       -4.96847605       8.55480650       3.97573404       0.00000000       0.00227437      -0.00238370      -0.00261737
C        2.44366677       0.00783431       3.84808245       0.00000000      -0.01342450      -0.00034293       0.00510288
C        1.19124295       2.06791016       3.40773735       0.00000000      -0.00131668      -0.00167307      -0.00223467
C       -0.13893812       4.33441833       3.73192189       0.00000000       0.00391220      -0.00072572      -0.01290184
C       -1.29734073       6.44163674       4.21367720       0.00000000       0.00271778      -0.00270433      -0.01007216
C       -2.50670570       8.57155224       4.15111542       0.00000000       0.00407850      -0.00530194      -0.00424028
C        4.91236048       0.00412886       3.92803613       0.00000000      -0.00438034       0.00611199      -0.00173728
C        3.70776100       2.03898784       3.28550334       0.00000000      -0.00127183       0.00795642       0.01080355
C        1.14204068       6.42604401       3.85377588       0.00000000      -0.00628943      -0.00492449      -0.00366583
C       -0.03027183       8.55005460       4.07376037       0.00000000       0.00315314      -0.00031779       0.00443421
C        7.37963935      -0.00360530       3.99482765       0.00000000       0.00576541       0.00158117      -0.00413826
C        6.16405218       2.12715364       3.72956508       0.00000000       0.00585914       0.00454884       0.00656590
C        5.14685541       4.29046091       3.09958598       0.00000000       0.00177521      -0.00395202       0.00589652
S        3.72279502       6.50186064       2.42944734       0.00000000      -0.00676432       0.00471840      -0.00777105
C        2.44774398       8.54440138       3.78346084       0.00000000      -0.00135294      -0.00632603       0.00849937
C        9.84738872      -0.00073715       3.96012640       0.00000000       0.00299648       0.00232336       0.01133356
C        8.61520731       2.13813325       4.04571593       0.00000000      -0.00347170       0.00162311      -0.00215724
C        7.40170924       4.27662244       3.93855070       0.00000000      -0.00312137      -0.00147906       0.00448693
C        6.20580255       6.43071813       3.64390791       0.00000000      -0.00047729       0.00078300       0.01196136
C        4.91723839       8.55555653       3.72088495       0.00000000       0.00043746       0.01106387      -0.01041577
C       -0.02169520       1.43563385       3.76525029       0.00000000       0.00213338      -0.00845232       0.00499774
C       -1.28118623       3.56727253       3.99475272       0.00000000       0.00443709       0.00089572       0.00315107
C       -2.50948197       5.71049723       4.23174189       0.00000000       0.00038630       0.00253939       0.00129558
C       -3.73508453       7.85100861       4.12099236       0.00000000       0.00307570      -0.00436386       0.00481887
C       -4.95912329       9.98377228       3.92706293       0.00000000      -0.00707950      -0.00623161       0.00355932
C        2.44626003       1.40806569       3.49858984       0.00000000      -0.00457134       0.00404536       0.01348898
S        1.02009900       3.63232034       2.63128383       0.00000000       0.00132202      -0.00466918       0.00623845
C       -0.07178668       5.73825006       3.97559394       0.00000000      -0.00152180      -0.00255014      -0.01216386
C       -1.27387072       7.86107014       4.19230037       0.00000000       0.00630633      -0.00461546      -0.01478173
C       -2.49508592       9.98796164       3.99598984       0.00000000      -0.00875995       0.00002940      -0.00167389
C        4.92247273       1.41490454       3.65489604       0.00000000       0.00423777       0.01014621      -0.00397003
S        3.82190879       3.47580315       2.29752983       0.00000000      -0.00377075      -0.00504664      -0.00885016
C        1.20227477       7.81104494       3.90643426       0.00000000      -0.00349598      -0.00636006      -0.00015555
C       -0.02349513       9.97213549       4.02096152       0.00000000       0.00072613       0.00353157      -0.00625277
C        7.37666960       1.42446497       3.95509802       0.00000000       0.00114634       0.00147085       0.00755351
C        6.21999000       3.54485815       3.61415970       0.00000000       0.00471016      -0.00180521       0.00085428
C        5.12685907       5.69086792       3.13063260       0.00000000       0.01133331      -0.00448705      -0.01191332
C        3.67826266       7.91700734       3.45872886       0.00000000      -0.00062760       0.00122390       0.00105003
C        2.44657017       9.96737578       3.95233583       0.00000000       0.00655373      -0.00177406      -0.00098670
C        9.85588383       1.43072422       4.01564849       0.00000000      -0.00293728       0.00319797      -0.01147857
C        8.61414517       3.56112659       4.10634339       0.00000000      -0.00387882       0.00066661       0.00012890
C        7.39743560       5.70495768       3.95307297       0.00000000       0.00020987      -0.00177598      -0.00686432
C        6.15469190       7.84747149       3.76763300       0.00000000      -0.00193937       0.00586200       0.01273117
C        4.91076355       9.97655927       3.90011324       0.00000000       0.00005780       0.00581390       0.00411327
Cr       2.55078935       4.98281325       3.64139181       0.00000000       0.00523311       0.00714576       0.00285485
O        3.36173343       5.14253737       5.44020802       1.00000000      -0.00459584      -0.01522757      -0.00140312
O        2.68833769       3.98728323       5.34259624       1.00000000       0.00278808       0.01930787       0.00070485
