51
Lattice="12.336457 0.0 0.0 -6.168228499999997 10.683685154694365 0.0 0.0 0.0 15.0" Properties=species:S:1:pos:R:3:initial_magmoms:R:1:forces:R:3 energy=-444.8101556186601 free_energy=-444.8101556186601 stress="-0.005764239427459878 -0.001452198977695423 -1.619140134761446e-05 -0.001452198977695423 0.0029054584786436894 1.6138257424074475e-05 -1.619140134761446e-05 1.6138257424074475e-05 5.407797836700599e-06" pbc="T T T"
C       -0.01899943       0.01629896       3.86038227       0.00000000      -0.00290661      -0.00060977       0.00048998
C       -1.27249505       2.13580797       3.89867231       0.00000000      -0.00322442       0.00606718      -0.00018751
C       -2.49120298       4.28304570       3.86869471       0.00000000       0.00339166       0.00333781      -0.00051857
C       -3.69721274       6.43106566       3.81154489       0.00000000       0.00725882       0.00330525      -0.00022299
C       -4.93073025       8.58382591       3.82111877       0.00000000      -0.00329493      -0.00436639      -0.00441915
C        2.44539055       0.05323784       3.84723108       0.00000000      -0.00820780      -0.00521071      -0.00215941
C        1.17247735       2.15467879       3.86134497       0.00000000       0.00173277       0.00013759      -0.00083799
C       -0.08595820       4.28625116       3.97673436       0.00000000      -0.00020255       0.00072838      -0.00329907
C       -1.25946102       6.42034138       3.96120900       0.00000000       0.00212369       0.00036217      -0.00615974
C       -2.47388683       8.57367500       3.89898184       0.00000000       0.00099302      -0.00082565      -0.00583772
C        4.91842210       0.02102886       3.75234618       0.00000000      -0.00400146      -0.00381888      -0.00496571
C        3.66653822       2.13066655       3.41150826       0.00000000       0.01067422       0.00251058       0.00966522
O        1.11715934       6.42763932       3.90802864       0.00000000      -0.00798144      -0.01348641       0.00958545
C       -0.01655157       8.54129403       3.88248675       0.00000000      -0.00490565      -0.00090535       0.00829855
C        7.38432291      -0.01518393       3.76587509       0.00000000       0.00607022       0.00882577      -0.01083319
C        6.16219833       2.14053890       3.51068934       0.00000000      -0.00768693       0.00163507      -0.00940096
C        5.03998639       4.33045114       3.14532082       0.00000000      -0.00317372      -0.00652628       0.00427591
C        3.80535280       6.43521488       3.47443330       0.00000000      -0.00236932       0.00113012       0.00389860
C        2.43057960       8.49124696       3.78801030       0.00000000      -0.00327126      -0.00339503       0.00609229
C        9.83921042      -0.02016586       3.81852213       0.00000000       0.01398154       0.00324137       0.00294690
C        8.61189716       2.13227425       3.75791774       0.00000000      -0.00222520       0.00185466      -0.00506478
C        7.41640734       4.28699664       3.59965699       0.00000000       0.00145568       0.00310415       0.00069892
C        6.23062137       6.45989562       3.54001116       0.00000000      -0.00717518      -0.00007202       0.00518938
C        4.92906161       8.54934032       3.72769733       0.00000000       0.00301388       0.00606789       0.00316947
C       -0.02844396       1.44721893       3.89117291       0.00000000      -0.00434922      -0.00079082       0.00104574
C       -1.27404078       3.56107879       3.92546395       0.00000000      -0.00000937       0.00428349      -0.00080449
C       -2.48202853       5.70260480       3.89553311       0.00000000       0.00742340       0.00291896      -0.00439084
C       -3.70543909       7.86219028       3.85484461       0.00000000       0.00314737      -0.00058026       0.00203060
C       -4.94447563      10.01100590       3.86588270       0.00000000      -0.00842893      -0.00784662       0.00816958
C        2.42473055       1.49069160       3.73621810       0.00000000       0.00480076      -0.00031883       0.00168392
O        1.10292208       3.54327310       4.10309764       0.00000000      -0.00275986       0.00269091      -0.00650821
C       -0.07895107       5.68966807       3.97482593       0.00000000      -0.00578735      -0.00293608       0.00085830
C       -1.25512752       7.84955780       3.92949965       0.00000000      -0.00218616      -0.00351026      -0.00530483
C       -2.48663262      10.01003497       3.84548349       0.00000000      -0.00594842      -0.00190242      -0.00432459
C        4.91180529       1.44370410       3.54469427       0.00000000      -0.00042801      -0.00212327       0.00386834
P        3.61221902       3.59541343       2.40933529       0.00000000      -0.00176025      -0.00249715       0.00061722
C        1.18786076       7.83235288       3.86165990       0.00000000      -0.00813920      -0.00954096       0.00402836
C       -0.01750715       9.97480288       3.80102946       0.00000000       0.00103126       0.00634719       0.00605614
C        7.38160676       1.42042307       3.68129891       0.00000000      -0.00697877       0.00864656      -0.00569922
C        6.20029927       3.56776455       3.39575411       0.00000000      -0.00090811      -0.00256974       0.00115116
C        5.02366601       5.76133708       3.32899087       0.00000000      -0.00386316      -0.00610155       0.00156063
C        3.70086053       7.80152254       3.66518983       0.00000000       0.00579481       0.00512887       0.01085150
C        2.43818541       9.93322230       3.79895398       0.00000000       0.01239795       0.00560621      -0.00415469
C        9.84427368       1.41588568       3.83749673       0.00000000       0.00125055       0.00421562       0.00510540
C        8.62043443       3.56384153       3.75103287       0.00000000       0.00350030       0.00198457      -0.00089669
C        7.43020325       5.71757910       3.64331494       0.00000000       0.00047371       0.00845351      -0.00040481
C        6.18505806       7.86918300       3.70363752       0.00000000      -0.00589904       0.00293587      -0.00766386
C        4.91719502       9.97028762       3.81776603       0.00000000       0.00720038       0.00451090      -0.00134637
Cr       2.63327050       5.00234812       4.08226712       0.00000000       0.00743178      -0.00352924      -0.00827481
O        2.23796491       5.09693843       5.99357196       1.00000000       0.00624432      -0.01300164      -0.00400065
O        3.14448345       4.12027191       5.73883641       1.00000000       0.00668020      -0.00356530       0.00634329
