53
Lattice="12.336457 0.0 0.0 -6.168228499999997 10.683685154694365 0.0 0.0 0.0 15.0" Properties=species:S:1:pos:R:3:forces:R:3 energy=-468.3257702749054 free_energy=-468.3257702749054 stress="0.0028811985439408 -0.0006228281690109137 3.9769823501408515e-05 -0.0006228281690109137 0.0035895198926407627 -3.2905945386406276e-05 3.9769823501408515e-05 -3.2905945386406276e-05 -1.533505508819317e-05" pbc="T T T"
C        0.05027874       0.02417750       3.71311939      -0.00514467      -0.00112016      -0.01313306
C       -1.17748179       2.16218168       3.80115208      -0.01142095      -0.01416250       0.03081816
C       -2.40767324       4.29263435       3.81518858      -0.01189133       0.03693863       0.01983989
C       -3.64571595       6.42750474       3.73668996      -0.00560331       0.02014927      -0.04478948
C       -4.88995955       8.56432468       3.67571917       0.04670337      -0.01491612      -0.02757460
C        2.51987049       0.02183138       3.71454179       0.01175372       0.03291959       0.00264102
C        1.29119720       2.16139718       3.82507696       0.01216967       0.03068682       0.00931502
C        0.07776521       4.30668294       4.01896460       0.03114326       0.03006854      -0.00492005
C       -1.17336525       6.43252061       3.86073528      -0.01297375       0.00072886      -0.00678201
C       -2.41083133       8.56739325       3.73020583      -0.00777924      -0.05157923      -0.01326390
C        4.99024513       0.02086800       3.75123874       0.01491170       0.01919881      -0.01479248
C        3.74608656       2.16751040       3.81373780       0.00528659       0.04687876       0.01157312
N        2.51642430       4.18563285       4.30595058       0.02224094      -0.05417893      -0.00927013
N        1.18635345       6.48155004       4.36640336       0.00484224       0.00534453      -0.00791025
C        0.06164780       8.55446309       3.84295109      -0.00017896      -0.03409306      -0.01155203
C        7.46146049       0.00914342       3.79042223       0.00952502       0.00119762       0.00935863
C        6.21404282       2.16975470       3.79002504      -0.00381916       0.00003956       0.01307829
C        4.94127795       4.33464861       3.84871158      -0.00183985      -0.00956547      -0.00291362
O        3.81921161       6.47296440       3.64355149      -0.01707768      -0.04068199       0.04378539
C        2.52837087       8.50642815       3.84095368       0.00737066       0.01721468      -0.01972071
C        9.91624842       0.00965025       3.75163756      -0.02751545      -0.01919607       0.00584245
C        8.68687320       2.15779739       3.79670009      -0.01500666      -0.03091861      -0.03411896
C        7.44181705       4.29656421       3.76935206      -0.02103114       0.00393173      -0.00570760
C        6.21473627       6.43304204       3.68219628      -0.01461826      -0.00202701       0.00542551
C        4.98261843       8.56482722       3.65282172       0.00554337      -0.02398995       0.02631786
C        0.05321547       1.45175489       3.77289124       0.00494963       0.00863767      -0.01291122
C       -1.15965344       3.59219970       3.86683463       0.01976856       0.03137292       0.00540365
C       -2.40661760       5.71437539       3.79480030      -0.01878227       0.04449620       0.01418406
C       -3.64745721       7.85312876       3.70535881       0.01494929      -0.02191858       0.01638962
C       -4.88509826       9.99424352       3.69359959       0.01275133      -0.00858965      -0.01211843
C        2.51897382       1.44466070       3.77109949       0.00949502       0.06206423       0.03083062
C        1.31565223       3.57107965       4.03666227       0.03256761      -0.00283038      -0.01591358
C        0.05530156       5.74701997       4.08116978       0.00608376       0.02922345      -0.02312352
C       -1.17825219       7.85407966       3.79969342      -0.00812099      -0.02924574       0.04893396
C       -2.41113200       9.99406489       3.72351245       0.00577563      -0.02487159      -0.00325914
C        4.98530987       1.45161458       3.77326641      -0.01686103       0.04347441      -0.01109754
C        3.70960252       3.58179304       3.98477750       0.00743475       0.01028144      -0.01085846
C        1.26532854       7.81725229       4.01922727       0.01289882      -0.00955530      -0.01786559
C        0.05876066       9.98525896       3.78063600       0.02032635      -0.01608436       0.01502635
C        7.45286010       1.44529478       3.79058747      -0.00695751      -0.02225859      -0.02125237
C        6.18862100       3.60513075       3.79514269      -0.02089500      -0.01012353       0.01582703
C        4.99378747       5.74917914       3.72693400      -0.02855152      -0.02339417      -0.04449537
C        3.77891794       7.85086607       3.69472702      -0.01275489      -0.02054604      -0.01064386
C        2.52223128       9.95263960       3.78667488      -0.01154164       0.01203476       0.02245471
C        9.92208470       1.44491506       3.78060180      -0.02149135      -0.03948740      -0.00786192
C        8.68742876       3.58317230       3.79137726      -0.01666615       0.00024787      -0.00646276
C        7.45309130       5.71505248       3.72602683       0.00347146       0.02781534       0.02197656
C        6.21938048       7.85685530       3.64941716       0.03088658       0.00789595       0.01889739
C        4.98256280       9.99462690       3.70280185      -0.01713766      -0.00795450       0.00261664
Cr       2.37375178       5.60984403       5.68710229       0.03084062      -0.01308316       0.07154262
O        3.53332545       6.56516217       6.26076353       0.07665113      -0.00696176      -0.07563755
O        1.51290328       4.56325096       6.84475305      -0.16085236       0.02056451      -0.01761642
H        0.85577488       4.96194600       7.44908416       0.03617167       0.00992769       0.04548804
