51
Lattice="12.336457 0.0 0.0 -6.168228499999997 10.683685154694365 0.0 0.0 0.0 15.0" Properties=species:S:1:pos:R:3:initial_magmoms:R:1:forces:R:3 energy=-445.0558007265393 free_energy=-445.0558007265393 stress="-0.0021918311316347244 0.0027013229655939016 8.030354582355959e-06 0.0027013229655939016 0.003942296806853189 1.906627058941376e-05 8.030354582355959e-06 1.906627058941376e-05 5.946591842095275e-06" pbc="T T T"
C        0.01543293       0.01315503       3.72823157       0.00000000      -0.00080296      -0.01230056       0.00735552
C       -1.21375246       2.15458686       3.53741751       0.00000000      -0.00588560      -0.01248004      -0.00298992
C       -2.45750892       4.29266530       3.64474215       0.00000000      -0.00165830       0.00066365       0.00490396
C       -3.69907883       6.42885111       3.82180995       0.00000000       0.01112838       0.00657979       0.00173623
C       -4.92605500       8.56939144       3.87270233       0.00000000       0.00094774       0.00451468      -0.00776745
C        2.49164878       0.04776205       3.83041447       0.00000000      -0.01318227       0.00022390       0.00249155
C        1.27367563       2.12948793       3.40197096       0.00000000      -0.00080088       0.00620762       0.00725038
C       -0.04646463       4.36508738       3.25399447       0.00000000       0.00580772       0.00851863      -0.00201672
C       -1.26255222       6.46168356       3.61847559       0.00000000      -0.00260468      -0.00284170       0.00659517
C       -2.46106679       8.57536172       3.84959192       0.00000000       0.00360710      -0.00070056       0.00199499
C        4.95423332       0.01710640       3.88639055       0.00000000      -0.00776538       0.00440725      -0.01511616
C        3.76778103       2.14983525       3.82328077       0.00000000       0.00403361      -0.00578025       0.00344910
O        1.13539175       6.49410005       3.39863884       0.00000000      -0.01384752       0.00075158      -0.00380003
C        0.00701686       8.55475619       3.81348083       0.00000000       0.00136155      -0.00198086       0.00607175
C        7.43193740      -0.01551472       3.84640408       0.00000000       0.00738649      -0.00033527      -0.00769615
C        6.20937363       2.13770596       3.89791559       0.00000000       0.00758975       0.00100076       0.00148568
C        5.01114684       4.27249390       3.97713135       0.00000000       0.00504229      -0.00559189      -0.00213248
N        3.76985849       6.39949299       4.00838055       0.00000000      -0.00308615       0.00180827       0.00621042
C        2.46878556       8.48449712       3.83602577       0.00000000       0.00218588      -0.00030993      -0.00603355
C        9.88538176      -0.01320751       3.76046897       0.00000000       0.00036381       0.00494792       0.00641314
C        8.66735343       2.13837115       3.76610918       0.00000000      -0.01356851       0.00539320      -0.00106956
C        7.42931749       4.28425930       3.86426597       0.00000000       0.00273221      -0.00423198       0.00553002
C        6.18114716       6.41470731       3.92736561       0.00000000       0.00830554       0.00080709      -0.00796972
C        4.94019499       8.52894738       3.86647145       0.00000000      -0.00567864       0.00647034      -0.00872800
C        0.02814229       1.44153183       3.54475269       0.00000000       0.00131106      -0.01584725       0.00220745
C       -1.23623941       3.58547647       3.46201702       0.00000000       0.00245935      -0.00060804       0.00453975
C       -2.47936043       5.71770978       3.69831696       0.00000000       0.00314133       0.00135848      -0.00066024
C       -3.69705620       7.85695049       3.85503513       0.00000000       0.00472823       0.00648090       0.00978968
C       -4.91605148      10.00205743       3.81882210       0.00000000      -0.00395194      -0.00427064      -0.00069763
C        2.51542182       1.48231552       3.71093738       0.00000000      -0.00360222       0.00370776       0.01620876
P        1.34655605       3.62677960       2.47255751       0.00000000       0.00661199       0.00558401      -0.00600044
C       -0.09199026       5.77616201       3.37762539       0.00000000      -0.00208511       0.00397990       0.01435462
C       -1.24400974       7.87100236       3.77343393       0.00000000       0.00188796      -0.00618407      -0.00826988
C       -2.45503495      10.00823099       3.87963894       0.00000000      -0.01230350       0.00238864      -0.00179752
C        4.96543344       1.44801372       3.88699915       0.00000000       0.00744505       0.00313536      -0.00052978
O        3.83301140       3.53835481       3.96781665       0.00000000       0.00528477       0.00243334       0.00253548
C        1.21058305       7.86153082       3.76971881       0.00000000       0.00088700      -0.00012385       0.00148177
C        0.02118051       9.98098905       3.86993762       0.00000000       0.00025694       0.00329529      -0.00085609
C        7.43128287       1.42432429       3.84606223       0.00000000      -0.00030658       0.00056501       0.00615231
C        6.20413233       3.56276106       3.92331308       0.00000000       0.00700522      -0.00621619       0.00176762
C        4.95678792       5.69579225       3.98246119       0.00000000       0.00160901      -0.00301189       0.00260088
C        3.72827253       7.76991263       3.90325909       0.00000000      -0.00353082       0.00080248      -0.01043618
C        2.48714622       9.93328652       3.81739568       0.00000000       0.00950785       0.00060223      -0.00070495
C        9.89756127       1.42457769       3.68880131       0.00000000      -0.01684592       0.00088109      -0.00674929
C        8.65895102       3.56902854       3.76341642       0.00000000      -0.00455692       0.00124189       0.00309357
C        7.40881470       5.70506846       3.87819527       0.00000000       0.01381442      -0.00157186      -0.00807416
C        6.17935909       7.83966905       3.89585834       0.00000000      -0.00112376       0.00827489      -0.01190918
C        4.94866306       9.96451263       3.78255299       0.00000000      -0.00251496       0.00203087      -0.00500698
Cr       2.20148131       5.19655558       4.31047166       0.00000000       0.00174654      -0.00108544       0.00374190
O        2.22091007       4.16216028       5.92201581       1.00000000       0.00155624      -0.00759110       0.00381814
O        1.46352577       5.31430623       6.08799628       1.00000000      -0.01004242      -0.00599347      -0.00676778
