52
Lattice="12.336457 0.0 0.0 -6.168228499999997 10.683685154694365 0.0 0.0 0.0 15.0" Properties=species:S:1:pos:R:3:initial_magmoms:R:1:forces:R:3 energy=-456.61443283369357 free_energy=-456.61443283369357 stress="0.0034489296864519446 0.0005076880889596473 2.9438434242009023e-06 0.0005076880889596473 0.0038528855450809204 6.538182855387367e-05 2.9438434242009023e-06 6.538182855387367e-05 0.00013565292794951315" pbc="T T T"
C       -0.02837807      -0.04138511       3.67435498       0.00000000      -0.00099911       0.00628226      -0.00470571
C       -1.24821578       2.10746964       3.69252031       0.00000000      -0.00681148      -0.00224988       0.00644554
C       -2.47422824       4.23120311       3.73701147       0.00000000       0.00318178      -0.00807343       0.00542202
C       -3.72427397       6.36422412       3.77274740       0.00000000       0.00110407      -0.00478442      -0.01109357
C       -4.96730289       8.49904956       3.72998477       0.00000000       0.01173153       0.01026580      -0.00178710
C        2.44186459      -0.03466742       3.70666789       0.00000000       0.00120508      -0.01246563       0.00742271
C        1.21854052       2.11441086       3.74610335       0.00000000       0.01283192      -0.01650022       0.00096692
C        0.03975941       4.26816562       3.79206565       0.00000000      -0.00838557       0.00769236       0.00204096
C       -1.24108767       6.36761012       3.73782668       0.00000000      -0.01062034       0.02156241       0.00028109
C       -2.48587829       8.50058898       3.70656632       0.00000000      -0.00602269       0.00605999       0.00096485
C        4.91502477      -0.04292532       3.68133914       0.00000000       0.00145942       0.00238928      -0.00914784
C        3.67260655       2.10051931       3.79152120       0.00000000      -0.00986184      -0.00942635      -0.00383041
O        2.45130895       4.16881142       3.94824876       0.00000000      -0.00843780      -0.01172168      -0.00570457
O        1.14275071       6.41487265       3.80268195       0.00000000      -0.00598417       0.00226451      -0.00997826
C       -0.01697883       8.49125027       3.64096605       0.00000000      -0.01693138      -0.00272638       0.00630055
C        7.38592811      -0.05572047       3.62134327       0.00000000       0.00411192       0.00034035       0.00167221
C        6.14188980       2.09986669       3.70231568       0.00000000       0.00448969      -0.00414886       0.00567003
C        4.87136096       4.24218644       3.88827955       0.00000000       0.01118778       0.00001437       0.00440243
O        3.71882213       6.38800191       3.61527885       0.00000000      -0.00322529       0.00562729      -0.00098568
C        2.43978840       8.43684531       3.57062047       0.00000000      -0.00467792       0.01243684       0.01767279
C        9.83882258      -0.05559024       3.61206474       0.00000000       0.00451085       0.00193264       0.00703333
C        8.61521492       2.09309789       3.67188644       0.00000000      -0.00365802      -0.00064351      -0.00829563
C        7.37055384       4.23009851       3.76195727       0.00000000       0.00184251       0.00005013       0.00710341
C        6.13345983       6.36967177       3.87393727       0.00000000      -0.00122055       0.01634110      -0.01083793
C        4.89734994       8.48551457       3.63050408       0.00000000       0.01929102      -0.00236270       0.00006698
C       -0.02353604       1.38967519       3.69699222       0.00000000      -0.00078204       0.00619242      -0.00373288
C       -1.22280423       3.53843471       3.73429909       0.00000000       0.00630821      -0.00084815       0.01088549
C       -2.48514155       5.65231185       3.75359045       0.00000000       0.00010524      -0.00914719      -0.00676411
C       -3.72611339       7.78912864       3.74506749       0.00000000       0.00330286      -0.00211806      -0.00385544
C       -4.96279974       9.92827415       3.69941098       0.00000000      -0.00447539       0.00469908      -0.00730697
C        2.44420302       1.38291779       3.74114980       0.00000000       0.00328824      -0.01685058       0.01203137
C        1.21977540       3.49789663       3.83219812       0.00000000       0.01530198       0.01968360      -0.00342676
C       -0.02816923       5.69050537       3.78861955       0.00000000       0.02808392       0.01048265       0.01121863
C       -1.25710221       7.79221899       3.69357209       0.00000000      -0.01603640       0.01199444       0.00809389
C       -2.48935573       9.92933543       3.69660957       0.00000000       0.00523202       0.00134628       0.00107752
C        4.91521015       1.38484882       3.72050560       0.00000000      -0.00159702       0.00365637      -0.01016700
C        3.68164990       3.48219826       3.94350545       0.00000000      -0.02196097       0.02373416      -0.00191976
C        1.18057535       7.78059462       3.64311246       0.00000000       0.01073569      -0.02195825       0.01859945
C       -0.01738290       9.92432077       3.64018218       0.00000000       0.00274352       0.00307721      -0.00709950
C        7.38165017       1.37906415       3.65699970       0.00000000       0.00293317      -0.00623738       0.00014867
C        6.12608705       3.52712254       3.75783921       0.00000000       0.00551680      -0.00239154       0.01224541
C        4.90885062       5.67558483       3.97821024       0.00000000      -0.02192537       0.00415822       0.00342914
C        3.69677338       7.78538888       3.56054302       0.00000000      -0.00592240      -0.00708425       0.00620867
C        2.44268063       9.89108260       3.58732790       0.00000000       0.00440956       0.00854829       0.02032903
C        9.84717636       1.38145413       3.65300881       0.00000000      -0.00613311      -0.00295998      -0.00119101
C        8.61550912       3.51849090       3.71960674       0.00000000      -0.00192264      -0.00084995      -0.00040700
C        7.37236648       5.65240319       3.81641919       0.00000000      -0.00384606       0.00151422      -0.01233848
C        6.13959403       7.78554780       3.75090954       0.00000000       0.01966734       0.01352923       0.00657998
C        4.90363793       9.92158197       3.62945129       0.00000000       0.00382840       0.00080825       0.00185253
Cr       3.09053381       5.56839022       5.38355233       0.00000000      -0.01831766       0.00112453       0.02148727
O        2.18110584       6.30370593       6.91816646       1.00000000       0.06066134       0.06361135      -0.13984939
O        3.13897416       7.18513176       6.43848216       1.00000000      -0.05931065      -0.12587127       0.05677214
