51
Lattice="12.336457 0.0 0.0 -6.168228499999997 10.683685154694365 0.0 0.0 0.0 15.0" Properties=species:S:1:pos:R:3:initial_magmoms:R:1:forces:R:3 energy=-435.82909214667086 free_energy=-435.82909214667086 stress="-0.005083798868249904 -0.0012145922952563329 -8.663107438928993e-06 -0.0012145922952563329 -0.0056422651706531865 2.20027052850485e-05 -8.663107438928993e-06 2.20027052850485e-05 -2.8620190167700862e-05" pbc="T T T"
C        0.04908234      -0.02030892       3.78522890       0.00000000       0.00419560      -0.00515894       0.00823656
C       -1.19837677       2.11202841       3.62264258       0.00000000      -0.00093157      -0.00022903      -0.00838787
C       -2.42985593       4.25491477       3.72951729       0.00000000      -0.01155974      -0.00687475      -0.00387331
C       -3.63328932       6.39635202       3.90688612       0.00000000       0.00767945       0.00810781      -0.00635983
C       -4.88438101       8.52353193       3.86413786       0.00000000      -0.00497615      -0.00246797       0.00642883
C        2.51843627      -0.03774221       3.88933135       0.00000000       0.01114208      -0.00777273       0.00624069
C        1.29493315       2.05577541       3.51561417       0.00000000       0.00154540       0.00418074      -0.00293141
C       -0.12134904       4.23764118       2.93529783       0.00000000       0.00063659       0.00782234      -0.00006387
C       -1.23545954       6.41136200       3.38869825       0.00000000      -0.01171875      -0.00513776      -0.00958581
C       -2.40138129       8.52432890       3.78125872       0.00000000      -0.00390795      -0.00069219      -0.00457541
C        4.98752193      -0.01890275       3.98388297       0.00000000       0.00323551       0.00395256       0.01039004
C        3.71955404       2.06008319       4.25098655       0.00000000      -0.00640059      -0.00957617       0.00929137
S        1.21905214       6.50126280       2.21145638       0.00000000       0.00080426      -0.00677966      -0.00978866
C        0.04096002       8.55661271       3.52229563       0.00000000      -0.00418623       0.00334575       0.00195017
C        7.44895613      -0.00582483       3.90466644       0.00000000      -0.00062777       0.00564585      -0.00004005
C        6.22889434       2.11072459       4.27579175       0.00000000       0.00079955       0.00229745      -0.00843513
C        5.07032712       4.29979237       4.45156464       0.00000000       0.00217850      -0.00308467      -0.00460411
S        3.81263530       6.22608507       3.00006543       0.00000000      -0.00898674       0.00645852      -0.00707729
C        2.51997144       8.58260012       3.45185907       0.00000000       0.00773113       0.00324933       0.00269477
C        9.92024873      -0.00728066       3.81832235       0.00000000      -0.00894630      -0.00283587      -0.00993593
C        8.69041589       2.12031137       3.99358351       0.00000000       0.00237047      -0.00611635      -0.00142561
C        7.48816167       4.25775405       4.17457442       0.00000000      -0.00215491       0.00203198       0.00600119
C        6.26350603       6.40876891       4.00542484       0.00000000       0.00010158      -0.00748826      -0.00171377
C        4.98794945       8.53167997       3.71448385       0.00000000       0.00324973       0.00534851       0.00053120
C        0.03949429       1.39810409       3.63052187       0.00000000       0.00246986      -0.00411649       0.00026423
C       -1.24057592       3.52429852       3.43688958       0.00000000      -0.00336970       0.00522818       0.00073112
C       -2.42515033       5.68246177       3.70244081       0.00000000      -0.00189285      -0.00581101      -0.00161627
C       -3.64042645       7.81566262       3.85959497       0.00000000      -0.00475646       0.00497737      -0.00804680
C       -4.88624850       9.94644968       3.83513452       0.00000000       0.00867134      -0.00519793       0.00012484
C        2.51249054       1.37742099       3.89306396       0.00000000       0.00137923      -0.00561140      -0.00689037
P        1.38849756       3.45060196       2.44285524       0.00000000       0.01260682       0.01226966      -0.00052319
C       -0.14658322       5.66549026       2.91800989       0.00000000      -0.01100499       0.00020131      -0.00465214
C       -1.18515860       7.82692165       3.54805516       0.00000000      -0.00654709      -0.00541102       0.00492896
C       -2.40889859       9.94677452       3.89896472       0.00000000       0.01003180      -0.00340464       0.00816976
C        4.98470225       1.39902292       4.20632827       0.00000000      -0.00216100       0.00399844       0.00137727
P        3.53737173       3.64139052       5.01828779       0.00000000       0.01944798      -0.00117020      -0.00114520
C        1.27117424       7.93101320       3.21827270       0.00000000       0.00877883       0.00954910       0.00445616
C        0.04701624       9.96250411       3.82824621       0.00000000      -0.00122838       0.00596818      -0.00066708
C        7.45478885       1.40876887       4.09096443       0.00000000       0.00439219       0.00098010       0.00416785
C        6.26708568       3.53731920       4.36087062       0.00000000      -0.00132787      -0.00102680      -0.00168497
C        5.08672541       5.65047948       4.03120233       0.00000000      -0.00679286      -0.00012135       0.00270588
C        3.75791427       7.90072046       3.44564841       0.00000000       0.00912037       0.00558713      -0.00033619
C        2.51477608       9.98232251       3.75245562       0.00000000      -0.00657970      -0.00000224      -0.00066546
C        9.91951627       1.41461740       3.83566355       0.00000000       0.00131551      -0.00483196       0.00180632
C        8.70181190       3.54498530       3.99830657       0.00000000      -0.00859914      -0.00774818       0.00257430
C        7.49005881       5.68240851       4.07548924       0.00000000       0.01026818       0.00515955       0.00501379
C        6.22461005       7.81659705       3.83505766       0.00000000      -0.00399075      -0.00369983       0.00662097
C        4.98518293       9.96170994       3.78607817       0.00000000      -0.00461968       0.00428171      -0.00426762
Cr       2.07309481       5.52761721       4.32939659       0.00000000      -0.00733421       0.00956652       0.00193257
O        0.89784921       6.36446321       5.69030599       1.00000000       0.00322063      -0.00182484       0.00149830
O        2.14325357       6.80994113       5.83625041       1.00000000      -0.00277119      -0.00601582       0.01115623
