52
Lattice="12.336457 0.0 0.0 -6.168228499999997 10.683685154694365 0.0 0.0 0.0 15.0" Properties=species:S:1:pos:R:3:initial_magmoms:R:1:forces:R:3 energy=-449.5320509488032 free_energy=-449.5320509488032 stress="-0.005947623742264224 -0.0010262768778619997 8.117663386079612e-06 -0.0010262768778619997 -0.00977142670055787 -7.594153926943198e-06 8.117663386079612e-06 -7.594153926943198e-06 2.8201367171869484e-05" pbc="T T T"
C       -0.01998677      -0.05877536       3.92627813       0.00000000       0.00095769       0.00040907       0.00448889
C       -1.27503821       2.05712519       3.94821765       0.00000000       0.00694003       0.00996107       0.00092357
C       -2.51575796       4.20429437       3.99542295       0.00000000      -0.00410128      -0.00058316       0.00467652
C       -3.73285077       6.34829028       3.98798706       0.00000000       0.00382764      -0.00307758       0.00305569
C       -4.95359225       8.48605580       3.93911873       0.00000000      -0.00066311      -0.00284090       0.00119845
C        2.44151581      -0.06311597       3.77884960       0.00000000       0.00604900      -0.00066857       0.00074552
C        1.18548577       2.04925288       3.56602303       0.00000000       0.00043446      -0.00073181       0.00684239
C       -0.08585732       4.15040212       3.63700544       0.00000000      -0.00224400      -0.00447900      -0.00553243
C       -1.27151868       6.33737214       3.86279278       0.00000000       0.00235518      -0.00040018      -0.00244365
C       -2.48044191       8.47737843       3.89026205       0.00000000      -0.00156081      -0.00094302      -0.00086119
C        4.89743272      -0.05535106       3.79352387       0.00000000       0.00528317       0.00164159       0.01024349
C        3.67583037       2.05210524       3.44982853       0.00000000      -0.00167961      -0.00114004       0.01119377
P        2.35425892       4.08880272       2.19971062       0.00000000      -0.00198900       0.00132145       0.00834972
S        1.39315378       6.23085395       3.40568886       0.00000000      -0.00173516      -0.00671897      -0.00270229
C       -0.03540259       8.50481057       3.72959054       0.00000000      -0.00106409       0.00176737      -0.00784581
C        7.35840609      -0.03493571       3.87029179       0.00000000      -0.00178766      -0.00540218       0.00070735
C        6.12974487       2.07221307       3.79050806       0.00000000       0.00192401      -0.00441549       0.00366904
C        4.93533434       4.17125090       3.39931300       0.00000000       0.00235825      -0.00023658      -0.00118050
S        3.90443807       6.54346492       2.41734877       0.00000000       0.00027624       0.00420209       0.00375031
C        2.44146351       8.58112086       3.60676532       0.00000000       0.00184511       0.00266508      -0.00738046
C        9.84349493      -0.04010719       3.96340293       0.00000000      -0.00085219       0.00816512      -0.00764526
C        8.59319296       2.07975784       4.00122484       0.00000000      -0.00337241       0.00221252      -0.00177083
C        7.35919078       4.20833394       3.92097642       0.00000000      -0.00468747       0.00666435       0.00478646
C        6.14905130       6.35430879       3.84504775       0.00000000      -0.00438218      -0.00054292      -0.00991906
C        4.92725273       8.50560210       3.86001262       0.00000000       0.00073523      -0.00601707      -0.00295372
C       -0.03686185       1.35204108       3.84616209       0.00000000       0.00391041       0.00359373       0.01087567
C       -1.29993880       3.47021305       3.90054305       0.00000000      -0.00221047       0.00430709      -0.00100881
C       -2.51249975       5.62739395       3.97182699       0.00000000       0.00432288      -0.00174106       0.00298815
C       -3.72078175       7.76979607       3.95232277       0.00000000      -0.00227456      -0.00374423      -0.00226030
C       -4.95537222       9.90992235       3.89396519       0.00000000       0.00294295       0.00012648      -0.00342620
C        2.43507892       1.34610428       3.56841064       0.00000000      -0.00037580      -0.00093255       0.00031937
C        1.11257821       3.43773955       3.28706818       0.00000000       0.00019628      -0.00215785       0.00381429
C       -0.11972937       5.55346981       3.70690927       0.00000000      -0.00197181      -0.00843743       0.00166443
C       -1.25011612       7.76485303       3.82973538       0.00000000      -0.00100488      -0.00006583      -0.00728583
C       -2.49453252       9.90497030       3.82107656       0.00000000       0.00665360      -0.00027490      -0.00198760
C        4.90285383       1.36004422       3.69388586       0.00000000       0.00234931      -0.00143768      -0.00065430
C        3.74201031       3.44017534       3.12213141       0.00000000       0.00241947      -0.00305833       0.00715365
C        1.22100298       7.90783071       3.53303598       0.00000000       0.00117862       0.00707957       0.00501387
C       -0.03663765       9.93251274       3.81421502       0.00000000       0.00062778      -0.00117278      -0.00590403
C        7.35927750       1.37706572       3.92044985       0.00000000      -0.00101615      -0.00622161      -0.00117224
C        6.13925626       3.49202518       3.72789687       0.00000000       0.00211117      -0.00074231      -0.00085401
C        4.93065912       5.61848428       3.56537886       0.00000000      -0.00867299       0.00488760      -0.00528389
C        3.68407240       7.83726522       3.61461557       0.00000000      -0.00115262      -0.00526488       0.00161312
C        2.43682536       9.96519256       3.83820003       0.00000000      -0.00053274       0.00073429       0.00162344
C        9.82935375       1.36747824       4.01409188       0.00000000       0.00445426       0.01114144      -0.00601092
C        8.58783626       3.49876823       4.00472772       0.00000000      -0.00663792       0.00260248       0.00342573
C        7.36389856       5.63572825       3.94598939       0.00000000      -0.00129289       0.00437854      -0.00743157
C        6.14220361       7.77199092       3.88545991       0.00000000       0.00000572      -0.00562443       0.00329052
C        4.91234496       9.92160741       3.95419279       0.00000000      -0.00130164      -0.00274436      -0.00399183
Cr       3.26286853       6.07319757       4.99552395       0.00000000       0.00285803      -0.00244644       0.00313547
O        4.05377716       7.27075794       6.36547506       1.00000000       0.00029294      -0.00642981      -0.00193997
O        2.72133767       7.42852584       6.35447386       1.00000000      -0.00874600       0.01283302      -0.01010218
