51
Lattice="12.336457 0.0 0.0 -6.168228499999997 10.683685154694365 0.0 0.0 0.0 15.0" Properties=species:S:1:pos:R:3:initial_magmoms:R:1:forces:R:3 energy=-437.7444908748569 free_energy=-437.7444908748569 stress="-0.004244026801790335 -0.0026044493888273076 -4.16537048266966e-06 -0.0026044493888273076 -0.0009683606716157466 3.5526765623637614e-07 -4.16537048266966e-06 3.5526765623637614e-07 -1.8663204659275337e-05" pbc="T T T"
C        0.01629260      -0.05461316       3.78589799       0.00000000      -0.00722473      -0.01608354      -0.00162513
C       -1.24089594       2.07530564       3.69235367       0.00000000      -0.00609840      -0.00577196       0.00305818
C       -2.48951763       4.21421148       4.00101570       0.00000000      -0.00386193       0.00039725       0.00864536
C       -3.69365989       6.36263096       4.11056467       0.00000000       0.00438702       0.00675534       0.00316428
C       -4.90593274       8.50718075       3.99141233       0.00000000      -0.00087864       0.00549287       0.01123043
C        2.48820900      -0.05689001       3.73871319       0.00000000       0.00645454       0.00040861      -0.00693120
C        1.21674626       1.99970202       3.23572905       0.00000000      -0.00485517      -0.01001220       0.00679341
C       -0.12795042       4.26753367       3.54035964       0.00000000       0.00053983      -0.00200400       0.01397002
C       -1.23752705       6.34369503       4.10289238       0.00000000       0.00088468       0.00659258      -0.00758499
C       -2.43876394       8.49476481       4.04638246       0.00000000      -0.01358163       0.00368862       0.00836545
C        4.95228215      -0.06146133       3.79143477       0.00000000      -0.00632327      -0.00271706      -0.01224701
C        3.73260894       1.99198435       3.19423077       0.00000000       0.00211306       0.00812942      -0.00902587
B        1.23978974       6.32258206       4.40839008       0.00000000       0.01556329      -0.00287395      -0.00045113
C        0.03481041       8.48426626       4.00913009       0.00000000      -0.00638942       0.00024832       0.00141680
C        7.41420162      -0.06016120       3.83277789       0.00000000      -0.00091273       0.00001958      -0.00350223
C        6.17241669       2.08775210       3.65658474       0.00000000       0.00296047      -0.01147847      -0.00046710
C        5.06381422       4.29708212       3.34627232       0.00000000       0.00888630       0.00159700       0.00110643
N        3.82218700       6.40682457       3.46866416       0.00000000      -0.00503742       0.00471300       0.01071727
C        2.49420234       8.46912867       3.82119267       0.00000000       0.01101351       0.00500742      -0.00375452
C        9.88098962      -0.06283799       3.80993560       0.00000000      -0.00617390       0.00381112       0.00682356
C        8.63340201       2.08034145       3.87078401       0.00000000       0.00370908      -0.00461567       0.00420257
C        7.40293362       4.22822675       3.94733680       0.00000000       0.00356234      -0.00215737       0.00613556
C        6.20344053       6.38660926       3.90297059       0.00000000      -0.00400746       0.00326162       0.00773242
C        4.96705891       8.49178967       3.82825143       0.00000000       0.00543441       0.00029809       0.01205957
C        0.00328274       1.36499497       3.58900085       0.00000000      -0.00705390      -0.01529003       0.00954371
C       -1.28018946       3.49328121       3.76578930       0.00000000      -0.00493767      -0.00209939       0.01250113
C       -2.47836591       5.63651659       4.10099904       0.00000000       0.00391166       0.00325368       0.00880011
C       -3.67765411       7.78900291       4.07685837       0.00000000      -0.00645843       0.00519175      -0.00406688
C       -4.91280728       9.92764626       3.86039384       0.00000000       0.00479365      -0.00133636      -0.01016285
C        2.47816791       1.34025655       3.36911197       0.00000000       0.00260430      -0.00180035      -0.01394674
S        1.03338955       3.54519525       2.45491002       0.00000000       0.00306579       0.00099226      -0.01600154
C       -0.05381870       5.59505530       3.95559763       0.00000000       0.00439658       0.00770809      -0.01306322
C       -1.20974957       7.77772598       4.10012333       0.00000000      -0.01290540       0.00510907      -0.00494891
C       -2.44673544       9.91772185       3.87645872       0.00000000      -0.00204328      -0.00404801      -0.01278444
C        4.94826554       1.36108864       3.55280622       0.00000000      -0.00416464      -0.00133104      -0.00058380
S        3.86329876       3.52370708       2.36730252       0.00000000       0.00255933       0.00644820       0.00841957
C        1.28180207       7.80195278       4.03302446       0.00000000       0.00842889       0.00509835       0.00117372
C        0.01927176       9.91533431       3.88437352       0.00000000      -0.00649833       0.00076722       0.00379410
C        7.39646203       1.37393644       3.80300655       0.00000000       0.00697707      -0.00584954      -0.00217123
C        6.18601873       3.52259072       3.68303538       0.00000000       0.00641015      -0.00786726      -0.00391121
C        4.99617962       5.70630760       3.57772494       0.00000000      -0.00125838       0.00583290      -0.01754034
C        3.75539375       7.74812762       3.70047071       0.00000000       0.01109270       0.00344411       0.00709685
C        2.48519689       9.90450116       3.81972481       0.00000000      -0.00004915       0.00621859      -0.01112853
C        9.87501324       1.36617066       3.81297923       0.00000000      -0.00344752      -0.00055342      -0.00580384
C        8.62206903       3.50057013       3.97727652       0.00000000       0.00126207      -0.00516347      -0.00910107
C        7.41034203       5.65163445       4.02157210       0.00000000       0.00272312       0.00501613      -0.00561835
C        6.20045966       7.80022794       3.93301060       0.00000000       0.00264804       0.00331903       0.01902149
C        4.95005180       9.91523598       3.83225172       0.00000000      -0.01120629      -0.00434146      -0.01185441
Cu       2.39557575       5.27711680       2.97822549       0.00000000      -0.00422997       0.00162066       0.00019907
O        2.52976715       6.78459581       6.12713107       1.00000000       0.00600076       0.00133188       0.00166688
O        1.86205602       5.73811911       5.60952326       1.00000000      -0.00278504      -0.00437822       0.01063861
