52
Lattice="12.336457 0.0 0.0 -6.168228499999997 10.683685154694365 0.0 0.0 0.0 15.0" Properties=species:S:1:pos:R:3:initial_magmoms:R:1:forces:R:3 energy=-453.73716451515713 free_energy=-453.73716451515713 stress="0.002437770622496671 0.0031528888434232236 -2.0405509773534905e-06 0.0031528888434232236 -0.005053908971299388 -2.6783252209899105e-05 -2.0405509773534905e-06 -2.6783252209899105e-05 2.4287377204986504e-05" pbc="T T T"
C       -0.04730298      -0.01964144       3.75009928       0.00000000       0.00307876      -0.00066435       0.00536380
C       -1.25121170       2.14251915       3.69193330       0.00000000       0.00036951      -0.00200925       0.00158791
C       -2.47280565       4.27402629       3.59182589       0.00000000       0.00202285       0.00507472      -0.00494289
C       -3.74049315       6.39236919       3.58787971       0.00000000      -0.00182109      -0.00170529       0.00513548
C       -5.00225671       8.51658758       3.69314734       0.00000000      -0.00234840      -0.00437096       0.00228727
C        2.41903800      -0.02951525       3.68652961       0.00000000      -0.00247724       0.00074523      -0.00280679
C        1.20409759       2.11677426       3.87750785       0.00000000      -0.00412562       0.00634156       0.00150868
C        0.00400137       4.27873962       3.81645351       0.00000000      -0.00056965      -0.00165126       0.00054023
C       -1.23421557       6.40590109       3.59235411       0.00000000       0.00504250      -0.00217835       0.00588621
C       -2.52191581       8.52792886       3.54860631       0.00000000       0.00140265       0.00041912       0.00077807
C        4.89197737      -0.01858295       3.49041342       0.00000000       0.00344354       0.00411383       0.00160873
C        3.68052700       2.08449664       3.73000333       0.00000000      -0.00434483      -0.00393258      -0.00235378
B        2.51478146       4.25430577       4.36065478       0.00000000       0.00356830      -0.00620015       0.00540205
C        1.26679381       6.48106992       3.69185420       0.00000000       0.00203408      -0.00199070       0.00365874
C       -0.05777470       8.55507862       3.46592535       0.00000000       0.00167287      -0.00267624       0.00237930
C        7.36377869       0.01043669       3.44541634       0.00000000      -0.00285858      -0.00094944       0.00489421
C        6.14724481       2.11261437       3.46827368       0.00000000       0.00180294       0.00482133       0.00109667
C        4.93374970       4.20724164       3.68175899       0.00000000      -0.00481206       0.00042210      -0.00501800
P        3.15704128       6.15233206       4.20817968       0.00000000      -0.00675765       0.00263007      -0.00109643
C        2.40569204       8.60699633       3.65546659       0.00000000       0.00158016      -0.00321907       0.00142076
C        9.84143033       0.01419733       3.62591354       0.00000000      -0.00361644      -0.00075170       0.00196018
C        8.61995221       2.14086532       3.49911803       0.00000000       0.00120039       0.00181248       0.00400055
C        7.38648528       4.26296830       3.51525325       0.00000000      -0.00155347      -0.00259589       0.00446257
C        6.08478087       6.37646219       3.69565414       0.00000000       0.00221699      -0.00115799       0.00053152
C        4.85611717       8.52170481       3.82510998       0.00000000       0.00100086       0.00429824       0.00461327
C       -0.03375881       1.40955648       3.77480962       0.00000000       0.00131953      -0.00004967      -0.00566546
C       -1.23780908       3.56921712       3.69009243       0.00000000      -0.00030011      -0.00042021       0.00246720
C       -2.47874369       5.69636120       3.58645836       0.00000000       0.00195357       0.00415591       0.00125852
C       -3.75746083       7.81464184       3.60991911       0.00000000      -0.00093004      -0.00254887       0.00414609
C       -4.98823757       9.94167759       3.72104754       0.00000000       0.00027242      -0.00473048       0.00104638
C        2.43117427       1.38485455       3.78961861       0.00000000      -0.00775338       0.00110609       0.00047818
C        1.19570751       3.54049079       4.00631083       0.00000000       0.00112354       0.00480970      -0.00495128
C        0.04387668       5.71777440       3.70860772       0.00000000       0.00215728      -0.00544741      -0.00705646
C       -1.27741373       7.82486459       3.51394860       0.00000000       0.00300199      -0.00231284      -0.00144374
C       -2.51583594       9.94830386       3.56600537       0.00000000       0.00207492       0.00391758      -0.00255690
C        4.91140541       1.39163786       3.53616468       0.00000000       0.00187539       0.00373243      -0.00155973
C        3.73835613       3.47706561       3.87057894       0.00000000      -0.00392869      -0.00406823      -0.00647121
C        1.18228656       7.87177289       3.56514045       0.00000000       0.00244400      -0.00270360      -0.00614422
C       -0.04231888       9.97129608       3.43617558       0.00000000      -0.00098573      -0.00220289      -0.00133998
C        7.38098393       1.42273512       3.44217606       0.00000000       0.00090012       0.00045918      -0.00105298
C        6.16627670       3.52906913       3.51007230       0.00000000      -0.00334494       0.00250226       0.00082966
C        4.86855084       5.62168625       3.75416222       0.00000000       0.00271364      -0.00010631      -0.00257292
C        3.57667553       7.86802868       3.90758632       0.00000000       0.00356845      -0.00103688      -0.00409275
C        2.43128878      10.00879401       3.54581166       0.00000000      -0.00384736      -0.00242119       0.00909471
C        9.85133829       1.43518691       3.59190116       0.00000000       0.00022938      -0.00142604      -0.00038576
C        8.62740066       3.56171185       3.51863849       0.00000000       0.00143036       0.00346596      -0.00237435
C        7.35460895       5.68279497       3.59337403       0.00000000      -0.00114536      -0.00316162      -0.00739430
C        6.09228585       7.80635118       3.75801833       0.00000000      -0.00263319       0.00050486       0.00088134
C        4.88347675       9.95570145       3.74010138       0.00000000       0.00014926       0.00387705       0.00051560
Cu       2.67896168       5.25012507       6.13249488       0.00000000       0.00699987      -0.00727836       0.00463086
O        3.18827747       6.81217910       8.08134018       1.00000000       0.00899485       0.01138340       0.00005490
O        2.78364312       5.60015452       7.94533270       1.00000000      -0.01149113       0.00537476      -0.01323972
