52
Lattice="12.336457 0.0 0.0 -6.168228499999997 10.683685154694365 0.0 0.0 0.0 15.0" Properties=species:S:1:pos:R:3:initial_magmoms:R:1:forces:R:3 energy=-451.01058778670404 free_energy=-451.01058778670404 stress="-0.0025082130474925854 0.004069882682159341 1.1893968860809397e-05 0.004069882682159341 0.0012530775417847716 3.311950550580511e-05 1.1893968860809397e-05 3.311950550580511e-05 1.9509729115353067e-05" pbc="T T T"
C       -0.01636587       0.01957665       3.72363471       0.00000000       0.00062360      -0.00127539       0.00049443
C       -1.22478042       2.16301403       3.61090570       0.00000000       0.00561891       0.00215740      -0.00403808
C       -2.44854607       4.29202885       3.52844646       0.00000000      -0.00143209       0.00104326       0.00092465
C       -3.71106364       6.42327988       3.60969005       0.00000000      -0.00072361      -0.00289203       0.00009240
C       -4.96591848       8.55955423       3.73863451       0.00000000      -0.00290713       0.00125111      -0.00404409
C        2.44588588       0.02962693       3.69672063       0.00000000      -0.00278073       0.00242125      -0.00885635
C        1.23372017       2.19983481       3.80514776       0.00000000       0.00117519       0.00143616      -0.00075400
C        0.01896864       4.34348211       3.65407464       0.00000000      -0.00044845       0.00164633       0.00478330
C       -1.25563756       6.44332256       3.50024150       0.00000000       0.00142263      -0.00235040      -0.00408259
C       -2.49675740       8.57065319       3.56241218       0.00000000      -0.00091529      -0.00149039      -0.00373832
C        4.92163774       0.01612270       3.53736739       0.00000000       0.00572292       0.00542427       0.00011846
C        3.71304156       2.14194212       3.76462455       0.00000000       0.00027468      -0.00286835       0.00089767
B        2.54814897       4.36359498       4.28608368       0.00000000      -0.01161639      -0.00023113       0.00259846
O        1.11287255       6.48266027       3.33061835       0.00000000      -0.00679870      -0.00022731      -0.00157088
C       -0.03648171       8.56304091       3.44695436       0.00000000       0.00455152       0.00384860       0.00169683
C        7.39808332      -0.00431060       3.46206590       0.00000000       0.00012077       0.00417049      -0.00551692
C        6.19173417       2.12215196       3.54517516       0.00000000       0.00206166      -0.00085406       0.00420984
C        5.01176924       4.21870283       3.87483456       0.00000000       0.00279484      -0.00308425      -0.00014620
P        3.47074786       6.21757939       4.55866643       0.00000000      -0.00537679      -0.00043548      -0.00356995
C        2.41021751       8.52987202       3.60419752       0.00000000      -0.00059621       0.00163025       0.00434666
C        9.86053990      -0.00161698       3.58925443       0.00000000       0.00109652      -0.00496714      -0.00649858
C        8.65217874       2.13879240       3.49328403       0.00000000      -0.00241559       0.00036457       0.00241083
C        7.43463461       4.27249009       3.59730197       0.00000000      -0.00265136       0.00214736       0.00054823
C        6.18283323       6.40659636       3.87049298       0.00000000       0.00134244       0.00368232       0.00280771
C        4.89094256       8.53491678       3.84021367       0.00000000       0.00370338      -0.00232250      -0.00499078
C       -0.00009196       1.45559380       3.70788298       0.00000000       0.00441513      -0.00034699       0.00427779
C       -1.21120641       3.59946613       3.57564498       0.00000000       0.00204864       0.00503147       0.00477056
C       -2.47483971       5.71255745       3.53853445       0.00000000       0.00155205      -0.00077817       0.00562453
C       -3.73055216       7.85269731       3.64079054       0.00000000      -0.00407169      -0.00329082      -0.00018298
C       -4.95608014       9.99046843       3.72879398       0.00000000      -0.00258843       0.00020669      -0.00096858
C        2.45814976       1.45511261       3.77327400       0.00000000      -0.00170790       0.00009721       0.00063957
C        1.23485670       3.64109630       3.88847740       0.00000000      -0.00392281      -0.00117109      -0.00341378
C       -0.04315709       5.76001432       3.51910968       0.00000000      -0.00152812      -0.00215358      -0.00117205
C       -1.27342859       7.86410241       3.48269992       0.00000000       0.00424051      -0.00053528      -0.00295158
C       -2.49250605       9.99913165       3.59652278       0.00000000       0.00251657       0.00395568       0.00251422
C        4.94359849       1.42768887       3.60021952       0.00000000       0.00301063       0.00246032      -0.00136401
C        3.77843430       3.53762280       3.93903124       0.00000000      -0.00093908      -0.00290436       0.00464974
C        1.16085154       7.85945214       3.47431124       0.00000000       0.00034427      -0.00090661      -0.00151572
C       -0.01351413       9.98752849       3.46664599       0.00000000       0.00423228       0.00466757       0.00359969
C        7.41791589       1.41956327       3.47518590       0.00000000      -0.00138638      -0.00044836       0.00570090
C        6.22293529       3.53582471       3.63656823       0.00000000       0.00366096      -0.00412678       0.00573651
C        5.01948949       5.62547748       4.05895935       0.00000000       0.00136666       0.00049935       0.00224369
C        3.62344727       7.83819622       3.90250896       0.00000000       0.00154296       0.00314915       0.00035733
C        2.44995372       9.95895190       3.52096850       0.00000000      -0.00288606       0.00118708      -0.00285987
C        9.87941210       1.43085401       3.54714669       0.00000000       0.00176619      -0.00120443       0.00018122
C        8.65974547       3.56541672       3.51884124       0.00000000      -0.00433797       0.00319526       0.00356803
C        7.41265793       5.69908519       3.68555228       0.00000000      -0.00251753       0.00290664      -0.00180948
C        6.14047430       7.83620452       3.84582252       0.00000000       0.00164051       0.00230707      -0.00213660
C        4.91605899       9.97126748       3.71253637       0.00000000       0.00304659      -0.00516286      -0.00328655
Cu       2.38511417       5.30819013       6.10825397       0.00000000       0.00181448      -0.00278760       0.01506881
O        3.17513420       4.97298503       8.48091229       1.00000000      -0.00613583      -0.00635734      -0.01394224
O        2.05528380       5.28455035       7.91976273       1.00000000       0.00297663      -0.00571417      -0.00145188
