51
Lattice="12.336457 0.0 0.0 -6.168228499999997 10.683685154694365 0.0 0.0 0.0 15.0" Properties=species:S:1:pos:R:3:initial_magmoms:R:1:forces:R:3 energy=-435.97642772845273 free_energy=-435.97642772845273 stress="-0.0038615919842149944 -0.0027662744346717855 -1.8742945279201568e-05 -0.0027662744346717855 -0.0003806104658441713 6.014106641730708e-06 -1.8742945279201568e-05 6.014106641730708e-06 -1.3709081306775152e-07" pbc="T T T"
C        0.01524679      -0.02396330       3.73110736       0.00000000       0.00019689       0.00638676      -0.00317679
C       -1.23914061       2.11123309       3.63665092       0.00000000      -0.00591456      -0.00582789      -0.00790412
C       -2.47956959       4.25102463       3.94387990       0.00000000      -0.00185608      -0.00991423      -0.00692873
C       -3.68283471       6.39862626       4.06523168       0.00000000      -0.00392483       0.00549983       0.00834633
C       -4.90634379       8.53993319       3.95939760       0.00000000       0.00025711      -0.00074764       0.01158134
C        2.49107031      -0.03112121       3.64616824       0.00000000      -0.00784454       0.00425885      -0.01113072
C        1.21169963       2.02409011       3.16043824       0.00000000      -0.00440856      -0.00003157      -0.01269744
C       -0.10760589       4.30429162       3.51616591       0.00000000       0.01434410      -0.00091975       0.01069934
C       -1.22981179       6.38206102       4.06114957       0.00000000      -0.00148282      -0.00354890       0.00458822
C       -2.43254606       8.52976608       3.96732653       0.00000000       0.00396945       0.00275803      -0.00622705
C        4.95760712      -0.02402136       3.70187045       0.00000000      -0.00864425      -0.01085632      -0.00090665
C        3.72861419       2.03576084       3.15927154       0.00000000       0.00656429       0.00074449      -0.00140282
B        1.20652280       6.38796299       4.47848570       0.00000000       0.01724945       0.00676328      -0.00034796
C        0.04817494       8.52249076       3.95649246       0.00000000      -0.00653883       0.00625933       0.00086199
C        7.42059815      -0.02327550       3.77481812       0.00000000       0.00201227       0.00972555       0.00364009
C        6.17358733       2.13535062       3.61986963       0.00000000      -0.00257939       0.00077579       0.00487260
C        5.03867679       4.36623576       3.46823097       0.00000000      -0.00161354      -0.00037231      -0.00573023
O        3.80698650       6.44829215       3.75302695       0.00000000       0.00807526      -0.01798049       0.00132210
C        2.50320555       8.49791091       3.88844178       0.00000000      -0.00593193      -0.00423251       0.00402820
C        9.88149103      -0.02902406       3.78738311       0.00000000       0.00460835       0.00023296       0.00531246
C        8.63730024       2.12019012       3.81369781       0.00000000       0.00298575      -0.00400702       0.00400268
C        7.40764815       4.26728570       3.92968003       0.00000000      -0.00224408       0.00110934      -0.00580546
C        6.20491504       6.42396460       3.98766308       0.00000000      -0.00342766      -0.00406175      -0.00617131
C        4.96254938       8.52735087       3.90911962       0.00000000      -0.00779527      -0.00253590       0.00667380
C        0.00055530       1.39391152       3.52040500       0.00000000      -0.00215874       0.00283694      -0.00247131
C       -1.27040132       3.52915068       3.71657160       0.00000000       0.00544624      -0.00755272       0.00346077
C       -2.46657885       5.67471606       4.04313634       0.00000000      -0.00742123      -0.00637673      -0.00050416
C       -3.67030068       7.82480596       4.01953150       0.00000000       0.00663914       0.00461116       0.00357669
C       -4.91065180       9.95860117       3.79281213       0.00000000      -0.00197568       0.00075732      -0.00415673
C        2.47663962       1.36620617       3.29060652       0.00000000      -0.00180417       0.00537379      -0.01055032
S        1.01868243       3.58329239       2.37251058       0.00000000       0.00507270       0.00805454       0.01147064
C       -0.03713562       5.62890821       3.97831787       0.00000000       0.00792233       0.00700495       0.00182512
C       -1.20374497       7.81424886       4.03791826       0.00000000       0.00022904       0.00477960      -0.00435838
C       -2.44012625       9.95047404       3.78273958       0.00000000      -0.01102704      -0.00292647      -0.01222162
C        4.95064976       1.40360473       3.49350175       0.00000000      -0.00196038      -0.01059121      -0.00355304
S        3.81567518       3.63400904       2.46008888       0.00000000       0.00353190       0.01864645      -0.00008342
C        1.27605518       7.84176173       4.02137117       0.00000000      -0.00837362       0.00146943       0.00233619
C        0.02504229       9.95443159       3.80841865       0.00000000      -0.00159857       0.00558164      -0.00479788
C        7.39985660       1.41495771       3.74514587       0.00000000       0.00172423       0.00737225      -0.00081853
C        6.18517637       3.56986131       3.69465736       0.00000000      -0.00326196       0.00049101       0.00590292
C        5.01649363       5.74845571       3.74405020       0.00000000       0.00186809      -0.00844653      -0.00187158
C        3.76305539       7.82045665       3.87279249       0.00000000      -0.00370174      -0.01342707      -0.00386399
C        2.48977321       9.93760982       3.81261263       0.00000000       0.00233282       0.00106296      -0.00166692
C        9.87703781       1.40488339       3.76000323       0.00000000      -0.00303445      -0.00432671       0.00235040
C        8.63147139       3.53893543       3.92087383       0.00000000      -0.00325727      -0.00814031       0.01270856
C        7.42210726       5.68609264       4.02367540       0.00000000      -0.00444792       0.00158422       0.00001284
C        6.20461599       7.83984186       3.98479201       0.00000000      -0.00415701      -0.00388299       0.00995621
C        4.94805396       9.95217128       3.82652592       0.00000000       0.00238754       0.00415024       0.00616285
Cu       2.35121769       4.61130250       3.82856108       0.00000000       0.00199289       0.00267424      -0.00341932
O        2.32195264       4.84841246       5.71562377       1.00000000       0.01612428       0.00551947       0.00392657
O        1.85092374       6.17945520       5.77617355       1.00000000       0.00685202       0.00422257      -0.00685244
