51
Lattice="12.336457 0.0 0.0 -6.168228499999997 10.683685154694365 0.0 0.0 0.0 15.0" Properties=species:S:1:pos:R:3:initial_magmoms:R:1:forces:R:3 energy=-440.1334626977606 free_energy=-440.1334626977606 stress="-0.0022356404913503377 -0.0026684268796520845 -1.4911591621791025e-05 -0.0026684268796520845 -0.003900911430359874 -6.691522385857522e-07 -1.4911591621791025e-05 -6.691522385857522e-07 1.7179836243351732e-05" pbc="T T T"
C        0.01523651      -0.06573176       3.74746920       0.00000000       0.00695242       0.00327074      -0.00390720
C       -1.22158378       2.08849712       3.67697084       0.00000000       0.00001984      -0.00452761      -0.00591591
C       -2.45321509       4.22520899       3.75050722       0.00000000       0.00285261      -0.00704418       0.00125049
C       -3.66755596       6.35920553       3.83111397       0.00000000      -0.00168925      -0.00148692       0.00138791
C       -4.90297051       8.48955687       3.84638068       0.00000000      -0.00347836       0.00936594      -0.01046634
C        2.49814549      -0.09936562       3.69293591       0.00000000       0.00542568      -0.00448959      -0.00165960
C        1.25355275       2.01339179       3.57271002       0.00000000      -0.00319417      -0.00276953       0.00144039
C        0.00853280       4.26310192       3.84699277       0.00000000      -0.00314673      -0.00689937       0.00927142
C       -1.21472726       6.35281772       4.03753857       0.00000000       0.00096168       0.00236795      -0.00293260
C       -2.42125377       8.48489855       3.86714942       0.00000000      -0.00134801       0.00009144      -0.00107042
C        4.96293315      -0.05281589       3.62684214       0.00000000      -0.00248239      -0.00127142      -0.00110544
C        3.68998697       2.01273387       3.31406038       0.00000000      -0.00480602      -0.00699881      -0.00338661
B        1.12059789       6.48358274       4.79060715       0.00000000       0.00396220       0.00583911      -0.00077598
C        0.05113857       8.51197390       3.94544454       0.00000000      -0.00408941       0.00188364       0.00130476
C        7.42700571      -0.04039647       3.65867983       0.00000000      -0.00281445       0.00404491       0.00164161
C        6.17666475       2.11067806       3.44887715       0.00000000      -0.00463444       0.01038539       0.00550265
C        4.97683951       4.34576997       3.35680571       0.00000000      -0.00169322       0.00117536      -0.00153828
O        3.81544366       6.42961291       3.77780871       0.00000000       0.00070287      -0.01351843       0.00894116
C        2.50534954       8.48430151       3.91053412       0.00000000       0.00112536      -0.00675262       0.00292511
C        9.88574820      -0.05002532       3.71365469       0.00000000       0.00743173       0.00594853       0.00147412
C        8.64878051       2.09662398       3.60351886       0.00000000      -0.00223979       0.00287306       0.00756823
C        7.41516078       4.24046821       3.60927278       0.00000000      -0.00048270      -0.00331615       0.00057686
C        6.21483131       6.39348472       3.75041734       0.00000000      -0.00147963      -0.00088362       0.00040303
C        4.96509157       8.49939055       3.84486816       0.00000000      -0.00264329      -0.00141906      -0.00704820
C        0.00727039       1.35469789       3.67163617       0.00000000      -0.00186254      -0.00189329      -0.00446359
C       -1.21821820       3.51552549       3.73362789       0.00000000       0.00059725      -0.00977773       0.00563290
C       -2.44653768       5.64314147       3.86422332       0.00000000       0.00115541      -0.00389327       0.00243126
C       -3.66027524       7.77957109       3.86547311       0.00000000      -0.00460708       0.00373482      -0.00240309
C       -4.91212585       9.90441726       3.78305295       0.00000000       0.00564925       0.00756608      -0.00633791
C        2.48458523       1.30122299       3.53042138       0.00000000      -0.00344412      -0.00631748       0.00339934
B        1.31483162       3.50071561       3.61515772       0.00000000       0.00131375      -0.00068183       0.00613439
C       -0.02390611       5.62238104       4.18099879       0.00000000       0.00219518       0.00176522      -0.01214280
C       -1.19417189       7.78484146       3.98650067       0.00000000      -0.00129466       0.00273980      -0.00106397
C       -2.42604924       9.90154594       3.73204007       0.00000000       0.00178054      -0.00284989       0.00237519
C        4.94803601       1.37524489       3.43727471       0.00000000      -0.00208146      -0.00089180      -0.00496585
P        3.40261283       3.67961529       2.78701936       0.00000000       0.00731283       0.01476465      -0.00288826
C        1.27442124       7.84830278       4.12196093       0.00000000      -0.00385682       0.00008371       0.00067815
C        0.02893967       9.93551900       3.72385310       0.00000000      -0.00403977       0.00010968      -0.00709626
C        7.41145857       1.39199471       3.55447448       0.00000000      -0.00564245       0.00893237       0.00740044
C        6.17099887       3.55108058       3.44964334       0.00000000      -0.00280861       0.00507681       0.00785890
C        5.01289335       5.72364370       3.59797442       0.00000000       0.00104867      -0.00283961       0.00132444
C        3.76409988       7.80545457       3.87657142       0.00000000       0.00001848      -0.01111198      -0.00805696
C        2.49353582       9.91927947       3.74192385       0.00000000       0.00434084       0.00198597       0.00719377
C        9.88309300       1.38142985       3.65777006       0.00000000       0.00018036       0.00523047       0.00187847
C        8.64862721       3.51993647       3.64277948       0.00000000       0.00061002      -0.00187645       0.00481299
C        7.43581070       5.65456881       3.72943596       0.00000000      -0.00199914      -0.00428005      -0.00351852
C        6.20632258       7.79947438       3.83874257       0.00000000      -0.00221680       0.00271207       0.00596578
C        4.94942885       9.92194922       3.78347593       0.00000000       0.00833171       0.00276581      -0.00852294
Cu       2.42412726       4.85494358       4.40438826       0.00000000      -0.00083602      -0.00146893       0.01398715
O        2.44546115       5.39860055       6.24058200       1.00000000       0.00667997      -0.00658239      -0.00378721
O        1.48636245       6.43579900       6.21472279       1.00000000       0.00426268       0.01112848      -0.00970699
