51
Lattice="12.336457 0.0 0.0 -6.168228499999997 10.683685154694365 0.0 0.0 0.0 15.0" Properties=species:S:1:pos:R:3:initial_magmoms:R:1:forces:R:3 energy=-439.9797676619634 free_energy=-439.9797676619634 stress="-0.0007259906751584515 0.002461746051963197 8.32987699298836e-06 0.002461746051963197 -0.002529179271021542 -1.1798935722279042e-05 8.32987699298836e-06 -1.1798935722279042e-05 -7.966923503194579e-06" pbc="T T T"
C       -0.01319617       0.00962910       3.73563398       0.00000000       0.00074645      -0.00210176      -0.00220493
C       -1.21822976       2.18278329       3.91036678       0.00000000       0.00012780       0.00384122      -0.00290183
C       -2.45514032       4.30821259       3.97538659       0.00000000       0.00273308       0.00189352      -0.00366241
C       -3.70915595       6.43071095       3.85359788       0.00000000      -0.00377917       0.00866494      -0.00207045
C       -4.95811276       8.55366778       3.67892889       0.00000000       0.00224467      -0.00784344      -0.00394390
C        2.45454972      -0.01544606       3.75424893       0.00000000      -0.01069887      -0.00147034       0.01160857
C        1.24739396       2.11556639       3.85902405       0.00000000       0.00369982      -0.00590214       0.00164524
C        0.01878631       4.38879751       4.00370895       0.00000000       0.00956550      -0.00557043      -0.00491357
C       -1.25484654       6.45904940       3.93841731       0.00000000       0.00396150      -0.00339164       0.00514322
C       -2.48270589       8.55918322       3.81791563       0.00000000       0.00462018       0.01217209       0.00318402
C        4.92630435       0.00757012       3.83916066       0.00000000       0.00344081       0.00038767       0.00548722
C        3.68906780       2.09506545       3.86211509       0.00000000       0.00591473       0.00695580       0.00348488
O        1.15564131       6.49331894       3.86203481       0.00000000       0.00073267      -0.00584991      -0.00777896
C       -0.01724427       8.56918887       3.82588584       0.00000000      -0.00599209       0.00092812       0.00545027
C        7.39753591       0.02072927       3.85863209       0.00000000       0.00339248      -0.00084650       0.00438957
C        6.16685456       2.16012821       3.94469073       0.00000000      -0.00279118      -0.00385072       0.00573068
C        4.94848709       4.31778762       3.82164829       0.00000000      -0.00494359       0.00228066      -0.01393966
P        3.64692434       6.30964784       2.53156633       0.00000000       0.00036235      -0.00374355       0.00359625
C        2.42569633       8.55156713       3.60140715       0.00000000      -0.00537941      -0.00210005      -0.00288163
C        9.86010797       0.02440202       3.77903771       0.00000000       0.00455353       0.00609337      -0.00286796
C        8.64237824       2.16304147       3.94367857       0.00000000      -0.00763350      -0.00274201       0.00052657
C        7.41104675       4.29518128       3.91765432       0.00000000       0.00122501      -0.00295670       0.00663108
C        6.18771237       6.42759840       3.58172545       0.00000000      -0.00092772       0.00009374      -0.00012917
C        4.90367396       8.56164593       3.49999128       0.00000000       0.00430225      -0.00229938      -0.00205055
C        0.01112827       1.44908100       3.83209852       0.00000000       0.00136068      -0.00106898      -0.00609732
C       -1.19753689       3.62228962       3.98012482       0.00000000       0.00537168       0.00311053      -0.00113331
C       -2.47557118       5.72509938       3.94556056       0.00000000      -0.00336643       0.00369435      -0.01143705
C       -3.72150618       7.84958856       3.78000414       0.00000000       0.00680658       0.00939378       0.00488547
C       -4.95425960       9.97454446       3.71112522       0.00000000      -0.00645661      -0.01133031       0.00338412
C        2.46357223       1.40523835       3.80601070       0.00000000       0.00337976       0.00052246       0.00848712
B        1.33488896       3.62184889       4.06373117       0.00000000       0.00121489      -0.00729871       0.00041405
C       -0.03367353       5.78760706       3.93864629       0.00000000       0.00508775      -0.00692246      -0.00394270
C       -1.25593509       7.86767406       3.87241963       0.00000000      -0.00143872      -0.00015303       0.00099191
C       -2.47646698       9.97909379       3.79317356       0.00000000      -0.00259958       0.00996989      -0.00493239
C        4.92186413       1.43756981       3.87889492       0.00000000       0.00316988      -0.00126784       0.00354938
B        3.62853495       3.59705642       4.06365831       0.00000000      -0.00324163       0.00058117      -0.00295342
C        1.18056913       7.86783376       3.73061958       0.00000000      -0.00904793      -0.00250687      -0.00479038
C       -0.00664900       9.99508209       3.83977598       0.00000000       0.00305207      -0.00029880       0.01075974
C        7.40004036       1.45245690       3.92810573       0.00000000      -0.00524736      -0.00366708      -0.00257955
C        6.16395959       3.58663470       3.93227680       0.00000000      -0.00399108      -0.00142682      -0.00141925
C        5.00126928       5.66546254       3.42092909       0.00000000      -0.00188002       0.00689186      -0.00068744
C        3.65616708       7.88492057       3.31189160       0.00000000       0.00054407      -0.00317108      -0.00067978
C        2.45081450       9.98307159       3.76563818       0.00000000       0.00455191       0.00032273       0.00919399
C        9.88024757       1.45811587       3.88992924       0.00000000      -0.00355778       0.00691031      -0.00804974
C        8.64497293       3.58797098       3.96309354       0.00000000       0.00211864      -0.00431257       0.00296673
C        7.40729668       5.71573723       3.80688377       0.00000000      -0.00188462      -0.00029660      -0.00158559
C        6.14997323       7.84836379       3.55082574       0.00000000       0.00366379      -0.00431183      -0.00441340
C        4.91990786       9.99041403       3.67849123       0.00000000       0.00351930       0.00075711       0.00158506
Cu       2.29103784       4.58245892       2.32553115       0.00000000       0.00127696      -0.00056439      -0.00760248
O        2.90372106       5.27566385       5.33853906       1.00000000      -0.00350867       0.00488171      -0.00719800
O        2.49227938       3.94172434       5.09247510       1.00000000      -0.00837483       0.00891887       0.01575169
