53
Lattice="12.336457 0.0 0.0 -6.168228499999997 10.683685154694365 0.0 0.0 0.0 15.0" Properties=species:S:1:pos:R:3:forces:R:3 energy=-462.09104029350135 free_energy=-462.09104029350135 stress="-0.005036880952193107 -1.3692448310610982e-05 2.1755014688822957e-05 -1.3692448310610982e-05 -0.0015799113127981845 -2.6066775147260077e-05 2.1755014688822957e-05 -2.6066775147260077e-05 -1.4144892054060715e-05" pbc="T T T"
C        0.05388833      -0.00711493       3.68445475       0.00091685       0.00073603       0.00398381
C       -1.18595973       2.12171987       3.69109312      -0.00742063      -0.00494481       0.00386037
C       -2.41867821       4.26545047       3.67714941       0.00140720      -0.00701897       0.00559318
C       -3.64369144       6.40586066       3.66383894      -0.00022719       0.00246085      -0.00965513
C       -4.87323464       8.54857301       3.67319406       0.00653644       0.00552596       0.00107237
C        2.52378261       0.00568022       3.68722035       0.00272799      -0.00068328       0.00461207
C        1.28221289       2.13502325       3.77706980       0.00393037      -0.00820096      -0.00033876
C        0.02771048       4.26095028       3.85367602       0.00227812      -0.00194831      -0.00423393
C       -1.18645785       6.41099675       3.75623326      -0.00785792       0.00083994      -0.00289651
C       -2.41538952       8.54864948       3.67268041       0.00197246       0.00257242       0.00262085
C        4.99421423      -0.00730917       3.68716500      -0.00855439      -0.00636369       0.00227247
C        3.76552941       2.13396328       3.78004341       0.00124685       0.00287908      -0.00247458
B        2.52361813       4.31146800       4.10428171      -0.00576422      -0.00138538       0.00720168
C        1.23666813       6.41788648       4.12419945       0.00723661      -0.00433026       0.00846962
C        0.04887319       8.53400650       3.76748831       0.00454848       0.00024617       0.00229371
C        7.45966731      -0.02043185       3.70389705       0.00653565       0.00066720      -0.00158005
C        6.23437712       2.12103296       3.69222058       0.00195236      -0.00252727       0.00278147
C        5.02111688       4.26037378       3.85572308      -0.00715518       0.00303271      -0.00752532
C        3.81252896       6.41846527       4.12728245      -0.00370305       0.00251272      -0.00105596
C        2.52383414       8.52758038       3.87684847       0.00215483      -0.00078404      -0.01136414
C        9.92433043      -0.02016507       3.70346391       0.00179048       0.00221367      -0.00011975
C        8.69231179       2.12097603       3.65604544       0.00160374       0.00494041       0.00146079
C        7.46732830       4.26485977       3.67693276       0.00388075       0.00042235       0.00451332
C        6.23587033       6.41101313       3.75756303      -0.00253691      -0.00075066      -0.00407608
C        4.99909352       8.53436404       3.76854600      -0.00186785      -0.00070050       0.00069170
C        0.04883948       1.41403312       3.70647188      -0.00306008      -0.00179101      -0.00117696
C       -1.19432375       3.54848435       3.72385968       0.00079040      -0.00629587      -0.00318925
C       -2.41376406       5.69325903       3.68538082      -0.00647557      -0.00635400      -0.00010197
C       -3.64426200       7.83396983       3.66208396       0.00590355       0.00448390      -0.00104897
C       -4.87667075       9.97161180       3.67535627       0.00466818       0.00492587      -0.00149106
C        2.52355034       1.42919937       3.75082990       0.00660692      -0.00358575       0.00115450
C        1.23953401       3.54931882       3.89281521       0.00248712      -0.00694290       0.00052138
C        0.04923038       5.69793015       3.90431493      -0.00018180       0.00293063      -0.00027976
C       -1.18386567       7.83206429       3.72624096      -0.00071334       0.00352161       0.00870232
C       -2.41193283       9.97176841       3.67695197      -0.00618254      -0.00358176      -0.00581243
C        4.99939330       1.41351784       3.71041180      -0.00267431      -0.00426500      -0.00921000
C        3.80875240       3.54822765       3.89559791      -0.00797821       0.00579660      -0.00231480
C        1.28405291       7.80708567       3.91096690       0.00535240      -0.00219669       0.00248632
C        0.05728292       9.95538928       3.70893596       0.00020499       0.00185583       0.00137959
C        7.46277926       1.40431707       3.66934504       0.00674901       0.00175480       0.00011140
C        6.24289458       3.54763186       3.72334718      -0.00025013       0.00150811       0.00796111
C        5.00038436       5.69803825       3.90504312      -0.00517773       0.00165709       0.00225305
C        3.76408271       7.80753726       3.91192079      -0.00159536      -0.00090273      -0.00192226
C        2.52365890       9.94392296       3.74820935       0.00649592      -0.00026772      -0.00385634
C        9.92191502       1.40464665       3.66973727      -0.00624190       0.00075345      -0.00623357
C        8.69249707       3.54904675       3.65200974       0.00363690      -0.00004368       0.00155172
C        7.46325469       5.69280215       3.68611919       0.00085419       0.00068157      -0.00264946
C        6.23208957       7.83238564       3.72817855       0.00168879       0.00175227       0.00253937
C        4.99057874       9.95585496       3.70799748      -0.00000823       0.00068295       0.00163327
Cu       2.52516772       5.76839166       5.32963693      -0.00015736       0.00135085      -0.00361421
O        2.69065834       5.59764884       7.20984592      -0.00341980       0.00657800       0.00693544
O        1.52292397       6.29165321       7.65118705      -0.00558714       0.00185224      -0.01738836
H        1.09342231       5.59244165       8.17959204      -0.00136671       0.00472996       0.01695274
