52
Lattice="12.336457 0.0 0.0 -6.168228499999997 10.683685154694365 0.0 0.0 0.0 15.0" Properties=species:S:1:pos:R:3:forces:R:3 energy=-448.82804334036445 free_energy=-448.82804334036445 stress="-0.0052933942067524675 4.87009634059422e-05 -2.4984094809987786e-05 4.87009634059422e-05 0.0014644424722031612 2.6270647045493624e-06 -2.4984094809987786e-05 2.6270647045493624e-06 7.552445427856975e-07" pbc="T T T"
C       -0.02862889       0.04663479       3.76873675      -0.00120116       0.00073179       0.00568326
C       -1.27319439       2.16953103       3.74884965       0.00197409      -0.00167013       0.00911255
C       -2.53433821       4.31722683       3.61813653       0.00703084       0.00031222      -0.00052591
C       -3.74832282       6.46793154       3.58754277      -0.00217938      -0.00770555      -0.00171718
C       -4.95868693       8.61095362       3.67012069      -0.00347037      -0.00361830      -0.00113823
C        2.44978983       0.08008544       3.76133846      -0.00262324      -0.00089594       0.00741616
C        1.21620819       2.17675663       3.92186063      -0.00114961       0.00514783       0.00080609
C       -0.12676651       4.33147442       3.85976737       0.00379229       0.00327906       0.00085083
C       -1.31047819       6.47575780       3.72220485       0.00323033       0.00785064       0.00734558
C       -2.49996941       8.61367069       3.69915832      -0.00207542       0.00139552       0.00221119
C        4.90702729       0.06614757       3.74661546       0.00332387       0.00126728       0.00194003
C        3.69383788       2.25985422       3.79956450      -0.00000954      -0.00095073      -0.00423792
B        1.17023422       6.41732819       4.11820558      -0.00107984      -0.00010796      -0.00535551
C       -0.03260880       8.59366223       3.83302751      -0.00006625       0.00286614      -0.00622792
C        7.38017721       0.02927297       3.75090779       0.00253932      -0.00824554       0.00424527
C        6.14497396       2.17694902       3.65357594       0.00144390      -0.00085118      -0.00244710
C        4.90195019       4.30264158       3.63810350       0.00238571       0.00549164       0.00531323
N        3.75189573       6.44676960       3.86763484      -0.00182736       0.00312373      -0.00908011
C        2.45721037       8.56006925       3.87831533      -0.00583823      -0.00196698       0.00059360
C        9.84207528       0.02646532       3.75614533       0.00215432      -0.00316424      -0.00805477
C        8.60490638       2.16909829       3.64236440      -0.00357003       0.00166582       0.00849509
C        7.36150513       4.31894458       3.55512633      -0.00602884       0.00159506      -0.00377155
C        6.13748230       6.46571673       3.59383259      -0.00137800       0.00202036      -0.00108151
C        4.91411306       8.57271692       3.75430982      -0.00577528      -0.00325134      -0.00563063
C       -0.03115763       1.47333392       3.82055115       0.00073448       0.00120558       0.00163804
C       -1.30915925       3.59060027       3.71879956       0.00770226      -0.00198360       0.00498830
C       -2.53478333       5.74892030       3.61843357       0.00569941       0.00196183       0.00295073
C       -3.73195635       7.89723307       3.64068373      -0.00325470      -0.00613883      -0.00064089
C       -4.95586190      10.03772324       3.73750169      -0.00371438      -0.00108764       0.00446889
C        2.45662811       1.50671788       3.84094933      -0.00419934       0.00129562       0.00180939
B        1.17317902       3.64846820       4.10781891       0.00052164       0.00476281      -0.00310598
C       -0.12833910       5.73385392       3.86264221      -0.00012048       0.00334515       0.00561939
C       -1.27390598       7.89686689       3.75431905       0.00058425       0.00731799      -0.00646845
C       -2.49446349      10.04030433       3.73484842       0.00097291       0.00219154       0.00558031
C        4.91365196       1.49256331       3.72740709       0.00268667       0.00049949      -0.00291937
N        3.75303418       3.61453665       3.83657135       0.00449438       0.00013623       0.00256821
C        1.21552662       7.89010227       3.94350206      -0.00625726       0.00127968       0.00759001
C       -0.02899059      10.01974706       3.77392423       0.00122673      -0.00127992      -0.00139004
C        7.37787095       1.45542402       3.67176493      -0.00083850      -0.00696052      -0.00119806
C        6.13888807       3.59935485       3.58198005      -0.00262034       0.00034633       0.00568632
C        4.90352159       5.76148989       3.65336402       0.00173692       0.00448098      -0.00139637
C        3.69540233       7.80522558       3.84157558      -0.00754571       0.00061235      -0.01025659
C        2.44976635       9.98727278       3.79116272       0.00246386      -0.00524905      -0.00571706
C        9.83674210       1.45275610       3.70477310      -0.00049816      -0.00061198       0.00615125
C        8.58890391       3.59792160       3.58672185      -0.00114920       0.00553898      -0.00344549
C        7.36097811       5.74635932       3.55728472      -0.00592922      -0.00164651      -0.00236815
C        6.14442367       7.88880752       3.66615285      -0.00450257      -0.00111382      -0.00531649
C        4.90698517      10.00013447       3.76361161       0.00054406      -0.00384442      -0.00808881
Cu       2.44371393       5.03958039       4.56721236       0.01033309      -0.01013140      -0.00012405
O        3.46421182       4.99862042       6.17648065       0.00313953       0.00616355      -0.00213963
O        3.42902958       3.66454504       6.65728358      -0.00440059      -0.00560323      -0.00574812
H        2.84069684       3.74600083       7.43478592       0.01258816       0.00019364       0.00652819
