52
Lattice="12.336457 0.0 0.0 -6.168228499999997 10.683685154694365 0.0 0.0 0.0 15.0" Properties=species:S:1:pos:R:3:forces:R:3 energy=-443.9418968245494 free_energy=-443.9418968245494 stress="-0.002142586563891752 -0.001182867523260315 -1.0675203247671321e-05 -0.001182867523260315 -0.004228952651254382 -2.58899504577385e-05 -1.0675203247671321e-05 -2.58899504577385e-05 -1.2372332118667906e-05" pbc="T T T"
C        0.10076103      -0.08268071       3.85042971       0.00852403       0.00149378       0.00013122
C       -1.14281927       2.05745345       4.02299879      -0.00224520      -0.00476856       0.00595486
C       -2.38505916       4.19823433       3.96826210      -0.00185146      -0.00734876       0.01589240
C       -3.59195770       6.33556260       3.82019653       0.00352004      -0.00470752      -0.00144718
C       -4.81893123       8.47187126       3.77969764      -0.00701752      -0.00415820       0.01073678
C        2.57723336      -0.10288753       3.70857076      -0.00307552      -0.00198322      -0.00081878
C        1.36146516       2.00332308       4.04144896      -0.00035280       0.00552468      -0.00908043
C       -0.00280600       4.22389736       4.50626224      -0.00669817       0.00089323      -0.00975708
C       -1.15223620       6.34330510       4.14930728      -0.00609887      -0.00165331       0.00616330
C       -2.35012327       8.46323853       3.81327130       0.00026633      -0.00233049       0.00268366
C        5.04190260      -0.08030013       3.59751444      -0.01514289      -0.00714018       0.00516055
C        3.77642254       1.98958723       3.33597191       0.00151302      -0.00363188       0.00836448
B        1.21543474       6.51023306       4.92977616       0.00571755       0.00414432      -0.00175801
C        0.10917531       8.49110775       3.93340916      -0.00062155       0.00493456       0.01145429
C        7.50333686      -0.06531141       3.67709710      -0.00512433       0.00752851       0.01079002
C        6.26462598       2.07002390       3.42415690       0.00837925      -0.00250837       0.00228628
C        5.10430514       4.26272419       3.22932558       0.00821081       0.00138738      -0.00153808
C        3.83937056       6.34655874       3.67916689      -0.00186329      -0.00422403       0.00343518
C        2.55798626       8.47709285       3.92108428      -0.00487596       0.00733065      -0.01356924
C        9.96924149      -0.07165428       3.80210649       0.00165677       0.00371386       0.00479462
C        8.73343614       2.06812022       3.72039332       0.01285691       0.00532136       0.00940890
C        7.51045767       4.20825144       3.61582276       0.01280289      -0.00506238      -0.00201443
C        6.29622153       6.35807007       3.65908828       0.00415275      -0.00172102       0.00042756
C        5.04558281       8.46997673       3.79989501      -0.01456096       0.00382642       0.00260060
C        0.10070396       1.34057097       3.98797023      -0.00008924       0.00198017      -0.01077723
C       -1.17052996       3.47612100       4.17004510      -0.00662393      -0.00632698      -0.00380693
C       -2.37751920       5.62144969       3.96946631       0.00073709      -0.00851690      -0.00150171
C       -3.58796662       7.75740693       3.80584625      -0.00040471      -0.00166737      -0.00698229
C       -4.83074729       9.88700249       3.79099927       0.00322309      -0.00315005      -0.01359604
C        2.57037683       1.31629720       3.68820599      -0.00094628      -0.00224346       0.00263099
P        1.52196364       3.45992411       5.00775800       0.00013862       0.00027246       0.00541598
C        0.01097863       5.63102732       4.50275868       0.00039423      -0.00338604      -0.01664479
C       -1.12936409       7.76507077       3.97469409       0.00186705      -0.00230762      -0.00691325
C       -2.35313870       9.88283325       3.68623479      -0.01246128      -0.00646440      -0.00148375
C        5.03261970       1.34808446       3.42146926       0.00023011      -0.00790707       0.00128956
S        3.65998690       3.55256513       2.59936298      -0.01347753       0.00857616       0.00598094
C        1.33630074       7.84441001       4.15096503       0.00062198       0.01419737       0.00268680
C        0.10586876       9.90697134       3.70134700      -0.01096073       0.00361348       0.01239337
C        7.49462784       1.36410043       3.58785219       0.01407768       0.00800535      -0.01028793
C        6.27543917       3.50007056       3.40302233       0.01106089      -0.00076590      -0.00419292
C        5.04774640       5.66420978       3.50640162       0.00474679      -0.00128371       0.00363478
C        3.80428521       7.73040627       3.83157189      -0.01314177      -0.00158110      -0.01000675
C        2.56753437       9.90363771       3.78119132      -0.00226666       0.00664273      -0.00712314
C        9.96777947       1.35382215       3.84014497       0.00379157       0.00051209      -0.00262916
C        8.73199546       3.49123911       3.75752653       0.00989384      -0.00237423      -0.00289341
C        7.51357045       5.63021223       3.69147934       0.00781082      -0.00650815      -0.00691709
C        6.28216237       7.76982524       3.75994873      -0.01306044      -0.00024871      -0.00262861
C        5.03636130       9.89187303       3.82647547       0.00318222       0.00608835      -0.00346625
Cu       2.37250901       5.19706256       3.77597387       0.00468842      -0.00267897       0.00026882
O        1.76990010       6.53002188       6.24753034       0.01285059      -0.00381125       0.01442959
O        0.69782742       5.95147826       7.12382285      -0.01075399       0.01050785      -0.00651618
H        1.28295365       5.62974819       7.83970531       0.00679975       0.00596508       0.00933515
