52
Lattice="12.336457 0.0 0.0 -6.168228499999997 10.683685154694365 0.0 0.0 0.0 15.0" Properties=species:S:1:pos:R:3:forces:R:3 energy=-443.6110174623456 free_energy=-443.6110174623456 stress="-0.0037874246658609213 -0.0014462266538345355 -5.089343394802334e-06 -0.0014462266538345355 -0.009316353448587748 6.110134789334134e-06 -5.089343394802334e-06 6.110134789334134e-06 -5.285446576701753e-06" pbc="T T T"
C        0.03320658      -0.01714294       4.02212440       0.00742077      -0.00117395       0.00277666
C       -1.20881456       2.11592261       3.98104449      -0.00309600      -0.00011034       0.00518872
C       -2.43915300       4.25371528       3.83873177      -0.00420954      -0.00708820      -0.00793620
C       -3.66297012       6.38546824       3.80579934       0.00030231       0.00311110      -0.00047058
C       -4.89977426       8.51704668       3.92578821       0.00326042       0.00601588       0.00754397
C        2.50035668      -0.04973414       3.90389736      -0.00001343      -0.00514870      -0.00825300
C        1.26215180       2.10691829       3.82571622      -0.00315428       0.00024289       0.01563059
C        0.02401250       4.20890552       3.70765139      -0.00481214       0.00358522       0.00242324
C       -1.18452391       6.37753522       3.66807789       0.00437218      -0.00345614      -0.00426208
C       -2.42093735       8.50831480       3.83439531      -0.00498381       0.00757326      -0.00152254
C        4.96725494      -0.02867220       3.81573500      -0.00254188      -0.00936846      -0.00725972
C        3.71138649       2.01523844       3.46749631      -0.00447191      -0.00032957      -0.00374193
P        1.58516375       6.29724027       3.03673098      -0.01741205       0.00733036       0.00161335
C        0.04130791       8.53714956       3.75263389      -0.00797157      -0.00481600       0.00547720
C        7.42017031       0.01338188       3.93861109       0.00284003      -0.00361506      -0.00079576
C        6.19430341       2.12092335       3.66862752       0.00471586      -0.00606029      -0.00560947
C        5.02787311       4.28075510       3.31698581       0.00976893       0.00191712      -0.00347403
B        3.63463661       6.41352519       3.62108331      -0.00682651      -0.00262185       0.00776720
C        2.50571108       8.61376659       3.89031232       0.00836090      -0.00387299       0.00297979
C        9.90245712       0.01197865       4.06099879      -0.00033894       0.00928739       0.01042362
C        8.65602096       2.13386722       3.92577915       0.00000596       0.00323114       0.00016011
C        7.43558009       4.26156142       3.72135926       0.00995875      -0.00952714      -0.00187224
C        6.20037226       6.40314855       3.71652063      -0.00154109      -0.00036776       0.00253944
C        4.97534848       8.55118065       3.94736440       0.00333455       0.00021541       0.01333733
C        0.02542027       1.40190360       3.97663882      -0.00068896       0.00090169       0.00542732
C       -1.21927352       3.52458189       3.86230382      -0.00571289      -0.00248243      -0.00046438
C       -2.43000335       5.67347504       3.77577886      -0.00036459      -0.00738119      -0.01845711
C       -3.66186514       7.80521217       3.85815047      -0.00074739       0.01234618       0.00231787
C       -4.90329249       9.93691942       3.97779200       0.00418779       0.00185411      -0.00344306
C        2.49373771       1.35766596       3.76201417      -0.00272398      -0.00564544       0.00329668
C        1.23750818       3.50036593       3.73611055      -0.00305050       0.01051296       0.00682412
C        0.00420209       5.62061843       3.52253230       0.01021940       0.00552101      -0.00077244
C       -1.18645636       7.80634245       3.72924147      -0.00959691      -0.00465547      -0.00653622
C       -2.42852366       9.93053616       3.86301127      -0.00489534       0.00004993      -0.00655131
C        4.96577832       1.38894555       3.65272626      -0.00113581      -0.01044853      -0.00456425
P        3.56436831       3.54912278       2.62420111      -0.00170406       0.01629943      -0.00883510
C        1.30043439       7.90827954       3.66162262      -0.00124641       0.01242884      -0.01024062
C        0.03176978       9.96411382       3.85905749      -0.00000530      -0.00660534      -0.00082026
C        7.41788936       1.42951981       3.86712091       0.00610513       0.00044405       0.00167002
C        6.21248786       3.53947005       3.55698394       0.01088471      -0.00291331      -0.00260305
C        4.97732564       5.68461933       3.51053846      -0.00540011       0.00352552      -0.00547092
C        3.72783100       7.89609508       3.85228748       0.00654889      -0.00806291      -0.00050334
C        2.49209654      10.01452095       4.01961347       0.00441516      -0.00231607       0.00275466
C        9.89059527       1.42372751       4.02207040      -0.00498823       0.00690246      -0.00226829
C        8.65944546       3.55152107       3.84513466       0.00229022      -0.00730129      -0.00517381
C        7.43535329       5.68407844       3.75000547       0.00460899      -0.00682304      -0.00159017
C        6.20304711       7.81861802       3.87659636       0.00502961       0.00112392       0.00935349
C        4.96939537       9.97235285       4.04327940       0.00449573       0.00367655       0.00798417
Cu       2.62940929       4.68792295       4.32151092      -0.00927411       0.00363196       0.01122579
O        2.99934026       4.68350169       6.19570557      -0.00304444      -0.00269928       0.00061384
O        1.73353232       4.98260321       6.80572377       0.00343746      -0.00243262       0.00076231
H        2.02873382       5.57230983       7.52698361      -0.00061157       0.00559501      -0.00659959
