52
Lattice="12.336457 0.0 0.0 -6.168228499999997 10.683685154694365 0.0 0.0 0.0 15.0" Properties=species:S:1:pos:R:3:forces:R:3 energy=-449.7807041130557 free_energy=-449.7807041130557 stress="0.0007467764128201617 0.0031142176139941228 5.4094597622182035e-05 0.0031142176139941228 0.00518542472441731 -4.061071117084229e-05 5.4094597622182035e-05 -4.061071117084229e-05 8.257203396080022e-05" pbc="T T T"
C        0.00455055       0.08730178       3.75888499       0.00162736      -0.01488805      -0.00267958
C       -1.21845646       2.22366852       3.71912813       0.01532052       0.00461614      -0.00569471
C       -2.44398384       4.35451444       3.65953787       0.00344166       0.01029765       0.00390791
C       -3.70098170       6.48835271       3.68723565      -0.00266342       0.00333551       0.00608627
C       -4.94955819       8.62585418       3.76175444       0.00471284      -0.01052678      -0.00233714
C        2.47266896       0.12526163       3.77064265      -0.00234411      -0.00450370       0.00161741
C        1.24828806       2.28854111       3.93650114      -0.00870513      -0.00699394       0.00267126
C        0.04404861       4.38607169       3.88636343      -0.01565036      -0.01371844      -0.00467435
C       -1.23246600       6.50292062       3.73287844       0.01203794      -0.00558971      -0.00701739
C       -2.47639007       8.63553689       3.71595232       0.01057406      -0.00416882      -0.01476487
C        4.93626381       0.08131000       3.69017324       0.00254575      -0.00628667      -0.00514176
C        3.74925085       2.22701928       3.73339726       0.00561085      -0.00438048      -0.02129835
O        1.14414152       6.52714775       3.52258839      -0.01307101      -0.00531601       0.00936734
C       -0.00586025       8.61486181       3.68605099      -0.00896927       0.00353270      -0.00329293
C        7.41492610       0.05356212       3.63274024      -0.00379469      -0.01218613      -0.01289235
C        6.19803076       2.19634018       3.62039398      -0.01299956       0.01688854      -0.00249432
C        4.98787533       4.30394407       3.72367813      -0.00290699       0.00643240       0.00698629
B        3.70190972       6.43025654       4.37391312       0.00519513      -0.01921114       0.02176226
C        2.45678644       8.56773584       3.72653463      -0.00261876       0.00895830      -0.00952051
C        9.87275725       0.06158178       3.67308096      -0.00437007       0.00861052       0.00089723
C        8.65841861       2.20480440       3.60768654      -0.00886070      -0.00814216       0.00441274
C        7.42897337       4.34342279       3.62583262       0.00272030      -0.00467932       0.00089048
C        6.15471151       6.44574148       3.78663727       0.00120885      -0.00321680      -0.00048924
C        4.90625549       8.60316114       3.80995359      -0.00678560       0.01134055       0.00656834
C        0.01577870       1.52177390       3.78921522       0.00672026      -0.00993281      -0.01387261
C       -1.21097020       3.65328595       3.72884078       0.00327180       0.00127287      -0.00184379
C       -2.46266802       5.77788876       3.69047623       0.00415939       0.01441399       0.01630346
C       -3.71255563       7.91750291       3.72248742       0.00780873       0.00047261       0.00974576
C       -4.93107380      10.06538340       3.77405035      -0.00477122      -0.00783958      -0.00148219
C        2.49958453       1.56607353       3.82898564      -0.00693353       0.00076872      -0.01496920
C        1.14551784       3.63554039       4.26140506       0.00340848       0.00492034       0.00017657
C       -0.00937906       5.82241895       3.77313016      -0.00194661      -0.01263050      -0.00843028
C       -1.24810297       7.92419667       3.70461008       0.00474333      -0.01141674       0.01948303
C       -2.47348636      10.07313915       3.72461273       0.00300532      -0.00201608       0.01317330
C        4.95375465       1.50606594       3.67628923      -0.00160276       0.00431028      -0.00264195
O        3.80036024       3.59964112       3.67571176       0.01669480      -0.00025085       0.00368430
C        1.19214539       7.89122399       3.66659472      -0.00912867       0.01485408       0.00545568
C        0.00590843      10.04350668       3.66581527      -0.00230165       0.00069792       0.01591873
C        7.42092702       1.48725845       3.60555667      -0.02251998      -0.00646641       0.00793258
C        6.20411039       3.61473834       3.62649061       0.00053367       0.00758246       0.00245683
C        4.96218813       5.69057457       3.88534167       0.01584501      -0.00100025      -0.01711867
C        3.68033225       7.90048511       3.89111967       0.00698086      -0.00041232       0.01087960
C        2.46940614      10.01087777       3.65744400       0.00086290       0.00496553       0.01062542
C        9.88257836       1.49354714       3.65124157       0.01381016       0.00254137      -0.00217918
C        8.66142583       3.63172208       3.61308496       0.00581873      -0.00188593       0.00413872
C        7.40860440       5.76167212       3.68002926       0.00628501      -0.00320627       0.00598804
C        6.15424300       7.89159319       3.80627565       0.00002999       0.00276061       0.01791930
C        4.93516768      10.04404950       3.73255494      -0.00277196       0.00835892       0.00752713
Cu       2.39430252       4.27889222       5.67627069      -0.01301643      -0.00064122      -0.00104573
O        2.87952399       6.00064085       5.31348382       0.02592683       0.02166362      -0.02334482
O        2.79212388       2.78146258       6.65371884       0.01147619       0.00532253      -0.01346492
H        2.34762455       2.83053824       7.51941716      -0.04364421       0.01258894      -0.02388513
