51
Lattice="12.336457 0.0 0.0 -6.168228499999997 10.683685154694365 0.0 0.0 0.0 15.0" Properties=species:S:1:pos:R:3:initial_magmoms:R:1:forces:R:3 energy=-438.10892620072514 free_energy=-438.10892620072514 stress="-0.006128126494456254 -0.001308272644211084 7.915029992631657e-06 -0.001308272644211084 -0.00603114812977931 1.5226597277428758e-05 7.915029992631657e-06 1.5226597277428758e-05 -2.1740656405024867e-05" pbc="T T T"
C       -0.02773172      -0.07507634       3.73451350       0.00000000      -0.00382557      -0.00433872       0.00752833
C       -1.28223679       2.05119176       3.95244452       0.00000000       0.00145102      -0.00375658       0.00068946
C       -2.52792189       4.19977492       3.85529055       0.00000000       0.00128432      -0.00134683      -0.00574898
C       -3.72618121       6.34292651       3.65056999       0.00000000      -0.00445489       0.00511642      -0.00331626
C       -4.94768075       8.48333203       3.61278539       0.00000000      -0.00267738       0.00258855       0.00951557
C        2.44657765      -0.08785878       3.63501165       0.00000000      -0.01589641      -0.00049292      -0.00451843
C        1.22524611       2.00460939       3.99361034       0.00000000       0.00073255       0.00594155      -0.00256274
C       -0.14930607       4.21695547       4.34531234       0.00000000       0.00080637      -0.00311635       0.00885361
C       -1.29589406       6.35114787       3.90446892       0.00000000       0.00248419      -0.00209339       0.01035273
C       -2.48897170       8.47443737       3.66998930       0.00000000       0.00307807       0.00457176      -0.00103802
C        4.90899535      -0.07261337       3.52858693       0.00000000      -0.00319001       0.00248468       0.01141827
C        3.64977071       1.99469331       3.25943102       0.00000000       0.00952071      -0.00225286       0.01125589
B        1.18358718       6.34867001       3.97779613       0.00000000      -0.00380518      -0.00413833       0.00910525
C       -0.03505869       8.48877179       3.72731852       0.00000000       0.00071466       0.00064640       0.00453492
C        7.37276287      -0.06582052       3.57219850       0.00000000       0.00394233       0.00016947       0.00419485
C        6.13801589       2.06720027       3.32162496       0.00000000       0.00604591       0.00708484       0.00247427
C        5.00199629       4.25552986       3.00105081       0.00000000      -0.00239161      -0.00244708       0.00808330
C        3.74458166       6.35116761       3.45149949       0.00000000       0.00786429      -0.00047342      -0.00253894
C        2.45088642       8.48465737       3.66007471       0.00000000      -0.00642152      -0.00232346      -0.00423279
C        9.84185892      -0.06881583       3.67324531       0.00000000       0.01007420       0.00339014      -0.00522456
C        8.60065360       2.06645657       3.63063776       0.00000000      -0.00716503       0.00243881       0.00393938
C        7.38487591       4.20990194       3.46351864       0.00000000       0.00252023       0.00158514      -0.01846668
C        6.18081170       6.36923440       3.41710235       0.00000000       0.00311511      -0.00146647      -0.01084290
C        4.92528193       8.48154173       3.57526373       0.00000000      -0.00053394      -0.00758632       0.00021404
C       -0.03318107       1.34263692       3.91512936       0.00000000       0.00222055      -0.00330342      -0.00915603
C       -1.31923843       3.47045265       4.08241422       0.00000000       0.00411386      -0.00330353      -0.00335694
C       -2.51860821       5.62689917       3.81112552       0.00000000      -0.00239306       0.00130465      -0.00497770
C       -3.72096172       7.76643919       3.64377433       0.00000000       0.00076115       0.00756791      -0.00386776
C       -4.95938793       9.89792468       3.67164428       0.00000000      -0.01132566      -0.00053776       0.00242061
C        2.44091135       1.33259851       3.63964569       0.00000000      -0.00321123      -0.00176594      -0.00694970
P        1.34042130       3.48861816       4.93977888       0.00000000       0.00096621       0.01230613       0.01336686
C       -0.11067143       5.62006509       4.13615373       0.00000000       0.00202180      -0.00331127       0.00942467
C       -1.26251141       7.76746964       3.76327326       0.00000000       0.00419159      -0.00029914       0.00457913
C       -2.48757138       9.89443850       3.59950100       0.00000000      -0.01082627       0.00467484      -0.00993033
C        4.90519197       1.35156901       3.35275792       0.00000000       0.00885208       0.00180572       0.00242733
S        3.57095345       3.48922674       2.39109152       0.00000000      -0.00244075       0.00478954      -0.00518006
C        1.21592201       7.80931097       3.78491548       0.00000000      -0.00489459      -0.00666489      -0.00625025
C       -0.02886036       9.90710862       3.60074933       0.00000000       0.00022728       0.00059115      -0.00822884
C        7.36466868       1.36138961       3.49677424       0.00000000      -0.00225951       0.00123675       0.00415825
C        6.15824114       3.49572488       3.24221234       0.00000000       0.00141264       0.00431331       0.00288900
C        4.94596674       5.66969007       3.24695668       0.00000000       0.00495058      -0.00437711       0.00969958
C        3.68320192       7.73939457       3.56987791       0.00000000      -0.00508941      -0.00259987      -0.00473256
C        2.44395760       9.90665290       3.62525441       0.00000000       0.00807517       0.00126254      -0.00146360
C        9.83328536       1.35183504       3.75354637       0.00000000      -0.00197560       0.00523296      -0.00707434
C        8.59733169       3.49071234       3.64879494       0.00000000      -0.00228250       0.00084475      -0.00201116
C        7.38949627       5.63483683       3.50009340       0.00000000      -0.00213636      -0.00125680       0.00036641
C        6.15840555       7.78095810       3.53982221       0.00000000       0.00186340      -0.00295636      -0.00350017
C        4.91034483       9.89936821       3.66578081       0.00000000       0.00360824      -0.00735595      -0.00260376
Cu       2.52420130       5.02055876       3.78972724       0.00000000       0.00466738      -0.00268835      -0.00785844
O        2.88474891       6.08997654       8.73648134       1.00000000       0.00439469       0.00689246       0.00216855
O        3.43921292       7.17180932       8.96355524       1.00000000      -0.00676408      -0.01258734       0.00197170
