52
Lattice="12.336457 0.0 0.0 -6.168228499999997 10.683685154694365 0.0 0.0 0.0 15.0" Properties=species:S:1:pos:R:3:initial_magmoms:R:1:forces:R:3 energy=-457.7444507404237 free_energy=-457.7444507404237 stress="-0.005785517035941522 -2.0619229079752533e-05 -1.5740737949670895e-05 -2.0619229079752533e-05 -0.0026114709369124737 -8.022964291440641e-06 -1.5740737949670895e-05 -8.022964291440641e-06 -1.8871141002628538e-05" pbc="T T T"
C       -0.00294482      -0.00224510       3.63609159       0.00000000      -0.00342120      -0.00580582       0.00595534
C       -1.24452984       2.12668332       3.64806531       0.00000000       0.00080679      -0.00196195      -0.00549682
C       -2.47816988       4.27063030       3.64505016       0.00000000      -0.00132222       0.00282872      -0.00516354
C       -3.70136132       6.41129502       3.63032864       0.00000000      -0.00173927       0.00164145       0.00505555
C       -4.93046962       8.55319075       3.63888820       0.00000000      -0.00207067       0.00042061      -0.00980667
C        2.46716057       0.00943620       3.65379249       0.00000000      -0.00177623       0.00188392      -0.00731448
C        1.22232604       2.13668764       3.72820372       0.00000000       0.00152810      -0.00268273       0.00136717
C       -0.03356778       4.26630310       3.79887020       0.00000000       0.00288667       0.00088492      -0.00087784
C       -1.24275639       6.41381555       3.70994563       0.00000000      -0.00334472       0.00369113      -0.00153130
C       -2.47137980       8.55310488       3.63907686       0.00000000      -0.00501650      -0.00001134      -0.00590266
C        4.93709150      -0.00188443       3.63257296       0.00000000      -0.00196301      -0.00484671       0.00472186
C        3.71031893       2.13762748       3.72426269       0.00000000       0.00305010      -0.00212132      -0.00310824
B        2.46567858       4.29458806       4.01458598       0.00000000       0.00766923      -0.00313735       0.00521781
C        1.17872245       6.42933135       4.03747085       0.00000000      -0.00385814       0.00807767       0.00926826
C       -0.00531555       8.54069968       3.69128205       0.00000000       0.00091815       0.00001259      -0.00200988
C        7.40185890      -0.01187776       3.62223315       0.00000000       0.00009898       0.00240618       0.00249887
C        6.17689394       2.12756493       3.63842774       0.00000000       0.00132726      -0.00100341      -0.00098285
C        4.96558900       4.26808038       3.79107310       0.00000000       0.00160317      -0.00227983       0.00227762
C        3.75526778       6.43086519       4.04440298       0.00000000      -0.00171141      -0.00226854       0.00255694
C        2.46709382       8.53749908       3.76171612       0.00000000       0.00372658       0.00322324       0.00828465
C        9.86842705      -0.01192287       3.62605001       0.00000000      -0.00636457       0.00312787      -0.00112892
C        8.63439056       2.12810496       3.60550346       0.00000000       0.00295877      -0.00014192       0.00074862
C        7.41059228       4.27142436       3.64016111       0.00000000       0.00261267      -0.00446320      -0.00658735
C        6.17578975       6.41443131       3.70573614       0.00000000       0.00135595      -0.00207020       0.00575843
C        4.93910853       8.54087704       3.69091223       0.00000000      -0.00412503       0.00255922       0.00706588
C       -0.01024198       1.41808120       3.66233540       0.00000000       0.00050856      -0.00583763      -0.00657234
C       -1.25424643       3.55295536       3.68544023       0.00000000      -0.00028917       0.00127895      -0.00751630
C       -2.47297504       5.69730825       3.65154186       0.00000000      -0.00289522       0.00335320       0.00073813
C       -3.70091927       7.83901488       3.63173494       0.00000000      -0.00327101       0.00023671       0.00064942
C       -4.93354621       9.97630567       3.63984030       0.00000000      -0.00070357      -0.00086712      -0.00593151
C        2.46660357       1.43233941       3.70636170       0.00000000       0.00179203       0.00065507      -0.00642112
C        1.17716947       3.55020317       3.82866434       0.00000000       0.00497633      -0.00040222      -0.00042321
C       -0.01149837       5.70154299       3.83996414       0.00000000      -0.00006273       0.00472348       0.00015799
C       -1.24053796       7.83728497       3.67823267       0.00000000      -0.00317829       0.00287982       0.00036232
C       -2.46835596       9.97634161       3.63959995       0.00000000      -0.00493323      -0.00103729      -0.01279000
C        4.94299424       1.41883187       3.65459825       0.00000000       0.00128054      -0.00415363      -0.00014744
C        3.75463130       3.55160658       3.82328048       0.00000000       0.00348210      -0.00316248      -0.00314875
C        1.22786863       7.81950060       3.80686567       0.00000000       0.00346027       0.00482053       0.00536081
C        0.00045169       9.96361085       3.63557999       0.00000000       0.00084704      -0.00121551       0.00377438
C        7.40503134       1.41222131       3.60777597       0.00000000       0.00280245       0.00164642      -0.00152488
C        6.18629668       3.55409539       3.67631408       0.00000000       0.00090990      -0.00152882      -0.00425654
C        4.94480024       5.70285485       3.83709605       0.00000000       0.00002149      -0.00246662       0.00643356
C        3.70608515       7.82104742       3.80952162       0.00000000      -0.00009802      -0.00005710       0.00620519
C        2.46693552       9.95371525       3.65103744       0.00000000      -0.00211656       0.00285438       0.00736578
C        9.86393496       1.41201359       3.61355483       0.00000000      -0.00012152       0.00049313      -0.00488459
C        8.63434230       3.55498718       3.61673415       0.00000000       0.00229656      -0.00181016      -0.00403544
C        7.40626335       5.69797519       3.64799451       0.00000000       0.00235240      -0.00359564       0.00052250
C        6.17479210       7.83784417       3.67677056       0.00000000      -0.00277819       0.00116998      -0.00098076
C        4.93370726       9.96371686       3.63836040       0.00000000      -0.00840705       0.00217260       0.00376128
Cu       2.47111900       5.78556858       5.20118756       0.00000000       0.00426103      -0.00436997       0.00807814
O        1.81328602       5.50955733       7.03543593       1.00000000       0.00097802       0.01713801       0.00065855
O        3.06292525       5.88164881       7.06434433       1.00000000       0.00505637      -0.01088131       0.00369838
