51
Lattice="12.336457 0.0 0.0 -6.168228499999997 10.683685154694365 0.0 0.0 0.0 15.0" Properties=species:S:1:pos:R:3:initial_magmoms:R:1:forces:R:3 energy=-440.7452130826586 free_energy=-440.7452130826586 stress="-0.00012252993679504526 -0.005252990046414739 5.171703345315897e-07 -0.005252990046414739 0.001618091979257504 -1.2786366934018491e-05 5.171703345315897e-07 -1.2786366934018491e-05 -1.4744884188919089e-05" pbc="T T T"
C        0.03051740      -0.03567084       3.92503021       0.00000000       0.00116606       0.00922676      -0.00088633
C       -1.23946696       2.08014484       3.90398620       0.00000000      -0.00381483       0.00304443       0.00188255
C       -2.45731174       4.23098051       3.85856656       0.00000000      -0.00381310      -0.00335166       0.00099270
C       -3.64972414       6.38105138       3.86506368       0.00000000       0.00699081      -0.01203131       0.00114101
C       -4.87601659       8.52627527       3.91070729       0.00000000       0.00153269       0.00239452      -0.00042541
C        2.49789980      -0.00849598       3.90917143       0.00000000       0.01275791       0.00748258      -0.00233638
C        1.20655040       2.10159547       3.91138816       0.00000000       0.00038920      -0.00097082       0.00174293
C       -0.01884011       4.16487656       3.92190282       0.00000000       0.00201180      -0.00545786      -0.00713894
C       -1.17034005       6.33755958       3.92018720       0.00000000      -0.00353199       0.01028301      -0.00442349
C       -2.40458450       8.50702651       3.92593989       0.00000000      -0.00187056      -0.00368766       0.00806549
C        4.96060515      -0.02737991       3.77392850       0.00000000       0.00131362      -0.00066801       0.00801869
C        3.68075637       2.07449473       3.44362004       0.00000000      -0.00560603       0.00466670      -0.01119379
B        1.32658217       6.29489114       4.26347810       0.00000000      -0.01149561       0.00110881      -0.01097670
C        0.06750619       8.49772718       3.89848259       0.00000000       0.00197625      -0.00207003      -0.00145198
C        7.42108163      -0.03067106       3.74491728       0.00000000      -0.00120494      -0.01109952       0.00730611
C        6.16489884       2.12508801       3.55555217       0.00000000      -0.00200046      -0.00001257      -0.00231809
C        5.03731457       4.33758199       3.23183851       0.00000000      -0.00720480      -0.00113962       0.00582976
N        3.83781257       6.46181366       3.28306132       0.00000000       0.00377037       0.00711976      -0.00218956
C        2.50752316       8.49167316       3.75213816       0.00000000       0.00429063       0.00795614       0.00516060
C        9.88692410      -0.04452678       3.80797260       0.00000000       0.00685288      -0.00237322       0.00857909
C        8.63685198       2.10458241       3.75671465       0.00000000       0.00178335      -0.00776671       0.00511036
C        7.42635048       4.25869237       3.68522697       0.00000000      -0.00623582       0.00526243       0.00226402
C        6.23457054       6.41864793       3.68302676       0.00000000      -0.00606933      -0.00084321      -0.00425420
C        4.98966388       8.51608506       3.77573012       0.00000000      -0.00741365      -0.00110282       0.00124165
C        0.00996984       1.39005861       3.94108814       0.00000000      -0.00438267       0.00800300       0.00200081
C       -1.23956407       3.49114140       3.89448843       0.00000000      -0.00325435      -0.00109337      -0.00471414
C       -2.42751150       5.64972778       3.88232219       0.00000000       0.00662469      -0.00382141       0.00057261
C       -3.64158151       7.80528027       3.91432698       0.00000000       0.00144473      -0.01176339       0.00206745
C       -4.89468258       9.95295106       3.94533265       0.00000000       0.00913463       0.01244790       0.00079831
C        2.46277010       1.42631996       3.79387479       0.00000000      -0.00046052       0.00456560      -0.00907442
O        1.16489709       3.46902666       4.06082889       0.00000000       0.00991521      -0.00243990       0.00326999
C        0.03036977       5.56200581       3.96865593       0.00000000      -0.00790761       0.00000451      -0.00727282
C       -1.16867003       7.77735908       3.93315006       0.00000000      -0.00017063       0.00685691      -0.00167315
C       -2.42985263       9.94544746       3.88274820       0.00000000       0.00633088      -0.00267076       0.00304524
C        4.93191628       1.40848205       3.58486307       0.00000000      -0.00527058       0.00297354      -0.00034805
S        3.61799987       3.59559964       2.60932208       0.00000000       0.00870485       0.00073539      -0.00509723
C        1.30686110       7.81093237       3.91095714       0.00000000       0.00535043       0.00424065      -0.00222653
C        0.03253995       9.94007686       3.80177371       0.00000000      -0.00234243      -0.00886638       0.00286739
C        7.39717254       1.40548108       3.68487619       0.00000000       0.00069418      -0.01096206      -0.00029060
C        6.18539738       3.55970153       3.49662350       0.00000000      -0.00308369       0.00241132      -0.00491030
C        5.00865538       5.75452966       3.38781780       0.00000000      -0.00605864      -0.00435837       0.00328663
C        3.77507646       7.77705234       3.61584676       0.00000000      -0.00516585       0.00108523       0.00877175
C        2.49226009       9.93054152       3.76139450       0.00000000       0.00552961       0.00210028      -0.00435497
C        9.87340622       1.38155740       3.83088140       0.00000000       0.00521845      -0.00459834      -0.00082500
C        8.64312204       3.52918049       3.77562732       0.00000000      -0.00620392      -0.00192700      -0.00143821
C        7.44783794       5.68052646       3.75471603       0.00000000      -0.00194304       0.00347138      -0.00252784
C        6.23025147       7.82562928       3.80796863       0.00000000      -0.00668005       0.00105474      -0.00305680
C        4.96344117       9.93411091       3.85377378       0.00000000       0.00232618      -0.00164690       0.00278127
Cu       2.33450169       5.52752810       2.52427208       0.00000000       0.00220657      -0.01030048      -0.00426564
O        1.38445371       5.17187264       6.06278096       1.00000000      -0.00770656       0.00069170       0.00501685
O        2.27795847       5.78378186       5.26004334       1.00000000       0.01257567       0.00783606       0.00785729
