53
Lattice="12.336457 0.0 0.0 -6.168228499999997 10.683685154694365 0.0 0.0 0.0 15.0" Properties=species:S:1:pos:R:3:forces:R:3 energy=-458.0535535844873 free_energy=-458.0535535844873 stress="-0.0030998353325607892 0.004748580634251884 -2.9262562971539167e-05 0.004748580634251884 -0.0030380317847705286 4.959803388794519e-06 -2.9262562971539167e-05 4.959803388794519e-06 2.4026501238845196e-05" pbc="T T T"
C        0.00432713      -0.10896122       3.68682642       0.00171190      -0.00467847       0.00177930
C       -1.20059924       2.04702351       3.68413375      -0.00393137      -0.00266425       0.00768581
C       -2.42978372       4.17790339       3.76657685       0.00114831       0.00212573      -0.00004110
C       -3.69021353       6.30245825       3.81698204      -0.00174351       0.00405269      -0.00001197
C       -4.95003778       8.43058098       3.77931769       0.00372317      -0.00235303       0.00358780
C        2.46702175      -0.10863107       3.62789173      -0.00177437       0.00059256       0.00440806
C        1.25845528       2.04922228       3.65833979      -0.00218091      -0.00514109       0.00169000
C        0.03313217       4.20072183       3.85597585       0.00192831      -0.00462476       0.01014137
C       -1.21462551       6.32068711       3.90082529       0.00313737       0.00036336       0.00009366
C       -2.47762177       8.44591399       3.74313133       0.00213236       0.00175202       0.00278901
C        4.94484228      -0.11091248       3.57764313      -0.00515600      -0.00153227       0.00152577
C        3.73252671       2.00567641       3.54896319       0.00052240       0.00161456       0.01041717
B        2.57016403       4.24597631       3.72884569       0.00239258       0.00124227      -0.00275331
C        1.22213271       6.40890812       4.32911567       0.00243675      -0.00044565       0.00027762
C       -0.01610230       8.46524507       3.78796616       0.00031892       0.00057896      -0.00726331
C        7.41599304      -0.09760179       3.58924430       0.00039042       0.00129327       0.00171172
C        6.21166107       2.01033070       3.55526559      -0.00308738       0.00106661      -0.00865881
C        5.02147860       4.10825902       3.74252369       0.00045016       0.00162196       0.00119886
P        3.29627818       6.02678188       4.33561986      -0.00139640       0.00093187      -0.00147549
C        2.44711210       8.48401267       3.80345264      -0.00138099       0.00233868       0.00242672
C        9.89135483      -0.09714634       3.64511508       0.00120548       0.00239123      -0.00652812
C        8.67485934       2.03589235       3.61520736      -0.00353744      -0.00056268       0.00376451
C        7.45314886       4.16143965       3.72170888       0.00350745       0.00025416      -0.00479273
C        6.16559343       6.28048317       3.91820864      -0.00751434      -0.00242269      -0.00351065
C        4.91040937       8.41484206       3.81202438       0.00157882       0.00185494       0.00449312
C        0.02290827       1.32523941       3.67156204      -0.00372282      -0.00535472      -0.00567813
C       -1.19671870       3.47492093       3.76200868      -0.00075390      -0.00189639       0.00641175
C       -2.44505241       5.60060513       3.82691616      -0.00026508       0.00409034      -0.00138146
C       -3.70894038       7.72828165       3.78810831       0.00400401       0.00300122       0.00309647
C       -4.93705873       9.85770039       3.69799051       0.00210363      -0.00384402      -0.00379161
C        2.48016836       1.31529382       3.59161235       0.00052642       0.00041691       0.00983922
C        1.25620579       3.48795053       3.73906595       0.00249273      -0.00465125       0.00691413
C        0.03390971       5.62793563       4.01783498       0.00275073      -0.00291662       0.00698211
C       -1.24436641       7.74417544       3.82428279       0.00173088       0.00109719       0.00243339
C       -2.46787114       9.86466023       3.63876109      -0.00458083      -0.00024813       0.00238916
C        4.96792657       1.30013717       3.53060171      -0.00257323      -0.00135703       0.00072806
C        3.79742866       3.40815288       3.62778817       0.00238941       0.00262288      -0.00791116
C        1.20914822       7.78373186       3.95099157      -0.00112912       0.00006836      -0.00118403
C        0.00674508       9.87597657       3.62935654      -0.00182046       0.00142065      -0.00647608
C        7.43923395       1.31609381       3.56336036      -0.00333717       0.00114153      -0.00606621
C        6.24296202       3.42526269       3.64633916       0.00073601       0.00238801      -0.00451295
C        4.97171400       5.50541590       3.99653607      -0.00897761       0.00128091       0.00047795
C        3.64153783       7.73999743       3.87293846      -0.00045721       0.00366564      -0.00630208
C        2.47917998       9.89132176       3.64587853       0.00175201       0.00249513       0.00271982
C        9.90437641       1.32919604       3.63502990      -0.00401463       0.00094665      -0.00188761
C        8.68234558       3.45779015       3.68906298       0.00294969      -0.00162113       0.00268663
C        7.41994938       5.58317195       3.82322816      -0.00258680       0.00012690       0.00314384
C        6.15218991       7.71083700       3.85853910       0.00123595      -0.00286739      -0.00302820
C        4.93775412       9.85341211       3.71087378       0.00107737      -0.00011693      -0.01323673
Cu       2.11276467       5.98508184       6.05898981       0.00620990       0.00557510       0.00247397
O        2.10885005       6.29229827       7.89236235      -0.00172513       0.00347650      -0.00676649
O        2.06592597       7.74477241       8.00474878       0.00930824      -0.00777679       0.00301738
H        2.77861147       7.86567091       8.65954880       0.00179528      -0.00081347      -0.00804616
