51
Lattice="12.336457 0.0 0.0 -6.168228499999997 10.683685154694365 0.0 0.0 0.0 15.0" Properties=species:S:1:pos:R:3:initial_magmoms:R:1:forces:R:3 energy=-443.8170514457508 free_energy=-443.8170514457508 stress="-0.0010516124346243417 0.0021528163465573684 1.3824991713921343e-05 0.0021528163465573684 0.003040430053406062 8.088291749981111e-07 1.3824991713921343e-05 8.088291749981111e-07 -6.611963585432855e-06" pbc="T T T"
C       -0.03298636      -0.01064984       3.67148798       0.00000000      -0.00806923       0.00419679      -0.00788275
C       -1.26515413       2.12489753       3.63130274       0.00000000       0.00273398       0.00382027       0.00064071
C       -2.49024131       4.26270517       3.56369250       0.00000000       0.00206526      -0.00047196      -0.00194251
C       -3.73125495       6.39693465       3.58690616       0.00000000      -0.00152149      -0.00802783       0.00474382
C       -4.98051043       8.53324533       3.66683010       0.00000000       0.00403207      -0.01176723       0.00883528
C        2.43588216       0.02388772       3.69917129       0.00000000      -0.00727755       0.00316059      -0.00359966
C        1.19246529       2.15878386       3.86798425       0.00000000       0.00950951      -0.00241065       0.00211500
C       -0.03585756       4.28471391       3.83342882       0.00000000      -0.00177072       0.00619669      -0.00301344
C       -1.26449392       6.40670339       3.66274954       0.00000000      -0.00894393       0.00003922      -0.00106483
C       -2.50747607       8.53978955       3.63474059       0.00000000       0.00104332       0.00397867       0.00745405
C        4.89774268      -0.01075172       3.62967319       0.00000000       0.00628010      -0.01230977       0.00408710
C        3.70946420       2.12523808       3.74221103       0.00000000       0.00740935       0.00349827       0.00128767
O        1.12416967       6.43340663       3.71484460       0.00000000      -0.00041465       0.00609710       0.00284578
C       -0.04081725       8.52110742       3.66963131       0.00000000      -0.00047893      -0.00992068      -0.00436243
C        7.37224498      -0.03690149       3.59048416       0.00000000       0.00380622       0.00396547       0.00860256
C        6.15326711       2.10628135       3.55073504       0.00000000      -0.00509735      -0.00050804       0.00491967
C        4.95786121       4.21065815       3.69429179       0.00000000      -0.00200041       0.00113901      -0.00658886
B        3.78812520       6.41438212       4.34484029       0.00000000       0.00499599      -0.00132580      -0.00223807
C        2.41482580       8.48619032       3.74139808       0.00000000       0.00127303       0.00436769      -0.01042995
C        9.83114593      -0.03009066       3.61604517       0.00000000      -0.00069963      -0.00480424       0.00423235
C        8.61239156       2.11200338       3.53036229       0.00000000       0.00785261      -0.00231754      -0.00476987
C        7.38867973       4.25118071       3.53395075       0.00000000      -0.00145836       0.00649395       0.00204037
C        6.13629275       6.36196758       3.70845953       0.00000000      -0.00400045       0.00683750       0.01221376
C        4.87864636       8.52203611       3.74737878       0.00000000      -0.00408140       0.00741232      -0.01780422
C       -0.02704815       1.42066370       3.70319350       0.00000000       0.00024157       0.00615534      -0.00534764
C       -1.25971813       3.55733460       3.64204230       0.00000000       0.00277902       0.00443801      -0.00974004
C       -2.49730923       5.68434696       3.59390429       0.00000000      -0.00591244      -0.00715730       0.00978750
C       -3.74419551       7.82468170       3.62678043       0.00000000       0.00888253      -0.01171553       0.00382468
C       -4.96749083       9.96939663       3.68590264       0.00000000      -0.00964519      -0.00429174      -0.00857280
C        2.45376524       1.46240526       3.78955001       0.00000000       0.01208034       0.00088670       0.00249773
C        1.07199282       3.51360270       4.20953424       0.00000000       0.00542577      -0.00872588       0.00689394
C       -0.05555642       5.71831563       3.76629393       0.00000000      -0.00399503       0.00723331      -0.00929601
C       -1.28021707       7.82818617       3.65247555       0.00000000      -0.00497333      -0.00081997      -0.00766682
C       -2.50828727       9.97701787       3.65380622       0.00000000      -0.00297783       0.00430034       0.01162226
C        4.90946986       1.41678208       3.62368947       0.00000000       0.00163612      -0.01016027       0.00561695
O        3.77765331       3.50625534       3.82725602       0.00000000      -0.00738391       0.00414843       0.01220507
C        1.15819802       7.80599856       3.71885986       0.00000000       0.00287957       0.00288764       0.00356552
C       -0.03347882       9.95099710       3.62591945       0.00000000       0.00964228      -0.01034416      -0.00125101
C        7.37539417       1.39656686       3.53953080       0.00000000       0.00033428       0.00499953      -0.00378892
C        6.16037091       3.52437737       3.54643910       0.00000000       0.00021246       0.00120008       0.00155952
C        4.94708259       5.59820509       3.85980714       0.00000000       0.00840579      -0.00422439       0.00402644
C        3.65161313       7.83227917       3.86278619       0.00000000       0.00144731       0.00509220      -0.00189877
C        2.42736639       9.92324334       3.63331309       0.00000000       0.00066417       0.00177534      -0.00903662
C        9.83875797       1.40064479       3.57416714       0.00000000       0.00578665      -0.00721667       0.00290121
C        8.61691461       3.53905572       3.52171088       0.00000000       0.00402965       0.00126186      -0.00862522
C        7.37904405       5.67149652       3.58518389       0.00000000      -0.00815999       0.00569779       0.00332553
C        6.12402560       7.80222928       3.72557986       0.00000000      -0.00472801       0.00421904      -0.00101440
C        4.89841934       9.95522788       3.66070181       0.00000000      -0.00491024       0.00390210      -0.00473918
Cu       2.18479847       4.30415896       5.33307668       0.00000000      -0.00014609      -0.00072653       0.00231794
O        3.66612120       5.02150772       6.23618463       1.00000000      -0.00493463      -0.00043070       0.01042615
O        3.00314506       6.09122832       5.50773515       1.00000000      -0.01186816       0.00027563      -0.00991453
