53
Lattice="12.336457 0.0 0.0 -6.168228499999997 10.683685154694365 0.0 0.0 0.0 15.0" Properties=species:S:1:pos:R:3:forces:R:3 energy=-455.3940243260055 free_energy=-455.3940243260055 stress="-0.002400570363381525 0.004176601367845261 -3.246190867676022e-05 0.004176601367845261 0.001485825258511737 -4.0485025443677184e-05 -3.246190867676022e-05 -4.0485025443677184e-05 1.2994461368127836e-05" pbc="T T T"
C        0.05168851      -0.02821994       3.77994338       0.00185567      -0.00967931       0.00575039
C       -1.15598167       2.11593203       3.66777743       0.01177491      -0.00332262       0.00273883
C       -2.38040689       4.24514758       3.60814262      -0.00704908       0.00965647      -0.00233150
C       -3.64314086       6.37589733       3.69940307      -0.00756871      -0.00205386       0.00304336
C       -4.89897296       8.51133321       3.81215890       0.00161427       0.00970637       0.00405218
C        2.51347147      -0.01764811       3.76322609      -0.00178288       0.00732708      -0.00448265
C        1.30179405       2.15259123       3.86229728       0.00263620       0.00101648      -0.00520178
C        0.08630136       4.29759367       3.71131517       0.00246888      -0.00824690       0.00996801
C       -1.18861702       6.39716733       3.57325759       0.01011767      -0.00199148      -0.00847371
C       -2.42925108       8.52379487       3.63625240      -0.00195424      -0.00229540       0.00194284
C        4.98990685      -0.03033809       3.61973360       0.00944707      -0.00110524       0.00491577
C        3.78190804       2.09447536       3.85225662      -0.00540982      -0.00633352       0.00735658
B        2.61129628       4.31776288       4.35128339      -0.01664295       0.00240220       0.00127677
O        1.17846640       6.43848417       3.38703047      -0.00682908      -0.00546321       0.01604217
C        0.03115821       8.51696426       3.52034493       0.00693422       0.00003208       0.00135090
C        7.46653559      -0.05088233       3.54041526       0.00297122      -0.00443134      -0.00379152
C        6.26175775       2.07471639       3.65419408      -0.00125177       0.00564717       0.00198688
C        5.08287687       4.17024148       4.00384223       0.00316126      -0.00481352      -0.00879954
P        3.53013627       6.17482108       4.65411047      -0.01761872       0.00201105       0.00111161
C        2.47862616       8.48196015       3.67526509      -0.00360935      -0.00447914       0.00375690
C        9.92995725      -0.05027240       3.65014256      -0.00918608       0.00533103       0.00357510
C        8.72131612       2.09185114       3.57701587      -0.00976667      -0.00129142       0.00387851
C        7.50425824       4.22494633       3.71394781       0.00083311      -0.00415284      -0.00737650
C        6.25113995       6.35896364       3.98234314       0.00963229      -0.00032309      -0.00117624
C        4.95810791       8.48612754       3.91541824       0.00023781       0.00933797      -0.00542933
C        0.06839274       1.40834098       3.76150979       0.01204052      -0.01030024       0.00259451
C       -1.14272396       3.55294208       3.63821888      -0.00049823       0.00342884       0.00128580
C       -2.40709358       5.66544642       3.62021851      -0.00087250       0.01035960       0.00445735
C       -3.66299992       7.80530975       3.71822995      -0.00607297      -0.00282962       0.00794205
C       -4.88874954       9.94256257       3.79038642       0.00487271       0.00321685       0.00937743
C        2.52642010       1.40815498       3.84129720      -0.00690641       0.00137203      -0.00149894
C        1.30226334       3.59455149       3.94582341       0.00177290      -0.00328219       0.00054866
C        0.02471770       5.71507073       3.58229294       0.00213842      -0.01344457      -0.00346882
C       -1.20597341       7.81781788       3.55715536       0.00788905       0.00020475      -0.00809870
C       -2.42446148       9.95220781       3.67157158       0.00023605       0.00511475      -0.00918895
C        5.01294086       1.38055468       3.69594078      -0.00035537       0.00248527      -0.00821416
C        3.84822500       3.48876283       4.04076023      -0.00358653      -0.00356348      -0.00225063
C        1.22838252       7.81318258       3.54266379      -0.00082082      -0.00632636      -0.00595185
C        0.05454470       9.94143611       3.54547705       0.01034797      -0.00354134       0.00305950
C        7.48711028       1.37275964       3.56695833      -0.00832847      -0.00217347       0.00217367
C        6.29372394       3.48726767       3.76487013       0.00675146       0.00181504      -0.01028713
C        5.08915425       5.57782445       4.18627669       0.00407025      -0.00435550       0.00009575
C        3.69006505       7.79098086       3.98303872      -0.00163129       0.00229873       0.00127731
C        2.51852906       9.91118471       3.58977990      -0.00242253      -0.00453281      -0.00633461
C        9.94870331       1.38292036       3.61053539      -0.00233271       0.00603598       0.00922418
C        8.72834360       3.51842367       3.61341919      -0.00591757      -0.00137410       0.00376144
C        7.48123076       5.65204639       3.79508300      -0.00063258      -0.01032249      -0.00280494
C        6.20795891       7.78798333       3.93291788       0.00458273       0.01166716      -0.00721574
C        4.98477919       9.92191255       3.77329473      -0.00756854       0.00615709       0.00141574
Cu       2.39688657       5.27065396       6.15017255       0.00367975       0.01332426      -0.00637041
O        1.51206168       5.11337532       7.76597241       0.00129919      -0.01000788       0.00522872
O        1.56020959       6.48090847       8.29762028      -0.00058774       0.00685196      -0.01265184
H        2.05041139       6.29734466       9.11979095       0.01383806       0.00923670       0.00621060
