51
Lattice="12.336457 0.0 0.0 -6.168228499999997 10.683685154694365 0.0 0.0 0.0 15.0" Properties=species:S:1:pos:R:3:initial_magmoms:R:1:forces:R:3 energy=-439.05668830832195 free_energy=-439.05668830832195 stress="-0.006684734050221998 -0.0015712503649003297 2.006102841005243e-05 -0.0015712503649003297 -0.00621606147754604 2.3170268731061167e-05 2.006102841005243e-05 2.3170268731061167e-05 -1.559357781314698e-05" pbc="T T T"
C       -0.03761902      -0.07154817       3.74783289       0.00000000      -0.00437058      -0.00121782      -0.00042806
C       -1.29339976       2.05445315       3.97090456       0.00000000      -0.00060353       0.00153970      -0.00039865
C       -2.53401236       4.20511150       3.83777083       0.00000000      -0.00369568       0.00778792      -0.00396301
C       -3.72901478       6.34946332       3.60460968       0.00000000       0.00032565       0.00604341       0.00421010
C       -4.95370963       8.49066785       3.58922169       0.00000000      -0.00052037      -0.00423878       0.00151003
C        2.43611010      -0.08186915       3.66749485       0.00000000       0.00394932       0.00285070       0.00448882
C        1.20923243       1.99539646       4.07285444       0.00000000      -0.00019483       0.00984930       0.01639310
C       -0.17326624       4.22598280       4.39662957       0.00000000       0.00333071      -0.00732887      -0.00627276
C       -1.30388189       6.35799674       3.90167633       0.00000000       0.00407542       0.00081730       0.00152317
C       -2.49512056       8.48334272       3.65455428       0.00000000       0.00165161       0.00217220       0.00373794
C        4.90058558      -0.06120633       3.53180310       0.00000000       0.00885100       0.00564371       0.00085517
C        3.63583211       2.02370427       3.36844117       0.00000000       0.00195757      -0.01229896      -0.01032128
B        1.16655676       6.36106323       4.02275223       0.00000000      -0.00325393      -0.01190873       0.00578715
C       -0.04211244       8.49733612       3.71747914       0.00000000       0.00261842      -0.00441006       0.00047853
C        7.36797037      -0.05961809       3.55907033       0.00000000      -0.00937928       0.00423792      -0.00033089
C        6.13673609       2.07181811       3.32497069       0.00000000      -0.00554988       0.00096222       0.00268468
C        4.98902598       4.26088494       3.01600380       0.00000000       0.00161596       0.00630160      -0.00806775
C        3.74657579       6.36167821       3.43769079       0.00000000       0.01335963      -0.00380230       0.01292748
C        2.44412934       8.49101698       3.64276617       0.00000000       0.00581854       0.00214081       0.00094951
C        9.83601819      -0.06369181       3.65566884       0.00000000      -0.00372301      -0.00419185       0.01241677
C        8.59580272       2.07089806       3.61416634       0.00000000      -0.00143184      -0.00789897      -0.00334610
C        7.38639919       4.21509483       3.41056499       0.00000000      -0.01601637       0.00417808      -0.00434048
C        6.18275459       6.38036430       3.35180270       0.00000000      -0.00236618       0.00990236      -0.00180360
C        4.91848560       8.48796692       3.53968436       0.00000000       0.00209055      -0.00086104      -0.00049607
C       -0.04737097       1.34163848       3.95465428       0.00000000       0.00123849       0.00315336      -0.00255454
C       -1.33120655       3.47630980       4.09925758       0.00000000       0.00019148       0.00307949      -0.00702590
C       -2.52397966       5.63279120       3.78663356       0.00000000       0.00509552       0.00950903      -0.01091687
C       -3.72610051       7.77408111       3.61524441       0.00000000       0.00251949      -0.00062921      -0.01832546
C       -4.96735374       9.90331611       3.68111762       0.00000000       0.00209833      -0.00470807      -0.01107362
C        2.42956057       1.33176636       3.71139756       0.00000000      -0.00228722       0.00540240       0.00951565
P        1.30515588       3.49019043       5.00895425       0.00000000      -0.00933390      -0.00531773       0.00235943
C       -0.12546356       5.62889700       4.17135777       0.00000000      -0.00298368      -0.01038362      -0.00523659
C       -1.26900493       7.77472982       3.75104568       0.00000000       0.00179252       0.00197610       0.01272291
C       -2.49562554       9.90307120       3.60560209       0.00000000       0.01029000       0.00517246      -0.00201565
C        4.89581515       1.36228617       3.38116390       0.00000000       0.00323973       0.00238582       0.00316708
P        3.44095026       3.57261745       2.55300709       0.00000000       0.01649200      -0.00143745       0.00760832
C        1.20794751       7.81526576       3.78415049       0.00000000       0.00730224      -0.00675383      -0.00105634
C       -0.03806695       9.91670877       3.58856400       0.00000000      -0.00157280      -0.00267574      -0.00399604
C        7.36432094       1.36415826       3.48643622       0.00000000      -0.00464295      -0.00204136      -0.01500195
C        6.16115804       3.50062713       3.21799561       0.00000000      -0.01417144      -0.00357893       0.00285099
C        4.95289102       5.68610628       3.20922678       0.00000000       0.00666358       0.00064836       0.00590591
C        3.67787481       7.75283190       3.53886306       0.00000000       0.00929418      -0.00540633       0.00654048
C        2.43806544       9.91165956       3.60464741       0.00000000      -0.00707888       0.00636264       0.00043836
C        9.82641406       1.35680541       3.74756248       0.00000000       0.00303774      -0.00308904      -0.00843199
C        8.59322349       3.49727317       3.61665044       0.00000000      -0.00739340       0.00134464      -0.01265758
C        7.39133282       5.64199880       3.43712749       0.00000000      -0.00922744       0.01012085       0.00912844
C        6.15567051       7.78846576       3.49350681       0.00000000      -0.00229333       0.00665371      -0.00980901
C        4.90398359       9.90384816       3.64952731       0.00000000      -0.00652940      -0.00287435       0.00033063
Cu       2.55747136       5.07171532       4.00577634       0.00000000       0.00318097      -0.00858941       0.01330444
O        2.96136160       6.06360306       8.73978586       1.00000000       0.00511247       0.00248715       0.00227158
O        3.92371589       6.83751400       8.80310240       1.00000000      -0.00857321      -0.00708082       0.00376354
