52
Lattice="12.336457 0.0 0.0 -6.168228499999997 10.683685154694365 0.0 0.0 0.0 15.0" Properties=species:S:1:pos:R:3:forces:R:3 energy=-454.17183189749585 free_energy=-454.17183189749585 stress="-0.0018771584240765042 -0.0015366395011401535 1.946748412246209e-06 -0.0015366395011401535 0.0026423022837401737 -6.255346978292826e-06 1.946748412246209e-06 -6.255346978292826e-06 -5.863384192491437e-06" pbc="T T T"
C       -0.00015473       0.02612916       3.70713996       0.00280172      -0.00197969      -0.00809334
C       -1.25139391       2.13525194       3.68646367       0.00334943       0.00180826       0.00154345
C       -2.48228026       4.27606688       3.68218352      -0.00171894      -0.00902011      -0.01465169
C       -3.68990763       6.42696724       3.68166963       0.00442154       0.00507010      -0.01000267
C       -4.92107368       8.57766286       3.68126906       0.00384607      -0.00452386       0.00047965
C        2.46791488       0.03918879       3.78289980       0.00245793       0.00844646      -0.00132323
C        1.21351477       2.21662892       3.79458407      -0.01343822      -0.00519656      -0.00480776
C       -0.02331839       4.25511689       3.79677023       0.00714315       0.00334688      -0.00768464
C       -1.23117519       6.40065622       3.83781793      -0.00334208      -0.00092892       0.00469639
C       -2.45620021       8.55981399       3.77992948       0.00654904       0.00079146      -0.00081721
C        4.93295655       0.00824219       3.85305006      -0.00266014      -0.00520708      -0.01531331
C        3.68912639       2.12277925       4.09150451      -0.00434070       0.00855452      -0.00956290
B        1.17593556       6.39726287       4.58576791       0.00836213       0.00249495       0.01228830
C        0.01506597       8.54739020       3.92197644      -0.00046400       0.00342887      -0.00468701
C        7.40008764       0.00029035       3.79904220      -0.00772656       0.00278787      -0.00791240
C        6.15819823       2.15380376       3.89251004       0.00375431       0.00365736       0.00461297
C        4.97117299       4.34055537       4.02350055      -0.01806721      -0.00611065       0.00398466
N        3.78334137       6.41835120       3.67194263       0.00926597       0.00117941      -0.00166777
C        2.45810839       8.50814618       3.83779205      -0.00676824       0.00147621      -0.01168007
C        9.85838902      -0.01085883       3.70234344      -0.00387378      -0.00143148       0.00569088
C        8.61952050       2.13941930       3.70887957       0.00911358      -0.00573181      -0.00183861
C        7.40065947       4.29309551       3.72100626      -0.00056486       0.00832521       0.00379740
C        6.19792450       6.44815215       3.69999547       0.00124451      -0.00362689       0.00733169
C        4.93942030       8.54470561       3.69531387       0.00219615      -0.00329221      -0.00555302
C       -0.00706737       1.45382046       3.72393008      -0.00331206      -0.00251816       0.00540398
C       -1.26174236       3.54901546       3.70165132       0.00653604       0.00004259      -0.00074362
C       -2.47500042       5.69919940       3.70815946      -0.00348464      -0.00573495       0.00585703
C       -3.69130450       7.85501523       3.70505526       0.00701846       0.00209251      -0.00414942
C       -4.92783106      10.00656245       3.71305480       0.00566456      -0.00150691       0.00479090
C        2.47060110       1.48037872       3.88891982      -0.00768373       0.00844408      -0.00080579
N        1.17089169       3.57936088       3.75822930      -0.00428569      -0.00625190      -0.00670224
C       -0.04747110       5.66190251       3.96658522      -0.00366266       0.00304071       0.00372439
C       -1.22982800       7.84168256       3.87116932       0.00173605       0.00222356       0.00032672
C       -2.46846348       9.99320535       3.80324764      -0.00194786      -0.00139052       0.01317921
C        4.91863512       1.44124493       3.94749149      -0.00116841      -0.00161886      -0.00133891
B        3.81684882       3.54175111       4.69995948       0.00493780      -0.01062998       0.00675426
C        1.24223829       7.85486192       4.03645466      -0.00431283       0.01393764       0.00868658
C        0.00045802       9.98174345       3.84618420      -0.00370888      -0.00141391      -0.00487254
C        7.38525839       1.43469493       3.78615153       0.00524581       0.00135904       0.00089981
C        6.15607853       3.59425532       3.87142935      -0.00306407       0.01030577       0.00741102
C        4.96359436       5.74578082       3.79991538      -0.00004339      -0.00570097       0.00461336
C        3.72060951       7.77917104       3.73412424      -0.00009127      -0.00454746       0.00612665
C        2.46253368       9.95219765       3.76131334      -0.00998891       0.00309941      -0.00010276
C        9.85128507       1.41824949       3.68362632       0.00872818      -0.00189756       0.00424782
C        8.61770084       3.56690202       3.68574597      -0.00234401      -0.00614805       0.00411047
C        7.41242415       5.71706402       3.68480780       0.00410564       0.00805671       0.00669560
C        6.18332336       7.86155369       3.67296855       0.00085581      -0.00531517      -0.00138538
C        4.93219586       9.97248480       3.69534808      -0.00079955      -0.00143601       0.00003151
Cu       2.54891493       4.93380334       3.64440306       0.00328173      -0.00409562      -0.00059234
O        1.86863596       5.92628320       5.60732392       0.00293688      -0.00539911       0.00514395
O        3.38480844       3.76893996       6.01291092      -0.00415249       0.01434911      -0.00909216
H        2.81716821       4.59533709       6.04399641       0.00146273      -0.00566429       0.00295214
