52
Lattice="12.336457 0.0 0.0 -6.168228499999997 10.683685154694365 0.0 0.0 0.0 15.0" Properties=species:S:1:pos:R:3:forces:R:3 energy=-442.9190920402208 free_energy=-442.9190920402208 stress="-0.0031622723597025883 -0.0011376389684571483 -5.690657611067801e-06 -0.0011376389684571483 -0.005400086968664199 -5.012272508371696e-06 -5.690657611067801e-06 -5.012272508371696e-06 -1.7296595254157527e-05" pbc="T T T"
C       -0.01928726      -0.01270358       3.72516931       0.00230991       0.00335021      -0.00570778
C       -1.25944902       2.12655367       3.57530733      -0.00639281      -0.00147752       0.00482853
C       -2.51326671       4.26324985       3.63989910       0.00422561       0.00656398      -0.00670683
C       -3.73630785       6.39666479       3.75652061      -0.01357120       0.00425832       0.00193678
C       -4.95742352       8.52655128       3.79732806       0.00163696      -0.00340846      -0.00189162
C        2.45184669      -0.06270927       3.85300122      -0.00312745       0.00549088      -0.00192177
C        1.24505285       2.04818365       3.58810583      -0.00026499       0.00015562      -0.00556546
C       -0.07510197       4.31504871       3.55124298       0.01095646       0.00159723       0.00723341
C       -1.29441802       6.40841196       3.88578961      -0.00794523      -0.00638156       0.01015664
C       -2.48217530       8.52214192       3.91827442       0.00576807      -0.00438010      -0.00945970
C        4.92160580      -0.02436757       3.89296533       0.00263352      -0.00093663       0.00618061
C        3.67210410       2.07053234       3.76644040       0.00159124       0.00531279      -0.00386852
B        1.15172196       6.38600250       4.26956802       0.00421437       0.00182346      -0.00491372
C       -0.00591707       8.53195621       4.01111243      -0.00101885      -0.00686702       0.00395235
C        7.38529637      -0.00577810       3.84688933       0.00738704      -0.00043162      -0.00456454
C        6.13437452       2.14374736       3.74090940      -0.00371319      -0.00004028      -0.00300275
C        4.87340010       4.33931190       3.61608089      -0.00496697      -0.00158121       0.00387830
O        3.75738385       6.47620922       3.79099357       0.00928242       0.00193157       0.00799957
C        2.48458710       8.53103824       3.95081908      -0.00744476       0.00899258      -0.00267056
C        9.84803916      -0.00567457       3.74128812       0.01287148      -0.00035129       0.00394286
C        8.60420057       2.13124799       3.67085412      -0.00539314      -0.00569119       0.00466396
C        7.35222719       4.27189070       3.65236393       0.00357478      -0.00023547      -0.00167022
C        6.14624819       6.42364967       3.65740785      -0.00051240       0.00054070       0.00428265
C        4.92560523       8.54610055       3.77411692      -0.00378168      -0.00215568       0.01081448
C       -0.01728981       1.41158193       3.61986409      -0.00121944       0.00061280      -0.01306155
C       -1.27343475       3.55035441       3.54943211       0.00752158       0.00132053       0.00691929
C       -2.51568439       5.68433862       3.75371961      -0.01344418       0.00562480      -0.00026455
C       -3.72036398       7.81621375       3.83359443       0.00322045      -0.00100423      -0.00810471
C       -4.95913278       9.94572723       3.80485984      -0.00019120      -0.00174077      -0.00150082
C        2.46021568       1.34184800       3.76697313       0.00172642       0.00554956      -0.00389867
P        1.56546179       3.73505803       3.22722043      -0.00184030      -0.00669981       0.01103870
C       -0.09329714       5.68529640       3.87670865       0.00181134       0.00516177      -0.00510068
C       -1.24888444       7.82148319       3.96917270       0.00137382      -0.00788092       0.00165537
C       -2.47591101       9.93605957       3.90895443      -0.00109076      -0.00079758       0.00899602
C        4.91586184       1.40654268       3.81272528      -0.00193436       0.00300867       0.00494037
B        3.54679447       3.58064231       3.67656908      -0.00535151      -0.00564003      -0.00631344
C        1.24406130       7.84318676       4.08719683      -0.00254535       0.00013595      -0.00870129
C       -0.01423465       9.96078878       3.92530908       0.00550799      -0.00563682       0.00037963
C        7.37109284       1.42418497       3.75135031      -0.00483910      -0.00432878      -0.00021126
C        6.10430247       3.57825389       3.65717427       0.00074134       0.00057594      -0.00894945
C        4.93324371       5.74712212       3.62882410       0.00338219      -0.00318144       0.00133507
C        3.72255074       7.85241884       3.85406082      -0.01028233       0.00165419      -0.00879769
C        2.45934149       9.96013084       3.84449043       0.01082787       0.00719269       0.00239306
C        9.84479101       1.42143686       3.65469660      -0.00597477      -0.00284696      -0.00017010
C        8.59146800       3.55471163       3.64542534       0.00672258      -0.00192264      -0.00844203
C        7.36768461       5.68914337       3.67453909      -0.00815986      -0.00017392       0.00019312
C        6.15358133       7.83492377       3.73531976      -0.00143141      -0.00174521       0.00229217
C        4.91351567       9.97048449       3.74875576       0.00673288      -0.00189325       0.00468130
Cu       2.43391220       5.07170545       4.87910772      -0.00453695       0.00584909      -0.00485646
O        3.47219518       5.44183520       6.40423964       0.00196245       0.00623650       0.00608539
O        2.94583589       4.44254721       7.29287903       0.00378362       0.00158886       0.01046503
H        2.54574737       5.00172843       7.98641813      -0.00079221      -0.00509829      -0.00092849
