51
Lattice="12.336457 0.0 0.0 -6.168228499999997 10.683685154694365 0.0 0.0 0.0 15.0" Properties=species:S:1:pos:R:3:initial_magmoms:R:1:forces:R:3 energy=-436.3293146942948 free_energy=-436.3293146942948 stress="-0.0016246422859350436 -0.0023233912337341065 -2.3803442501616945e-05 -0.0023233912337341065 -0.006776337264404278 3.8804369441720844e-05 -2.3803442501616945e-05 3.8804369441720844e-05 -1.6567359099694637e-05" pbc="T T T"
C       -0.01860655      -0.07933613       3.96763333       0.00000000      -0.00041025       0.00047243      -0.00414485
C       -1.27260992       2.06348547       4.11254511       0.00000000       0.00636739      -0.01518034      -0.00114050
C       -2.51555001       4.20117066       3.86379043       0.00000000       0.00214032      -0.00557310      -0.01064159
C       -3.72285201       6.33363606       3.67202463       0.00000000      -0.00306380      -0.00289338      -0.00519696
C       -4.94487894       8.46705771       3.77138000       0.00000000       0.00031613      -0.00118288      -0.00398231
C        2.45663633      -0.11165878       3.84783381       0.00000000      -0.00580074      -0.00324419       0.00664526
C        1.23730359       1.99491132       4.23498913       0.00000000      -0.00100454       0.00303162      -0.00070227
C       -0.10672955       4.23792915       4.22181305       0.00000000      -0.00057110      -0.00201485      -0.01701155
C       -1.24975181       6.32063639       3.65208048       0.00000000      -0.00131929       0.00255268      -0.00327959
C       -2.47014612       8.45237969       3.66431214       0.00000000       0.00482597      -0.00704074      -0.00870752
C        4.91916576      -0.09017352       3.65167860       0.00000000      -0.00274987      -0.00549499      -0.01495548
C        3.64673879       1.97821210       3.51645926       0.00000000      -0.00036524       0.00534148       0.01676825
P        1.54905162       6.12140068       3.11789389       0.00000000      -0.00173139       0.01214696      -0.01298250
C       -0.00076190       8.46488916       3.54935857       0.00000000      -0.00404948       0.00221338      -0.00772509
C        7.37276157      -0.05151599       3.68437440       0.00000000       0.00433354      -0.00038564      -0.01059914
C        6.12464840       2.07627003       3.51587923       0.00000000       0.00648521       0.00645726      -0.00494493
C        4.95362402       4.25127519       3.22115960       0.00000000      -0.00233127       0.00202755       0.00652738
C        3.65748617       6.38142791       3.60089708       0.00000000       0.00344542       0.00204613       0.00909962
C        2.46690024       8.53247499       3.62517567       0.00000000      -0.01061820       0.00191034      -0.00187845
C        9.84997575      -0.04885222       3.86445233       0.00000000       0.00309272       0.00489845      -0.01045587
C        8.59741026       2.07570724       3.79644455       0.00000000       0.00065807       0.01185476      -0.00114411
C        7.36794900       4.21051891       3.59029796       0.00000000      -0.00306692       0.00553146       0.00638487
C        6.14499396       6.35635712       3.57441036       0.00000000       0.00161391      -0.00902003      -0.01537144
C        4.93042830       8.49430510       3.75027361       0.00000000       0.00128411      -0.00286024      -0.00519697
C       -0.02372145       1.34128237       4.13472812       0.00000000       0.00471215      -0.00707720       0.00575153
C       -1.30241028       3.48554460       4.10373669       0.00000000       0.00112656      -0.01320698       0.00535454
C       -2.49562097       5.61884303       3.72649200       0.00000000      -0.00255044      -0.00285590       0.00138519
C       -3.71234815       7.75344346       3.69809954       0.00000000       0.00224666      -0.00227661       0.00007790
C       -4.95292885       9.88053485       3.88172060       0.00000000      -0.00524149      -0.00012120       0.00862346
C        2.44995652       1.30549603       3.90761679       0.00000000      -0.00146456      -0.00079283       0.01452151
P        1.30638399       3.56146808       5.03112958       0.00000000       0.00112358      -0.00432175       0.00885993
C       -0.04790227       5.56245417       3.74240344       0.00000000       0.00193788       0.01351789       0.00729572
C       -1.23715282       7.74413593       3.58237767       0.00000000       0.00458057      -0.00085546       0.01073271
C       -2.47703498       9.87371484       3.71244731       0.00000000      -0.00397542      -0.00834724       0.00649916
C        4.90534926       1.34269747       3.55771779       0.00000000       0.00264470       0.00148866       0.00191971
S        3.49728791       3.48576986       2.70539676       0.00000000      -0.00551701       0.01256150      -0.00145370
C        1.26223529       7.81906555       3.46719222       0.00000000      -0.00998857       0.00171555      -0.00532352
C       -0.01295944       9.89541915       3.62538085       0.00000000       0.00084592      -0.00189405      -0.00144181
C        7.35790184       1.37414960       3.67122568       0.00000000       0.00681040       0.00428078      -0.00642286
C        6.13081608       3.50024612       3.42969081       0.00000000       0.00044202       0.00857136       0.00760672
C        4.89379377       5.66371110       3.42513643       0.00000000       0.00060334      -0.00078987      -0.00079754
C        3.69613141       7.79433898       3.65012805       0.00000000      -0.00651251       0.00344314       0.00080263
C        2.44957013       9.94228610       3.73544279       0.00000000       0.00151041       0.00110293       0.00294136
C        9.83727782       1.36643426       3.93996662       0.00000000      -0.00079126       0.00289502      -0.00109916
C        8.59281058       3.49528259       3.75615914       0.00000000      -0.00436478       0.00949310       0.00298214
C        7.37159219       5.63222473       3.60804298       0.00000000      -0.00192663      -0.00420351       0.00673948
C        6.15711863       7.77223814       3.71541734       0.00000000       0.00337302      -0.01083384       0.00062610
C        4.91834021       9.91293086       3.87014750       0.00000000       0.00104036      -0.00112904       0.01130666
Cu       2.66026035       5.33648364       4.95063586       0.00000000       0.00044106       0.00987740       0.00118500
O        2.92833021       7.28036752       6.58707967       1.00000000       0.00793155      -0.00220734      -0.00590328
O        3.20678977       6.04010431       6.61020572       1.00000000       0.00348179      -0.01362864       0.01186616
