52
Lattice="12.336457 0.0 0.0 -6.168228499999997 10.683685154694365 0.0 0.0 0.0 15.0" Properties=species:S:1:pos:R:3:forces:R:3 energy=-449.4984884315121 free_energy=-449.4984884315121 stress="-0.00288943920718446 0.002017882682453435 -2.4871034208017916e-06 0.002017882682453435 -0.0019370792619277531 1.1450936405791607e-05 -2.4871034208017916e-06 1.1450936405791607e-05 -2.2950532356218036e-06" pbc="T T T"
C        0.00983067       0.04545005       3.71549211       0.00652851      -0.00514306      -0.00628702
C       -1.21870730       2.17782255       3.60098870      -0.00019868      -0.00076645      -0.00315719
C       -2.47926539       4.31046753       3.60518443      -0.00466103      -0.00315396       0.00195966
C       -3.72415904       6.44421663       3.66742333       0.00226799       0.00025505      -0.00586596
C       -4.94001402       8.58035257       3.73214390       0.00426368      -0.00570839      -0.00802283
C        2.47347549       0.01373436       3.79373841      -0.00150655      -0.00075233       0.00471108
C        1.28881282       2.14519935       3.60912757       0.00242735      -0.00572131      -0.00863364
C       -0.02117498       4.36907556       3.56246957      -0.00822889      -0.00260180       0.00368152
C       -1.28713302       6.47245960       3.75432516      -0.00811293       0.00768007      -0.00619314
C       -2.47942100       8.58607759       3.79993323      -0.00689226       0.00383795       0.00606651
C        4.94539669       0.02970286       3.82741630      -0.00837090      -0.00465921      -0.00035145
C        3.71974785       2.16093477       3.72971776       0.00021043      -0.00593430       0.00213483
C        1.13903131       6.46063966       4.01803578      -0.00134752      -0.00299147       0.00808289
C       -0.00876878       8.58178246       3.89298908       0.00663575       0.00588885      -0.00829982
C        7.41528550       0.02408069       3.81421073      -0.00231053      -0.00157110       0.00173551
C        6.17770160       2.16843507       3.71447087       0.00674003      -0.00294225       0.00415519
C        4.86878451       4.30618209       3.63185428       0.00111989       0.00295017      -0.01043769
N        3.80615445       6.47888641       4.00772001      -0.00772771       0.00101670      -0.00136593
C        2.48631410       8.55756197       3.93034738       0.00098645       0.00323685       0.00383948
C        9.87835586       0.03068273       3.75414839      -0.00362391       0.00108215      -0.00611420
C        8.64337335       2.16708996       3.66777439       0.00264730      -0.00145056      -0.00722748
C        7.37904430       4.30112667       3.62048290       0.00945588       0.00705587       0.00200029
C        6.15980082       6.44883250       3.65370334       0.00541401       0.00434032      -0.00162818
C        4.94682805       8.58171428       3.78022950      -0.00156718      -0.00006841       0.00074159
C        0.02243108       1.47544555       3.63687713       0.00349006      -0.00128255      -0.00171344
C       -1.22365731       3.60854199       3.56276441      -0.00737488      -0.00334060       0.00845080
C       -2.49714394       5.73688661       3.66276735      -0.00505389      -0.00275968       0.00555593
C       -3.71178558       7.86840314       3.73197918       0.00054611      -0.00380941       0.00088098
C       -4.93616442      10.00306398       3.75697290       0.00577738      -0.00686699      -0.00619308
C        2.48985930       1.42177568       3.73927886       0.00033972      -0.00393638       0.00097484
P        1.64058079       3.82376756       3.24055856      -0.00307599       0.00308744      -0.00376529
C       -0.05377479       5.77910591       3.76649299      -0.00710672       0.00129068      -0.00463237
C       -1.25219854       7.88389719       3.82852745      -0.00191601       0.01195866      -0.00758246
C       -2.46133113      10.00011587       3.82366893      -0.00882499       0.00069242      -0.00029227
C        4.95697298       1.44988439       3.77514460       0.00147659      -0.00630708       0.00661112
C        3.65747112       3.56139504       3.62489974      -0.00270117      -0.00218822       0.00134892
C        1.23357023       7.84421021       3.96032828       0.00671332      -0.00132364      -0.00369154
C        0.00841344       9.99821711       3.85369516      -0.00352267       0.00443531       0.00146045
C        7.41515614       1.44993489       3.73306469       0.00540467      -0.00451729      -0.00471723
C        6.14020044       3.59602326       3.64040108       0.00910250       0.00331214      -0.00013719
C        4.91967778       5.76201965       3.71847130       0.00224620       0.00614732       0.00179194
C        3.73249679       7.83661209       3.90557077      -0.00172446       0.00316371       0.01197986
C        2.48291408       9.97942803       3.83510352      -0.00342884       0.00243301       0.00588431
C        9.88397837       1.45912325       3.66982548       0.00063363       0.00069303       0.00239809
C        8.62752873       3.59471910       3.61997266       0.00245153      -0.00155948       0.00902164
C        7.38288673       5.72694628       3.62609559       0.00699143       0.00622387       0.00292182
C        6.16558142       7.86947575       3.71127067       0.00189368       0.00119390       0.01146845
C        4.94343250      10.00868921       3.75068822      -0.00041139       0.00079384      -0.00148363
Cu       2.42358036       5.34954279       4.77174093       0.00598952       0.00429335      -0.00058201
O        3.18888992       4.84915258       6.42623805       0.00077693       0.00870151      -0.00410107
O        2.13513296       4.14739445       7.10309987      -0.01466889      -0.00957027      -0.00183783
H        2.62549869       3.81795713       7.88120685       0.01182746      -0.00483800       0.00445627
