52
Lattice="12.336457 0.0 0.0 -6.168228499999997 10.683685154694365 0.0 0.0 0.0 15.0" Properties=species:S:1:pos:R:3:forces:R:3 energy=-444.45394614263364 free_energy=-444.45394614263364 stress="-0.0056937619592795675 -0.0011705593013057536 2.7283700954033606e-05 -0.0011705593013057536 0.0032012786712583372 2.1753661217508908e-05 2.7283700954033606e-05 2.1753661217508908e-05 -1.3768231833117552e-05" pbc="T T T"
C        0.02960686      -0.02815633       3.89136677      -0.00031015       0.00944698      -0.00176940
C       -1.21819130       2.09467477       3.89645506       0.00267220      -0.00238002       0.00202589
C       -2.43171080       4.23659203       3.90766785       0.00426128       0.00248440      -0.00495515
C       -3.64423720       6.38342991       3.90080289      -0.00373908       0.00072898      -0.00101517
C       -4.88369490       8.53637807       3.90249237       0.00354796       0.00123806      -0.00258131
C        2.49125493       0.00279422       3.85684225      -0.00004145      -0.00041953       0.00589926
C        1.21741722       2.11811246       3.77991446       0.00491922      -0.00078165      -0.00489904
C       -0.01622026       4.24569819       3.84399332       0.00219709      -0.00417275       0.00056567
C       -1.19850079       6.36720637       3.92320106       0.00081711      -0.00100880      -0.00127533
C       -2.42480711       8.52294957       3.92232006      -0.00112146      -0.00072494      -0.00095378
C        4.96522659      -0.03126517       3.78031911       0.00610078       0.00021105       0.00118082
C        3.71536863       2.07488630       3.46145145      -0.00771124      -0.00239720      -0.00666085
O        1.17268403       6.38595767       3.89515302       0.00490278       0.00206307      -0.00356989
C        0.02889991       8.49058186       3.88127679       0.00080832       0.00083961       0.00039855
C        7.43321895      -0.06505420       3.80897878       0.00325590      -0.00552985       0.00041227
C        6.21251616       2.09075768       3.61663804      -0.00005367      -0.00372990       0.00327591
C        5.07911202       4.28962024       3.36700041      -0.00277994       0.00155128       0.01018659
C        3.84726118       6.37537756       3.64777046      -0.00255632      -0.00189873       0.00055018
C        2.47306592       8.44532446       3.83131741      -0.00306174       0.00612732       0.00226824
C        9.88923928      -0.06706177       3.86599870      -0.00435752      -0.00060869       0.00097787
C        8.66376229       2.08409010       3.82800283      -0.00390433       0.00474320      -0.00025979
C        7.46763507       4.23830372       3.74544679      -0.00289572       0.00660985       0.00046596
C        6.27668731       6.40959679       3.72482294       0.00595427      -0.00075202       0.00648789
C        4.97398783       8.50190837       3.82481631       0.00073413      -0.00409298      -0.00063967
C        0.02083074       1.40395926       3.87400794       0.00590617       0.00538489      -0.00319998
C       -1.20806506       3.52423154       3.89862123       0.00262921      -0.00428927      -0.00274549
C       -2.42370721       5.65550386       3.92712236      -0.00335338       0.00363913      -0.00934968
C       -3.65653001       7.81429440       3.92219989      -0.00078536      -0.00262728      -0.00265910
C       -4.89837876       9.96298393       3.90470032      -0.00281907       0.00413784      -0.00446650
C        2.46847071       1.43114026       3.71877647       0.00073042      -0.00221832       0.00152100
O        1.16478714       3.50517362       3.82277206      -0.00451496      -0.00999969       0.00740578
C       -0.00960878       5.64847479       3.86047611       0.00291877      -0.00137196      -0.00122830
C       -1.20364781       7.79728968       3.92178702      -0.00065796       0.00014351       0.00311994
C       -2.43901389       9.95818917       3.86371755       0.00320954       0.00089934      -0.00305932
C        4.96051570       1.39348543       3.60821350      -0.00267767       0.00105429       0.00396735
P        3.63682834       3.63516899       2.63554294       0.00314981      -0.00118708      -0.00373299
C        1.23061848       7.76700346       3.85680192       0.00059352       0.00314989       0.00013824
C        0.03077636       9.92321813       3.82648529       0.00616772      -0.00108991      -0.00090444
C        7.43262346       1.37081907       3.75572063       0.00033063      -0.00732538      -0.00009069
C        6.24882415       3.52013732       3.56548076      -0.00061266      -0.00057706      -0.00042836
C        5.06391038       5.71077556       3.54030087       0.00399835       0.00366454       0.00552562
C        3.74082920       7.75229720       3.76531965      -0.00671336      -0.00057230      -0.00199353
C        2.48669151       9.87957070       3.84191011      -0.00128057       0.00168066       0.00360136
C        9.89686727       1.36986988       3.87818871      -0.00260303       0.00020550      -0.00563626
C        8.67544984       3.51487677       3.84055385      -0.00083661       0.00993965      -0.00119248
C        7.48008903       5.66846161       3.79511902       0.00075727       0.00250441      -0.00043124
C        6.22949249       7.82268328       3.83068768       0.00739744      -0.00185694      -0.00003967
C        4.96483069       9.92387606       3.87473758      -0.00094028       0.00178235      -0.00560910
Cu       2.80783055       4.99727802       4.22133393       0.00203909       0.00401130       0.00602649
O        1.97252380       4.69483663       5.93945491      -0.00505170      -0.00220749       0.00270272
O        2.01561245       5.99270573       6.49465404      -0.00774556      -0.00811994      -0.00107962
H        2.59023441       5.84623259       7.27523294      -0.00687418      -0.00630142       0.00772254
