52
Lattice="12.336457 0.0 0.0 -6.168228499999997 10.683685154694365 0.0 0.0 0.0 15.0" Properties=species:S:1:pos:R:3:forces:R:3 energy=-443.8305075972751 free_energy=-443.8305075972751 stress="-0.0033504830777448 2.1559847323288934e-05 2.0487608089192903e-05 2.1559847323288934e-05 -0.0008904847387993728 -1.9526974408723507e-06 2.0487608089192903e-05 -1.9526974408723507e-06 -7.049325160313411e-06" pbc="T T T"
C       -0.04360724       0.01090833       3.91011558      -0.00613792       0.00171047       0.00479714
C       -1.28691990       2.12851001       3.99963641      -0.00277459       0.00159089       0.00626524
C       -2.51638097       4.26782495       3.96507695      -0.00816064      -0.00406936       0.00322657
C       -3.74069234       6.40968854       3.85969528      -0.00530343      -0.00090450       0.00503224
C       -4.98950439       8.54777649       3.81064781       0.00893376       0.00809728       0.00522432
C        2.42015059       0.00492273       3.89364262      -0.00321474      -0.00188218      -0.00131468
C        1.19807445       2.18558263       3.92943533      -0.00502147      -0.00895083      -0.00225598
C       -0.04949467       4.25826778       4.07256095       0.00040170       0.00563364      -0.00024576
C       -1.29557405       6.41591660       4.02968634       0.00979640       0.00197111       0.00360698
C       -2.52268437       8.54795273       3.95205466       0.00231129       0.00416772      -0.00458953
C        4.89061771      -0.01349482       3.84075384       0.00001825       0.00000138      -0.00410234
C        3.64484440       2.04741979       3.43305313       0.01050102       0.00301920       0.00812119
C        1.15772012       6.38893966       4.06144590       0.00577183      -0.00204894       0.00199977
C       -0.04406048       8.52511163       3.97540312      -0.01052704      -0.00571188      -0.00070272
C        7.35233608      -0.01289494       3.89378359      -0.00254361       0.00404550      -0.00362429
C        6.12881058       2.11754173       3.61388600       0.00312712       0.00943582      -0.00261752
C        5.03689801       4.28348402       3.08982857      -0.00475621      -0.00247310      -0.00575102
S        3.55326957       6.42571192       2.58017054       0.01640897      -0.00294610      -0.00005627
C        2.42462418       8.53414486       3.79180892      -0.00243651      -0.00722059      -0.01025021
C        9.82064984      -0.00847758       3.90098025       0.00483689       0.00978420       0.00682259
C        8.58643973       2.12819236       3.88359772       0.00106611      -0.00930836      -0.00483934
C        7.38256337       4.26846907       3.68116571      -0.00674435      -0.01221639       0.00988582
C        6.16790332       6.42534643       3.46599603      -0.01255781      -0.00382345      -0.00322854
C        4.89476460       8.55877038       3.62573365       0.01290195       0.00783424       0.00229072
C       -0.04367365       1.43798204       3.97635635      -0.00739604      -0.00338303      -0.01212861
C       -1.29482621       3.54680755       4.03111062      -0.00443718       0.00160901      -0.00260929
C       -2.51694621       5.69536756       3.96439416       0.00258350       0.00104511       0.00420863
C       -3.75070313       7.83513615       3.88336379       0.00708130       0.00507370      -0.00509368
C       -4.98429293       9.97537434       3.89357575      -0.00385179       0.00544811      -0.00173620
C        2.42481648       1.42875429       3.78955451       0.00343302      -0.00412091      -0.00119132
C        1.15889926       3.57448609       4.06080293      -0.00464640      -0.00424085      -0.00297075
C       -0.05022400       5.70429000       4.07169479       0.00949238       0.00356299       0.00600568
C       -1.28729652       7.83418776       3.99994951      -0.00378238       0.00061546       0.00090853
C       -2.51580985       9.97089538       3.90415970      -0.00155667       0.00150368      -0.00403541
C        4.89550529       1.40287641       3.62471599       0.00834377       0.00365518       0.00819074
S        3.55521843       3.53461562       2.57483566       0.01583400       0.00717037      -0.00053319
C        1.19755620       7.77813144       3.93028954      -0.00930443      -0.00792878      -0.00333072
C       -0.04363087       9.95192224       3.91022531      -0.00432150      -0.00523991       0.00718592
C        7.34786982       1.41469172       3.81203068      -0.00125545       0.00500468       0.00022029
C        6.16810276       3.53717711       3.46655060      -0.00493160       0.00338736      -0.00525638
C        5.03643607       5.67829264       3.09176722      -0.00798593      -0.00462196      -0.01507722
C        3.64407150       7.91399854       3.43659127       0.01142857      -0.00053021       0.00428719
C        2.42005650       9.95783237       3.89248787       0.00260017       0.00265150       0.00381378
C        9.81414182       1.41462679       3.95007928       0.00265674       0.00491819      -0.00115430
C        8.59592967       3.55415268       3.86077723      -0.00468310      -0.01545783       0.00183765
C        7.38269411       5.69543542       3.68056981      -0.01432103      -0.01079040       0.00802217
C        6.12800349       7.84459716       3.61256418       0.00990132       0.00186819       0.00626999
C        4.89056188       9.97572913       3.83957936       0.00071886       0.00841287      -0.00320169
Cu       2.40191720       4.98270412       4.40690483      -0.01184399       0.00468512      -0.00067196
O        3.63850004       4.96469220       5.85429404       0.00745070      -0.00041354      -0.01433054
O        2.79592423       4.96157453       7.02752426      -0.00481022      -0.00364122       0.00064371
H        3.48327331       5.01573905       7.72007851       0.00170641       0.00402137       0.00803263
