51
Lattice="12.336457 0.0 0.0 -6.168228499999997 10.683685154694365 0.0 0.0 0.0 15.0" Properties=species:S:1:pos:R:3:initial_magmoms:R:1:forces:R:3 energy=-441.7952473147581 free_energy=-441.7952473147581 stress="-0.004671568668304366 -0.0014038819845324884 1.515981327991272e-05 -0.0014038819845324884 0.0022505773931934263 -7.346232321314719e-06 1.515981327991272e-05 -7.346232321314719e-06 -3.501408941186041e-06" pbc="T T T"
C       -0.02062340      -0.04040574       3.72452495       0.00000000      -0.00625976      -0.00293198       0.00100965
C       -1.26939713       2.08087284       3.53828045       0.00000000      -0.00495073       0.01304093       0.01329821
C       -2.52049761       4.22748001       3.70691106       0.00000000      -0.00308855      -0.00003858      -0.00229377
C       -3.73369533       6.37338799       3.86253144       0.00000000       0.00935920      -0.00794871       0.00299845
C       -4.95416469       8.51542097       3.86852443       0.00000000      -0.00018748       0.00639327       0.00075561
C        2.44737391      -0.02167461       3.79924395       0.00000000       0.00326532       0.00146664      -0.00370959
C        1.21510153       2.02706168       3.34265490       0.00000000       0.00001756      -0.01007972      -0.00742292
C       -0.13622547       4.26928909       3.27631604       0.00000000      -0.00463612       0.00992560       0.00350744
C       -1.30333846       6.38361520       3.72050253       0.00000000      -0.00314592      -0.00387317       0.00323568
C       -2.49411980       8.52138665       3.86408157       0.00000000      -0.00582027      -0.00496742       0.01021914
C        4.91741414      -0.03635469       3.84299710       0.00000000      -0.00687950       0.01081047      -0.00227382
C        3.67492857       2.16231193       3.75835435       0.00000000       0.00479194      -0.00264590       0.00213007
C        1.13443695       6.32776336       3.71547780       0.00000000       0.00318535      -0.00781662      -0.00147511
C       -0.01549642       8.48174121       3.80651397       0.00000000      -0.00079702       0.00132102       0.01349567
C        7.39000318      -0.07168126       3.81575401       0.00000000       0.00273756       0.00356408       0.00544946
C        6.15012057       2.09251179       3.84255440       0.00000000       0.00432421      -0.00110039       0.00267599
C        4.89161699       4.26081669       3.80120509       0.00000000      -0.00106412      -0.00973498       0.00241284
O        3.81558341       6.42111370       3.51893737       0.00000000      -0.00693892      -0.00053416      -0.00031159
C        2.48042343       8.43580805       3.75536857       0.00000000       0.00723920      -0.00126561       0.00621126
C        9.84416128      -0.06861927       3.74378203       0.00000000       0.00693575      -0.00082810       0.01069753
C        8.60876265       2.07891071       3.77236054       0.00000000       0.00226643      -0.00320338      -0.00853174
C        7.37100996       4.22929850       3.85115656       0.00000000       0.00612842      -0.00253254      -0.00390003
C        6.16191641       6.38283898       3.85638163       0.00000000       0.00004581       0.00644766       0.00326709
C        4.92844947       8.50090668       3.79620788       0.00000000      -0.00160514       0.00013632       0.00070379
C       -0.03201680       1.37600984       3.53328944       0.00000000      -0.00887275       0.00084684       0.00010296
C       -1.29581447       3.50874169       3.50469806       0.00000000      -0.00586853       0.01435168       0.00129251
C       -2.51696246       5.65500060       3.76910224       0.00000000       0.00579666      -0.00846119       0.00460354
C       -3.72151750       7.80317534       3.87858515       0.00000000      -0.00328472      -0.00611801      -0.00065904
C       -4.95192888       9.94527734       3.80797232       0.00000000      -0.00062501       0.00503321      -0.01442231
C        2.44313847       1.40299122       3.65396283       0.00000000       0.00665739      -0.00162481       0.00210821
S        1.21828961       3.53177139       2.48291427       0.00000000       0.01017441      -0.00270301      -0.01086456
C       -0.07176702       5.67040963       3.54885100       0.00000000      -0.00749539       0.00234662       0.00498456
C       -1.26490614       7.80148822       3.81497987       0.00000000      -0.00428632      -0.00365947       0.00584007
C       -2.48712152       9.94339949       3.85531145       0.00000000      -0.00224206      -0.00071596       0.00678620
C        4.91402665       1.39544575       3.82839861       0.00000000       0.00167752       0.00734708      -0.00314516
C        3.69881099       3.55174558       3.82538511       0.00000000      -0.00282862      -0.00307478       0.00188275
C        1.22340001       7.70545863       3.76638147       0.00000000       0.00661948      -0.00805057      -0.00265466
C       -0.01639806       9.91077638       3.83322843       0.00000000      -0.00423422       0.00952473      -0.00444822
C        7.38588875       1.35963914       3.82433567       0.00000000       0.00177663       0.00102297      -0.01081396
C        6.14537448       3.52115643       3.84021370       0.00000000       0.00632319      -0.00598351      -0.00940345
C        4.96525583       5.68801664       3.74246814       0.00000000      -0.00171987      -0.00320642       0.00181469
C        3.72891879       7.78883622       3.70649918       0.00000000       0.00140752      -0.00107621       0.00293887
C        2.45527226       9.87408976       3.78044648       0.00000000       0.00625484       0.00147682      -0.00592884
C        9.84549950       1.36744454       3.69240481       0.00000000       0.00311593       0.00068883       0.00249921
C        8.60024197       3.50780614       3.79167922       0.00000000       0.00280199      -0.00521128      -0.00504889
C        7.38248856       5.65429768       3.87675810       0.00000000       0.00497406       0.00124135      -0.01340582
C        6.16244466       7.80487652       3.85050091       0.00000000      -0.00111350       0.00965858       0.00125868
C        4.91346196       9.92441081       3.76664460       0.00000000      -0.00021933      -0.00611923      -0.00279419
Cu       2.33152725       4.88191950       4.06627889       0.00000000      -0.00911042       0.00290403      -0.00468535
O        3.35192026       6.46333347       6.16685691       1.00000000      -0.00495117       0.01588016      -0.00444539
O        2.67236520       5.43100011       5.99602647       1.00000000      -0.00565093      -0.00992314       0.00445828
