51
Lattice="12.336457 0.0 0.0 -6.168228499999997 10.683685154694365 0.0 0.0 0.0 15.0" Properties=species:S:1:pos:R:3:initial_magmoms:R:1:forces:R:3 energy=-439.8477860058438 free_energy=-439.8477860058438 stress="-0.0035334603891449545 0.004633830938041944 -6.375022145047017e-06 0.004633830938041944 0.003005052398197808 -1.1122800743482187e-05 -6.375022145047017e-06 -1.1122800743482187e-05 1.1747815893925166e-05" pbc="T T T"
C        0.03273565       0.04606596       3.69034002       0.00000000       0.00371080       0.01469935      -0.00050203
C       -1.18682515       2.18829005       3.48847376       0.00000000      -0.00733450       0.00404309       0.00548779
C       -2.44289862       4.32263788       3.60822039       0.00000000       0.00193591       0.00025843      -0.00776281
C       -3.69348742       6.45653586       3.80281953       0.00000000      -0.00524471      -0.01351015      -0.00435539
C       -4.91635403       8.59830402       3.84789495       0.00000000       0.00372048       0.00353766       0.00089823
C        2.50099978       0.07558810       3.83505749       0.00000000       0.00411699       0.00137786      -0.00046368
C        1.30796137       2.17643660       3.42497824       0.00000000       0.00144201      -0.00220845      -0.00675040
C       -0.04203587       4.42059335       3.17739611       0.00000000      -0.00525421      -0.00597144       0.00399687
C       -1.27207546       6.49680650       3.56074785       0.00000000      -0.00033266       0.01200664      -0.00717893
C       -2.45971769       8.60611237       3.82910788       0.00000000      -0.00113254       0.00171315      -0.00942145
C        4.96897955       0.03720210       3.86402431       0.00000000       0.00132563       0.00076056       0.00127895
C        3.79362486       2.15955071       3.86443516       0.00000000      -0.00258970      -0.00036141       0.00330409
O        1.10293160       6.53669137       3.30906561       0.00000000      -0.00307839      -0.00272913       0.00816916
C        0.00074557       8.59085167       3.72752639       0.00000000       0.00515509       0.00264997      -0.00646300
C        7.44774938       0.00900691       3.77701273       0.00000000      -0.00621537      -0.00905126      -0.00497241
C        6.23725409       2.15061710       3.89648983       0.00000000       0.00368169      -0.00628872      -0.01138726
C        5.02976550       4.26333364       4.03844675       0.00000000       0.00596044      -0.00027412      -0.00301374
C        3.76615444       6.40607352       3.99243558       0.00000000       0.00407163      -0.00556211      -0.00726898
C        2.46379322       8.51747114       3.72344253       0.00000000       0.00116851       0.00393875      -0.00113982
C        9.90278344       0.01664508       3.68936407       0.00000000       0.00791098      -0.00372284      -0.00645168
C        8.69045519       2.16336588       3.72066213       0.00000000      -0.00430130      -0.00327462       0.00654375
C        7.44995651       4.30276276       3.85119152       0.00000000       0.00012035       0.00398996       0.01037141
C        6.19667227       6.43389423       3.91355795       0.00000000      -0.00452761       0.01069682       0.01194221
C        4.95333695       8.56150147       3.80647075       0.00000000      -0.00228476      -0.00604331       0.01184951
C        0.05740925       1.48006885       3.51456091       0.00000000      -0.00349128       0.01702870       0.00658638
C       -1.21191374       3.62650844       3.40977585       0.00000000      -0.00275541      -0.00336503       0.00851273
C       -2.47650963       5.74597116       3.66723502       0.00000000       0.00368442      -0.00029078      -0.01405272
C       -3.69367570       7.88599642       3.83826788       0.00000000      -0.00056791      -0.01064269       0.00468741
C       -4.90636004      10.02814572       3.80215241       0.00000000       0.00274684       0.00928437      -0.00467796
C        2.52999971       1.50963919       3.73710394       0.00000000      -0.00127938      -0.00177988       0.00673847
P        1.45836917       3.72777277       2.58303673       0.00000000      -0.00233469      -0.01058354       0.00522443
C       -0.09830673       5.82289213       3.28147193       0.00000000      -0.00514406      -0.00255383       0.00136226
C       -1.24633988       7.90448602       3.71994031       0.00000000       0.00362580       0.01273822      -0.00764814
C       -2.44631861      10.03523644       3.87076301       0.00000000       0.00318300       0.00175736      -0.00574036
C        4.99396666       1.45881215       3.89219254       0.00000000       0.00154449       0.00007371       0.00201068
O        3.86318973       3.51894589       4.14169172       0.00000000      -0.00154421       0.00415396      -0.00882151
C        1.20114149       7.88809176       3.61901273       0.00000000       0.00397007      -0.00125912       0.00041539
C        0.03479010      10.00616993       3.80902269       0.00000000      -0.00443171      -0.00383209      -0.00097048
C        7.45697566       1.44483632       3.80639995       0.00000000      -0.00186980      -0.01256087       0.00068167
C        6.23156396       3.57025486       3.93884296       0.00000000       0.00715459      -0.00417212       0.00891714
C        4.95528865       5.68960294       3.99923537       0.00000000       0.00523870       0.00305525      -0.00129699
C        3.71452227       7.78802702       3.83046660       0.00000000      -0.00550452      -0.00618342       0.00282219
C        2.49747807       9.95839992       3.72662097       0.00000000       0.00156673       0.00304478      -0.00048341
C        9.92183458       1.45420761       3.62997325       0.00000000      -0.00355402      -0.00199102       0.00127308
C        8.67876681       3.59366096       3.73458750       0.00000000      -0.00048477       0.00245901      -0.01053799
C        7.42290268       5.72778892       3.86206165       0.00000000      -0.01195488       0.00208416       0.01450075
C        6.18756075       7.86327024       3.85748546       0.00000000       0.00081877       0.00719804       0.01049868
C        4.96594978       9.99565106       3.72167615       0.00000000       0.00903360      -0.00439251      -0.00553739
Cu       2.41231795       5.15242667       4.23010258       0.00000000       0.00076594      -0.00539366       0.00366586
O        1.81826023       3.29910434       6.11393775       1.00000000      -0.00441066       0.00347348      -0.00954406
O        1.61060684       4.53193520       5.90420977       1.00000000       0.00396961       0.00197484       0.00470347
