51
Lattice="12.336457 0.0 0.0 -6.168228499999997 10.683685154694365 0.0 0.0 0.0 15.0" Properties=species:S:1:pos:R:3:initial_magmoms:R:1:forces:R:3 energy=-442.0512968821629 free_energy=-442.0512968821629 stress="-0.0036964196017697597 -0.0028338472439086385 -1.3175067052036219e-05 -0.0028338472439086385 0.0027286211297308785 1.9462617710172046e-05 -1.3175067052036219e-05 1.9462617710172046e-05 1.075085220673626e-05" pbc="T T T"
C       -0.05879524      -0.03031714       3.84912525       0.00000000      -0.00760673      -0.00751924      -0.00165470
C       -1.32167736       2.07693710       3.91467430       0.00000000      -0.00468791       0.00293133       0.00037535
C       -2.55065969       4.22268264       3.89956859       0.00000000       0.00082886      -0.00081327      -0.00053511
C       -3.74944914       6.37638486       3.83253733       0.00000000       0.00366450       0.00011727       0.00185902
C       -4.97896065       8.52601356       3.81247652       0.00000000      -0.00118069      -0.00498808      -0.00580464
C        2.41662479      -0.02324195       3.81781438       0.00000000      -0.00134587      -0.00196269       0.00295202
C        1.16754718       2.13750234       3.88587841       0.00000000      -0.00061966       0.00407292       0.00358625
C       -0.09124916       4.20946749       4.04777963       0.00000000       0.00058095      -0.00086424       0.00965601
C       -1.31354534       6.37397073       3.95997338       0.00000000      -0.00315453      -0.00326028      -0.00068820
C       -2.51827031       8.51621410       3.85726686       0.00000000       0.00117956       0.00792548       0.00115262
C        4.88364690      -0.04609473       3.68466319       0.00000000      -0.00122092       0.00326336      -0.00738131
C        3.61570624       2.04618848       3.39054368       0.00000000       0.00156667       0.00352276       0.00457757
C        1.12337267       6.33482476       4.01408081       0.00000000       0.00008584      -0.00331695      -0.01199082
C       -0.04037004       8.47678087       3.82286267       0.00000000      -0.00236755      -0.00193058      -0.00826899
C        7.34816017      -0.07072136       3.67669236       0.00000000      -0.00528799       0.00413675       0.01231326
C        6.09978651       2.10248577       3.49097330       0.00000000       0.00298634      -0.00865328      -0.00551359
C        4.97059576       4.33763905       3.18971341       0.00000000       0.00139803      -0.00352939       0.00216568
O        3.77896461       6.43903669       3.24541542       0.00000000       0.00355948       0.00376989       0.00140222
C        2.44938060       8.43295428       3.68817693       0.00000000       0.00169483       0.00825557      -0.00256325
C        9.80117288      -0.06814758       3.75658793       0.00000000       0.00081366      -0.00426130       0.00420627
C        8.55912454       2.08148755       3.73537396       0.00000000       0.00717943       0.00040698      -0.00057339
C        7.34853757       4.24170952       3.63840553       0.00000000      -0.00191946       0.00110947       0.00333419
C        6.16101463       6.41077003       3.56657337       0.00000000      -0.00100044       0.00458992      -0.00260793
C        4.89690749       8.50694887       3.66981757       0.00000000       0.00049588      -0.00248086       0.00250919
C       -0.07311829       1.39159361       3.90845541       0.00000000      -0.00757079      -0.00198758      -0.01212784
C       -1.33418831       3.49595465       3.97460930       0.00000000      -0.00052854       0.00372403      -0.00825101
C       -2.53617924       5.65299539       3.91204813       0.00000000       0.00201940      -0.00433396      -0.00389073
C       -3.74522853       7.80596592       3.84820763       0.00000000       0.00418411       0.00100582      -0.00156984
C       -4.98515611       9.95063078       3.85062490       0.00000000      -0.00300507      -0.00659876       0.00238380
C        2.40727970       1.40180902       3.72941207       0.00000000       0.00186736       0.00027087       0.00581444
C        1.10933208       3.51575673       4.05020389       0.00000000       0.01143499       0.00849560      -0.00811285
C       -0.08025496       5.65441836       4.02784081       0.00000000      -0.00250869      -0.00353295      -0.00767574
C       -1.28679659       7.79432536       3.88753571       0.00000000      -0.00317268       0.00013211       0.00194781
C       -2.51729675       9.94046731       3.79029132       0.00000000       0.00168505       0.00723103       0.00555865
C        4.87232530       1.38334782       3.50526887       0.00000000      -0.00099875      -0.00076652       0.00103594
S        3.49658734       3.61256286       2.66609780       0.00000000      -0.00847606       0.01366086       0.00226030
C        1.20082366       7.71087799       3.83441789       0.00000000       0.00336899      -0.00319893      -0.00373898
C       -0.04888696       9.90516287       3.72003607       0.00000000      -0.00536072       0.00149366       0.00047984
C        7.32662034       1.37155213       3.62829560       0.00000000       0.00454825       0.00048170       0.00973550
C        6.11745368       3.54172014       3.43101057       0.00000000      -0.00032292      -0.00827913      -0.00170057
C        4.98357503       5.73925812       3.29053673       0.00000000       0.00332537      -0.00098080      -0.00119756
C        3.70067455       7.78714131       3.55169662       0.00000000       0.00155005       0.00602130       0.00149364
C        2.41547225       9.87367638       3.70309436       0.00000000      -0.00356071       0.00601605       0.00434302
C        9.78512155       1.36046815       3.81201263       0.00000000       0.00379722      -0.00300483      -0.00299608
C        8.56327760       3.51176389       3.76885451       0.00000000       0.00138909       0.00116750      -0.00355106
C        7.36821526       5.66508371       3.68869913       0.00000000      -0.00180634       0.00502493       0.00879402
C        6.14132435       7.82392361       3.69173040       0.00000000      -0.00375722      -0.00001435      -0.00260186
C        4.87721511       9.92771629       3.77241336       0.00000000      -0.00456733      -0.00938147       0.00629602
Cu       2.32561507       4.91823635       4.31547545       0.00000000       0.00134652      -0.00310839       0.01032225
O        4.00047213       6.43018602       5.91336740       1.00000000       0.01342247      -0.00802996       0.00489095
O        3.47738498       5.28838379       5.85093430       1.00000000      -0.00394533      -0.00202939      -0.01044976
