52
Lattice="12.336457 0.0 0.0 -6.168228499999997 10.683685154694365 0.0 0.0 0.0 15.0" Properties=species:S:1:pos:R:3:forces:R:3 energy=-443.3472162726113 free_energy=-443.3472162726113 stress="-0.006287173939084219 -0.0011362673311805557 -1.008001708770413e-05 -0.0011362673311805557 -0.0015776028290992454 -4.198649503626135e-05 -1.008001708770413e-05 -4.198649503626135e-05 2.104738348501882e-05" pbc="T T T"
C       -0.00535058      -0.05464419       3.94932346       0.00276229       0.00331842      -0.00705859
C       -1.26319827       2.05053332       4.11982187      -0.00370219       0.00188504      -0.00106812
C       -2.50157978       4.20535929       4.06843016       0.00554876       0.00553210       0.00008700
C       -3.71202297       6.35449561       3.91143574      -0.00186003      -0.00161899      -0.00171994
C       -4.93927274       8.49637602       3.80114768       0.00122418      -0.00544330      -0.00449345
C        2.46666386      -0.03428301       3.93758694      -0.00322260       0.00355369       0.00048754
C        1.21943618       2.10316932       4.08748791       0.00444037       0.00430814      -0.00747526
C       -0.05597607       4.17035285       4.04121029       0.00214120      -0.00369475      -0.00503094
C       -1.26311035       6.34676914       3.85736907      -0.00018292      -0.00307697       0.00586737
C       -2.46094942       8.49092366       3.85081663      -0.00149237       0.00238611       0.00092766
C        4.93093705      -0.04996864       3.85558556       0.00338696      -0.00027774      -0.00568768
C        3.69916581       2.12400868       3.88935532      -0.00026883      -0.00448552       0.00344898
S        1.25763052       6.18361074       2.95400276       0.00009315      -0.00399372       0.00828177
C        0.00062706       8.48355802       3.65386153       0.00410594      -0.00166272      -0.00639565
C        7.39709477      -0.06483891       3.81824706       0.00589329      -0.00166590       0.00171901
C        6.16896285       2.07240383       3.85557345      -0.00175692      -0.00532273       0.00300899
C        4.94876357       4.20472848       3.55887138      -0.00598781      -0.00374740      -0.00072282
S        3.90525643       6.41683488       2.22351567      -0.00386587      -0.00377813      -0.00040853
C        2.47981711       8.52223111       3.39654582       0.00054967       0.00295168       0.00154140
C        9.86266743      -0.06565844       3.86497681       0.00284074      -0.00611772       0.00056211
C        8.62018281       2.06464642       3.99779487      -0.00127929       0.00143130      -0.01150569
C        7.39881080       4.20992469       3.85986766      -0.00214040       0.00499661       0.01888713
C        6.19502340       6.35847084       3.55711618       0.00115757       0.00897343      -0.00277170
C        4.94834129       8.50919615       3.52498942      -0.01077535      -0.00865919       0.00292971
C       -0.02432503       1.35828083       4.08178050       0.00319277       0.00780525      -0.00980251
C       -1.29024740       3.46976038       4.13495227       0.00055460       0.00211738      -0.00147715
C       -2.49573706       5.63139205       3.98715606      -0.00084323       0.00191659      -0.00457651
C       -3.70209957       7.78039691       3.86197611       0.00137772      -0.00500095      -0.00257018
C       -4.93477924       9.92624469       3.89984135       0.00023768      -0.00533634       0.00620889
C        2.46542044       1.39344554       3.99232722       0.00244768       0.00131307       0.00073354
C        1.16082130       3.49268854       4.12204219      -0.00424922      -0.00123095      -0.00644856
C       -0.10423559       5.56824554       3.76901504       0.00289519      -0.00450183       0.00170421
C       -1.23382194       7.77139356       3.76516807      -0.00101558      -0.00108375       0.00087302
C       -2.46946545       9.92378949       3.87732998      -0.00185428       0.00613631      -0.00724181
C        4.93827517       1.37357861       3.86084745      -0.00302107      -0.00276793      -0.00057717
C        3.76056811       3.52065901       3.81548402      -0.00615232      -0.00598140       0.00277086
C        1.23323202       7.84504936       3.38399163       0.00770012      -0.00099751       0.00223137
C       -0.00393944       9.91499925       3.77904620       0.00683444      -0.00137833      -0.00290875
C        7.39771604       1.35501253       3.90814568      -0.00104396      -0.00287216      -0.00675999
C        6.18267148       3.49111697       3.76012380      -0.00031176      -0.00360239       0.00068508
C        5.04829255       5.61157883       3.23094980       0.00541301       0.00163140       0.00441502
C        3.73676887       7.88200330       3.15682938      -0.00872783      -0.01172523       0.00188451
C        2.46659523       9.91786262       3.71744389       0.00392832      -0.00004686       0.00298804
C        9.84654111       1.34567809       4.02478817      -0.00382966      -0.00417439       0.00479582
C        8.61459218       3.49147888       4.00484381       0.00419122       0.00680759       0.00826330
C        7.40406010       5.63704612       3.81254646      -0.00380167       0.00732002       0.00758082
C        6.18020176       7.78784554       3.59657509      -0.00535279       0.00501974       0.00065082
C        4.93357853       9.91792300       3.80581071      -0.00041796      -0.00814263       0.00996607
Cu       2.48127291       4.70355817       4.53960565       0.00285009       0.01497904      -0.00331249
O        3.20962360       5.87025824       5.82618254      -0.00361509       0.00309004       0.00109720
O        2.19380462       5.74086132       6.85860792       0.00593289       0.01639740       0.00469139
H        2.75720924       5.45555263       7.60552633      -0.00092887      -0.00148294      -0.00927514
