51
Lattice="12.336457 0.0 0.0 -6.168228499999997 10.683685154694365 0.0 0.0 0.0 15.0" Properties=species:S:1:pos:R:3:initial_magmoms:R:1:forces:R:3 energy=-441.69096523353096 free_energy=-441.69096523353096 stress="-0.0026346457994010555 0.0018478495934100862 3.35498078600866e-06 0.0018478495934100862 0.0021767398264292723 -6.0771555391585305e-06 3.35498078600866e-06 -6.0771555391585305e-06 9.117093077679859e-06" pbc="T T T"
C       -0.00679184      -0.01021259       3.82280675       0.00000000       0.00656192       0.00478750      -0.01777368
C       -1.23244229       2.12239274       3.95252811       0.00000000      -0.00675066       0.00147908       0.00171304
C       -2.45792035       4.25942726       4.00303327       0.00000000       0.00068356       0.00235814      -0.00069873
C       -3.70335570       6.39651866       3.89072923       0.00000000      -0.00222038       0.00017767      -0.00390632
C       -4.95333519       8.53396381       3.75362333       0.00000000       0.00494444      -0.01074798      -0.00104489
C        2.45915544       0.01481922       3.76284430       0.00000000      -0.00229247       0.00318636      -0.00085879
C        1.22282937       2.16588193       3.67258299       0.00000000       0.00660852       0.00168391      -0.00902352
C        0.01675224       4.28739238       3.82372972       0.00000000       0.00334167      -0.00046416       0.00061623
C       -1.24539366       6.41254477       3.96113026       0.00000000      -0.00996269      -0.00427380      -0.00276410
C       -2.48100798       8.54494858       3.89935102       0.00000000      -0.00209846      -0.00150591      -0.00781274
C        4.93246908      -0.00773934       3.86024759       0.00000000      -0.00121216      -0.00416338      -0.00044261
C        3.72228686       2.14556306       3.55019509       0.00000000       0.00207654      -0.00292000       0.01228703
O        1.14088271       6.44010456       3.85554270       0.00000000       0.00163123      -0.00505182      -0.01423543
C       -0.01569861       8.52574477       3.91486124       0.00000000       0.00748120       0.00138551       0.00471480
C        7.40605331      -0.03979260       3.95618352       0.00000000       0.00260355       0.00293021      -0.00952430
C        6.19223598       2.10166639       3.83547905       0.00000000      -0.00012096      -0.00542415      -0.00703839
C        5.00480873       4.21393678       3.36753267       0.00000000      -0.00363153      -0.00456700       0.00414911
S        3.74150783       6.41618459       2.38536068       0.00000000       0.00404002       0.00590002       0.00666450
C        2.44238328       8.48347543       3.70744441       0.00000000      -0.00352264       0.00753919      -0.00412834
C        9.86355613      -0.03783506       3.91544180       0.00000000      -0.00672091      -0.00453430      -0.00793241
C        8.64653016       2.10701693       4.00154718       0.00000000      -0.00631648       0.00160173      -0.00452068
C        7.42826572       4.24674342       3.84247279       0.00000000       0.00007575       0.00542247       0.00841309
C        6.19450384       6.38467123       3.52291034       0.00000000       0.01289977       0.00317953       0.00081002
C        4.91765357       8.52040034       3.59433546       0.00000000      -0.00289417       0.00289051       0.00057424
C       -0.00819811       1.41581319       3.84430983       0.00000000       0.00264143       0.00896552      -0.00991562
C       -1.22661018       3.55315627       3.97069556       0.00000000       0.00255305       0.00243369       0.00172699
C       -2.47316036       5.68437188       3.97300272       0.00000000      -0.01123819      -0.00088804      -0.00494540
C       -3.71558923       7.82533749       3.84875897       0.00000000       0.00217860      -0.00783083       0.00779880
C       -4.94247111       9.96884560       3.77842783       0.00000000       0.00351017      -0.00731380      -0.00083961
C        2.46437470       1.44036917       3.63966472       0.00000000       0.00496147       0.00454260       0.00720076
C        1.15631562       3.55675771       3.52168373       0.00000000       0.00588045      -0.00198568       0.00610073
C       -0.03888313       5.72153852       3.86594216       0.00000000      -0.00463883      -0.00323301       0.00042669
C       -1.25672290       7.83327196       3.94667368       0.00000000       0.00001631      -0.00088623      -0.00670063
C       -2.47918107       9.97544813       3.83739744       0.00000000      -0.00585053       0.00137152       0.00357103
C        4.95486564       1.40724618       3.76115307       0.00000000      -0.00096396      -0.00514223       0.00693114
C        3.82070670       3.50099030       3.24640583       0.00000000      -0.00990248      -0.00511758       0.00663137
C        1.18018151       7.81929534       3.80582589       0.00000000       0.00547316      -0.00205154      -0.00283354
C       -0.00313202       9.95337267       3.92454912       0.00000000       0.00571314       0.00429435      -0.00577562
C        7.41801323       1.38824715       3.96057426       0.00000000      -0.00236576      -0.00138471      -0.00362110
C        6.21839241       3.51770814       3.71563736       0.00000000      -0.00217204      -0.00307679       0.01184760
C        5.06588929       5.62770836       3.17044290       0.00000000       0.01180088      -0.00137403       0.01583370
C        3.67994074       7.85973043       3.36504727       0.00000000      -0.00531440       0.00691812      -0.00287602
C        2.46152260       9.91483443       3.89781812       0.00000000      -0.00422170       0.00147670      -0.00474381
C        9.87147316       1.39375593       3.98869219       0.00000000      -0.01017436      -0.00549203       0.00751447
C        8.65082886       3.53588762       3.98088817       0.00000000       0.00047749       0.00512701       0.00038788
C        7.41800209       5.67281182       3.77368471       0.00000000       0.00564957       0.00504805       0.00415678
C        6.16073494       7.81525864       3.59243151       0.00000000       0.00089490       0.00173630       0.00245790
C        4.92690234       9.94549359       3.81006142       0.00000000       0.00095903       0.00351458      -0.00169056
Cu       2.44494065       4.58590105       2.65425077       0.00000000      -0.00448404      -0.00599290       0.00298921
O        1.85072982       5.10175560       6.14199973       1.00000000      -0.00168662       0.00322796       0.00740667
O        2.94125335       5.50038785       5.73469329       1.00000000       0.00509858       0.00224367       0.00272304
