52
Lattice="12.336457 0.0 0.0 -6.168228499999997 10.683685154694365 0.0 0.0 0.0 15.0" Properties=species:S:1:pos:R:3:forces:R:3 energy=-449.42194901401126 free_energy=-449.42194901401126 stress="-0.00680069897491994 0.0019403249174422715 -3.552346044948695e-05 0.0019403249174422715 -0.00016207373515617012 -3.796806358794584e-05 -3.552346044948695e-05 -3.796806358794584e-05 8.51640694778255e-06" pbc="T T T"
C       -0.00786191      -0.00185105       3.74061853      -0.00577723       0.00027651       0.01122913
C       -1.24020164       2.12184352       3.79536265       0.00109376      -0.00345293       0.01818107
C       -2.46528126       4.26304796       3.79683883       0.00507069      -0.00020924       0.00199825
C       -3.70467847       6.40582216       3.74214742       0.00411177       0.00291049       0.00462735
C       -4.94606630       8.54881619       3.68217264       0.00394888       0.00366487      -0.00505954
C        2.45789715       0.02383256       3.81955432      -0.00017073      -0.00835590      -0.00128101
C        1.22919332       2.17492627       3.83970507      -0.00001503      -0.00253577       0.00384417
C       -0.00204104       4.26918614       3.82993620      -0.00262080       0.00134652      -0.00207374
C       -1.25837977       6.42151024       3.82842237       0.00592199       0.00821838       0.00364197
C       -2.48740511       8.55668332       3.82655299      -0.00219132       0.00186253       0.00065518
C        4.92991393      -0.00101258       3.88569331       0.00473709      -0.00243719       0.00179458
C        3.70798807       2.16215549       3.84904282      -0.00251456      -0.00247677       0.00066768
N        1.14677270       6.41954581       3.89717724      -0.00777953      -0.00405664       0.00190395
C       -0.02121783       8.53048675       3.87589751      -0.00723179      -0.00100398      -0.00082235
C        7.40418604      -0.03124848       3.88381705      -0.00198754       0.00311015       0.00226578
C        6.19097348       2.10445527       3.85546474      -0.00137227      -0.00545025      -0.00031162
C        4.99271481       4.21895523       3.63295678      -0.00277151      -0.00365951       0.00813171
P        3.52462711       6.23484492       2.73371951       0.00733994      -0.01218088      -0.00559913
C        2.45012287       8.51136421       3.71104024      -0.00690844      -0.00189178      -0.00486734
C        9.86437579      -0.02807146       3.78125775      -0.00194330       0.00408824      -0.00051757
C        8.64351123       2.11125123       3.83937131       0.00028429      -0.00630446      -0.00402538
C        7.42974048       4.25332437       3.74764457       0.00329477      -0.00149210       0.00037571
C        6.19215311       6.39684562       3.52560249      -0.00497180       0.00424578       0.00202040
C        4.92284943       8.52860302       3.55004632       0.00586137       0.00596135      -0.00174211
C       -0.01152898       1.42294679       3.79200029      -0.00112590      -0.00318997       0.00001731
C       -1.24444673       3.54681566       3.80171768       0.00188289      -0.00303166       0.00357789
C       -2.47475655       5.69303500       3.79358568       0.01000366       0.00430716       0.00531463
C       -3.71377088       7.83661679       3.74887308       0.00243845       0.00200204      -0.00298879
C       -4.94038214       9.97804946       3.74551816      -0.00363979      -0.00109688      -0.00412229
C        2.46472042       1.44699244       3.85188257       0.00039587      -0.00875374      -0.00243093
C        1.18355202       3.57168428       3.89070862      -0.00678111      -0.00170166       0.00877571
C       -0.01699235       5.73068786       3.83963759      -0.00189890      -0.00024114      -0.00838319
C       -1.25802101       7.84015485       3.85698410      -0.00457734       0.00694338       0.00040305
C       -2.48019278       9.98296207       3.84870508       0.00412149      -0.00266866      -0.00056411
C        4.94818099       1.41626698       3.87323207      -0.00107845      -0.00344621      -0.00259556
C        3.77008548       3.55785399       3.79331496      -0.00813909       0.00149373      -0.00469032
C        1.19843163       7.77907017       3.82385838      -0.01230901      -0.00629704      -0.00305063
C       -0.00666198       9.95293173       3.89200110       0.00161017      -0.00272473       0.00059043
C        7.41681288       1.39012888       3.87356540      -0.00092083      -0.00197246       0.00363233
C        6.21899547       3.51770196       3.75953076       0.00132618      -0.00431262      -0.00196550
C        5.01384743       5.63192052       3.40551277      -0.00172370      -0.00463429      -0.00257114
C        3.66834503       7.84555140       3.44377657       0.00126078       0.00361609      -0.00297432
C        2.46079340       9.93312872       3.81704771      -0.00314082       0.00387577       0.00583510
C        9.86598264       1.39729789       3.81418035       0.00050248       0.00128895      -0.00816529
C        8.64995560       3.54124034       3.80351883       0.00436460      -0.00571607      -0.00656347
C        7.42002251       5.68209202       3.67612269      -0.00370268       0.00377948       0.00152468
C        6.16686819       7.82825857       3.55331029       0.00537309       0.00467324       0.00025025
C        4.92837136       9.95378753       3.69513691      -0.00390362       0.00505708      -0.00115295
Cu       2.52526625       4.87301998       4.35673585       0.00040170       0.01161275      -0.00608380
O        2.27833451       5.61240006       6.12200413       0.00605664       0.00958402      -0.00320637
O        2.70605174       4.58027744       7.01926789       0.01626467       0.00656264       0.00107576
H        3.30395430       5.08515100       7.60525334       0.00352990       0.00481339      -0.00452560
