51
Lattice="12.336457 0.0 0.0 -6.168228499999997 10.683685154694365 0.0 0.0 0.0 15.0" Properties=species:S:1:pos:R:3:initial_magmoms:R:1:forces:R:3 energy=-436.1364100629641 free_energy=-436.1364100629641 stress="-0.005392478586519183 -0.00046824591412805754 -1.3491065465670025e-05 -0.00046824591412805754 -0.004840550637242089 4.1043742073169704e-05 -1.3491065465670025e-05 4.1043742073169704e-05 -2.0571026642523166e-05" pbc="T T T"
C        0.00673903      -0.00703973       3.95481685       0.00000000      -0.00101829      -0.00119278       0.00749995
C       -1.23649801       2.12597344       3.74412805       0.00000000      -0.01048272       0.00679639      -0.00999554
C       -2.47188321       4.27638250       3.89127951       0.00000000      -0.00727443      -0.00866312      -0.00058906
C       -3.68002947       6.41710589       4.07608181       0.00000000      -0.00111173       0.00718428      -0.01163984
C       -4.91193445       8.55762115       4.11656873       0.00000000       0.00579484      -0.00345149      -0.00487945
C        2.47730651      -0.00746345       3.89125883       0.00000000       0.00171305      -0.00391771      -0.00694764
C        1.21035974       2.00941700       3.32308665       0.00000000      -0.00107000      -0.00353691      -0.00631851
C       -0.18205036       4.28042559       3.12564855       0.00000000       0.00269964      -0.00123613      -0.01891441
C       -1.26335123       6.42408297       3.63439143       0.00000000      -0.01194290      -0.00756553       0.00739462
C       -2.44776016       8.54893500       3.97149104       0.00000000      -0.00613625       0.00429019       0.01020276
C        4.94356958       0.00323773       3.88257333       0.00000000       0.00728425      -0.00269619       0.00424088
C        3.71235120       2.06289818       3.39657352       0.00000000       0.00520950       0.00367788      -0.00202015
P        1.31339064       6.46420038       2.48913969       0.00000000       0.00584576       0.00178609      -0.00407234
C        0.00313722       8.56393981       3.71550836       0.00000000      -0.00110069       0.00796051       0.00446160
C        7.41026360       0.00482541       3.94489000       0.00000000       0.01109349       0.01392892       0.00656841
C        6.18150083       2.14041106       3.82643239       0.00000000      -0.00393025      -0.00271217       0.00163651
C        5.04997323       4.32796283       3.56609639       0.00000000       0.00817787      -0.00397462       0.00405414
C        3.77130978       6.42595735       3.67202617       0.00000000      -0.00055068      -0.00272351       0.00644415
C        2.47882023       8.56486744       3.76402085       0.00000000      -0.00202206      -0.00317566       0.00586766
C        9.87942220      -0.00100747       3.99501251       0.00000000      -0.00002220      -0.00463525       0.00127947
C        8.64417098       2.13956397       3.99706532       0.00000000      -0.00358508      -0.00967683      -0.00316544
C        7.42433584       4.28268308       4.03140034       0.00000000       0.00777898       0.00584291      -0.00242264
C        6.20831356       6.43481527       4.04568660       0.00000000       0.00092086       0.00294995       0.00775256
C        4.94988604       8.54382960       4.01161800       0.00000000       0.00701481       0.00040965       0.00910540
C       -0.00581024       1.40234787       3.69691550       0.00000000      -0.00423535       0.00099724       0.00345187
C       -1.27449265       3.54378484       3.61356070       0.00000000       0.00006538       0.00506717      -0.00252110
C       -2.46546807       5.70250599       3.90227715       0.00000000      -0.01185152      -0.00774533       0.00597079
C       -3.68080618       7.84237775       4.08190209       0.00000000       0.00131082      -0.00051580       0.00290770
C       -4.92132240       9.97591204       4.01628830       0.00000000       0.00297758      -0.00595186       0.00808061
C        2.47026695       1.38407862       3.54561664       0.00000000       0.00307582      -0.00311296      -0.01007504
S        1.10985214       3.43174690       2.33486592       0.00000000      -0.01074304       0.01369116      -0.00898651
C       -0.14525355       5.68782175       3.16172964       0.00000000      -0.00522478      -0.00277673       0.00108714
C       -1.22946172       7.84452626       3.77080827       0.00000000      -0.01079947       0.00624823      -0.00562171
C       -2.45361121       9.97342657       3.94491005       0.00000000       0.00217690       0.00181214      -0.00634150
C        4.94213836       1.42647599       3.72053956       0.00000000      -0.00049145      -0.00428167      -0.00714805
P        3.78800376       3.61961937       2.56267719       0.00000000      -0.00772994       0.01289999       0.01109745
C        1.24812927       7.92504342       3.47205909       0.00000000      -0.00318281      -0.00188127       0.00130288
C        0.00783014       9.98035908       3.88795241       0.00000000       0.01437876       0.01205036      -0.00183856
C        7.40745920       1.43028053       3.96135969       0.00000000      -0.00333327       0.00443181       0.00229032
C        6.20445419       3.56912745       3.83129123       0.00000000       0.01062119      -0.00341290      -0.00256905
C        4.98654577       5.74154526       3.78025892       0.00000000       0.00380188      -0.00154749      -0.00937086
C        3.71692756       7.81554904       3.81788465       0.00000000       0.00546806      -0.00213093       0.00093825
C        2.47719535       9.97491624       3.94865897       0.00000000       0.00241366       0.00135123      -0.00600621
C        9.88324455       1.42624976       3.95122652       0.00000000      -0.00423228      -0.00281135       0.00229070
C        8.64423594       3.56379358       4.02026949       0.00000000      -0.00244148      -0.01095281       0.00428584
C        7.42642763       5.70683858       4.09078808       0.00000000       0.00208240       0.01103547       0.00181690
C        6.18982037       7.84995483       4.09793421       0.00000000       0.00609323       0.00204383      -0.00320735
C        4.94250494       9.96443502       4.01634284       0.00000000      -0.00052500      -0.00002402       0.01410602
Cu       2.44364885       5.04950017       3.79886394       0.00000000      -0.00364158       0.00074666      -0.00991674
O        2.79547133       5.32555202       6.30274909       1.00000000      -0.00203786      -0.01757334      -0.00338129
O        1.97541438       4.64480216       5.59315083       1.00000000       0.00271839      -0.00332569       0.01181439
