51
Lattice="12.336457 0.0 0.0 -6.168228499999997 10.683685154694365 0.0 0.0 0.0 15.0" Properties=species:S:1:pos:R:3:initial_magmoms:R:1:forces:R:3 energy=-445.1691102064214 free_energy=-445.1691102064214 stress="-0.007461251323547973 -0.0015928604019216303 5.191851941452066e-06 -0.0015928604019216303 -0.0007322916525650635 8.647545737081004e-06 5.191851941452066e-06 8.647545737081004e-06 2.2326551415483962e-05" pbc="T T T"
C        0.00684819      -0.00318700       3.82250151       0.00000000      -0.00735369      -0.00187830      -0.00728301
C       -1.24808007       2.10642671       3.81150519       0.00000000       0.01000664       0.00434744      -0.00030381
C       -2.47520062       4.25009834       3.80429230       0.00000000      -0.00285888      -0.00298092      -0.01194370
C       -3.68659129       6.40442254       3.80755141       0.00000000      -0.00002132      -0.00328235      -0.00982512
C       -4.91254583       8.55492567       3.82598916       0.00000000       0.00470184       0.00182958       0.00258943
C        2.47642686       0.00056970       3.77090962       0.00000000      -0.00374333      -0.00350938       0.00202524
C        1.23394882       2.16017848       3.74132054       0.00000000       0.00141932      -0.00346055       0.00141140
C       -0.01219402       4.24054775       3.80752481       0.00000000       0.00787835       0.00566026      -0.00890235
C       -1.25926071       6.40921693       3.83894257       0.00000000       0.00299698      -0.00557789      -0.00979832
C       -2.46216838       8.54862355       3.81931459       0.00000000      -0.00637602      -0.00857652      -0.00490641
C        4.94275449      -0.01423144       3.65522958       0.00000000       0.00515842       0.00181914       0.00467864
C        3.68755348       2.07630396       3.35948666       0.00000000      -0.00431896      -0.00155074       0.00039348
C        1.15310305       6.38807438       3.83375394       0.00000000       0.01094007      -0.00191191      -0.00393291
C        0.00165529       8.52254962       3.78395778       0.00000000      -0.00792713       0.00484926       0.00122733
C        7.41063191      -0.03901390       3.68480368       0.00000000       0.00570257       0.00985920       0.00717738
C        6.17710018       2.11690355       3.48482596       0.00000000      -0.00340250       0.01042780       0.01637629
C        5.01352813       4.33277647       3.29833374       0.00000000      -0.00088162      -0.00646500      -0.01007474
N        3.82980006       6.41250190       3.65302788       0.00000000       0.01183664       0.00337668      -0.00528439
C        2.49156039       8.48311410       3.76792925       0.00000000      -0.00842351      -0.00073261       0.00252563
C        9.86898693      -0.03821523       3.76949659       0.00000000      -0.00040623      -0.00750911       0.00277563
C        8.63191241       2.10655436       3.70571855       0.00000000       0.00445692      -0.00567764      -0.00649360
C        7.41926176       4.26206671       3.64165660       0.00000000      -0.00307053       0.00956766      -0.00501195
C        6.22732734       6.43284600       3.66836448       0.00000000       0.00028279       0.00613807       0.00995972
C        4.96304758       8.53167946       3.77035400       0.00000000       0.00663315       0.00148824       0.00264293
C       -0.00516580       1.41780749       3.81278875       0.00000000       0.00417545      -0.00114401       0.01220388
C       -1.25508014       3.52681278       3.81534664       0.00000000       0.00637869       0.00663798      -0.00225274
C       -2.47276276       5.68233128       3.82749423       0.00000000      -0.00013508      -0.00437902      -0.00665542
C       -3.68561310       7.83359482       3.83058913       0.00000000      -0.00306842      -0.00732753       0.00356248
C       -4.92210555       9.97594859       3.83047935       0.00000000      -0.00733154       0.00068574      -0.00725975
C        2.47140561       1.41503918       3.64449813       0.00000000      -0.00267989      -0.00370695      -0.00099749
C        1.20005104       3.56324380       3.76282242       0.00000000       0.00375904      -0.00398524      -0.00983935
C       -0.02907892       5.69178756       3.82962911       0.00000000       0.00821685       0.00051595      -0.00602043
C       -1.23454587       7.82988757       3.82166770       0.00000000      -0.00617384      -0.00482512      -0.00536666
C       -2.45822038       9.96944662       3.75591297       0.00000000       0.00010000      -0.00503812       0.00144886
C        4.94115494       1.40636594       3.48056976       0.00000000      -0.00071431       0.00510757       0.00030393
P        3.50480040       3.68381363       2.65562491       0.00000000      -0.01246044       0.00196609       0.01154063
C        1.24486801       7.76585152       3.79630228       0.00000000      -0.00994325       0.00238915       0.00133448
C        0.00652488       9.94375399       3.70918103       0.00000000       0.00862433       0.00628713      -0.01389034
C        7.40129376       1.39359395       3.62115164       0.00000000      -0.00181991       0.00803296       0.00678508
C        6.18659321       3.55744026       3.45821618       0.00000000      -0.00112845       0.00575618       0.01368364
C        5.00604667       5.74970967       3.51341404       0.00000000       0.00769262      -0.00819516       0.00390716
C        3.74569145       7.77034583       3.73752660       0.00000000       0.00332616       0.00472470      -0.00137969
C        2.47617381       9.90929283       3.74229474       0.00000000      -0.00304586      -0.00035380       0.01165061
C        9.85727637       1.38760025       3.77069558       0.00000000       0.00963187      -0.00627289       0.00828059
C        8.63419844       3.53814098       3.72665820       0.00000000      -0.00591701      -0.00201705      -0.00965817
C        7.43214986       5.68931363       3.71189078       0.00000000      -0.00345814       0.00868082      -0.00065091
C        6.20108140       7.84335183       3.76843853       0.00000000       0.00812088       0.00555093       0.01540112
C        4.94324764       9.95084938       3.79832434       0.00000000      -0.00285244      -0.00495968       0.01633142
Cu       2.46098516       5.05650424       4.13383920       0.00000000      -0.01688693      -0.00651507      -0.00676357
O        1.74524750       5.28385285       6.78327724       1.00000000      -0.00777163       0.00400578      -0.01003330
O        2.78817669       5.16829431       6.10019449       1.00000000       0.00213129      -0.00787172       0.00431116
