52
Lattice="12.336457 0.0 0.0 -6.168228499999997 10.683685154694365 0.0 0.0 0.0 15.0" Properties=species:S:1:pos:R:3:forces:R:3 energy=-446.12528069793603 free_energy=-446.12528069793603 stress="-0.004664378816883562 0.00339653509796282 -2.5862400983563256e-05 0.00339653509796282 0.00016360875709085 -3.690517946226274e-05 -2.5862400983563256e-05 -3.690517946226274e-05 2.614072198836056e-06" pbc="T T T"
C       -0.01293069      -0.01995092       3.76580631       0.00440058      -0.00499520      -0.00348229
C       -1.23502176       2.11509437       3.82676912       0.00127050       0.00853974       0.00828436
C       -2.45415775       4.24915800       3.78311942       0.00122916      -0.00127463      -0.00022864
C       -3.70498057       6.38386114       3.69975074       0.00368385      -0.00555093      -0.00543477
C       -4.96271156       8.52150802       3.65454702       0.00348762      -0.00627328       0.00351213
C        2.44983038      -0.00301396       3.80715234       0.00164836       0.00877022       0.00048710
C        1.22907185       2.16134926       3.90655149       0.00732833      -0.00454930      -0.00265680
C        0.02264751       4.28019532       3.89119529       0.00269662       0.00037767       0.00325711
C       -1.25092979       6.40260856       3.80269851      -0.01112212      -0.00669345       0.00232716
C       -2.48966736       8.53125590       3.77069431      -0.00263437      -0.00026003       0.00458009
C        4.92501731      -0.02150994       3.83048578      -0.00659779       0.00085825      -0.00279320
C        3.70779485       2.13336891       3.85480925       0.00119317      -0.00382483      -0.00642024
O        1.10831678       6.45794420       4.00254191       0.00263037      -0.00151178      -0.01351209
C       -0.02811133       8.51937072       3.80886822       0.00490539       0.00546489       0.00484595
C        7.39919557      -0.04639298       3.84356094       0.00008360       0.00079092      -0.00091274
C        6.19080227       2.08445347       3.80566963      -0.00411602      -0.00675761       0.00008025
C        4.98190749       4.19638684       3.60750117      -0.00910878      -0.00509362       0.00684066
S        3.56382225       6.25680833       2.73788932      -0.00644442       0.01372257      -0.00705760
C        2.42379966       8.48439066       3.69861435       0.00153371       0.00598407       0.00166322
C        9.85913303      -0.04364035       3.79050796      -0.00371301      -0.00410744      -0.00073179
C        8.64645785       2.09739769       3.81603431      -0.00073724      -0.00335998      -0.00775416
C        7.43082001       4.23305840       3.69867114       0.00769152      -0.00174733      -0.00323849
C        6.17852038       6.37097711       3.48486069       0.00541177       0.00334079       0.00380874
C        4.90567245       8.50391861       3.55143810      -0.00605515       0.00149250      -0.00566159
C       -0.01156914       1.40748645       3.83668236       0.00406755       0.00094456      -0.00141590
C       -1.22633911       3.54409602       3.82627255       0.00319378       0.00904357       0.00929615
C       -2.47274578       5.67209890       3.76348422      -0.00748752      -0.00775211       0.00039383
C       -3.72356626       7.81252780       3.70344606       0.00253169      -0.00869606       0.00076660
C       -4.95152293       9.95374635       3.74057802       0.00637127      -0.00367112       0.00241788
C        2.45943772       1.42424342       3.87756481       0.00920249       0.00405160       0.00169682
C        1.20274618       3.55494432       4.01257046      -0.00610791      -0.01298493      -0.00138636
C       -0.04268814       5.71515051       3.86529872      -0.00537921      -0.00103826      -0.00322450
C       -1.26718689       7.82210515       3.80129179      -0.00016881      -0.00225322      -0.01345507
C       -2.48710989       9.96043614       3.80171001      -0.00611147       0.00471395       0.00420313
C        4.94870927       1.39443927       3.83110629      -0.00480413      -0.00277154       0.00100189
C        3.77918058       3.52441069       3.84698595      -0.01802978      -0.00426939       0.00181257
C        1.16619461       7.81822120       3.77631352       0.00693950       0.00606955       0.00421686
C       -0.00990714       9.94526071       3.82856966      -0.00098679       0.00799794       0.00370727
C        7.41816279       1.37714992       3.83097969      -0.00206922      -0.00350130       0.00776313
C        6.21646105       3.49878954       3.70855965       0.00026140      -0.00583241       0.00240163
C        5.01430816       5.59949690       3.35055241       0.00129757       0.00054114       0.00027808
C        3.66010730       7.83827287       3.42419623      -0.00371101       0.00179015       0.01052749
C        2.45275767       9.91421372       3.80326358      -0.00219507       0.00037515      -0.00281135
C        9.86859860       1.38651907       3.82054990      -0.00048555      -0.00174450      -0.00471095
C        8.65511943       3.52461705       3.77211750       0.00645532      -0.00278828      -0.00596717
C        7.41600753       5.65848485       3.63184786       0.00820993       0.00039564       0.00171633
C        6.14758548       7.79984997       3.52750337      -0.00323071       0.00457077       0.00722886
C        4.92048142       9.93725675       3.71535543      -0.00236848      -0.00350021      -0.00237049
Cu       2.60031298       4.66299368       4.64048338      -0.00038626      -0.00147826      -0.00348820
O        2.25786190       5.70242668       6.18513745       0.01457316       0.00795565       0.00016472
O        2.83124621       4.82417250       7.16758307      -0.00728723       0.01450396      -0.00450404
H        3.34529619       5.46138008       7.70295517       0.00903982       0.00598572       0.00393840
