51
Lattice="12.336457 0.0 0.0 -6.168228499999997 10.683685154694365 0.0 0.0 0.0 15.0" Properties=species:S:1:pos:R:3:initial_magmoms:R:1:forces:R:3 energy=-449.6245058658266 free_energy=-449.6245058658266 stress="-0.008981146821847275 0.0005528802465633703 8.71358614259527e-07 0.0005528802465633703 0.0026633810162386344 2.9694981012913365e-06 8.71358614259527e-07 2.9694981012913365e-06 2.69582490853174e-06" pbc="T T T"
C       -0.09938937       0.08831021       3.71529250       0.00000000       0.00054038       0.00896204       0.00137154
C       -1.35207192       2.19231388       3.74094881       0.00000000       0.00502983      -0.00235088      -0.00219212
C       -2.59019249       4.34283511       3.73587059       0.00000000      -0.00439864      -0.00201585      -0.00829628
C       -3.80564243       6.49805925       3.70277951       0.00000000      -0.00253536      -0.00350567      -0.00147439
C       -5.02504476       8.65231103       3.69654467       0.00000000       0.00133398       0.00390478       0.00178891
C        2.37264514       0.13361912       3.69321935       0.00000000      -0.00026335       0.00698764      -0.00144931
C        1.13372954       2.27930976       3.71220170       0.00000000       0.00000703       0.00015591       0.00577961
C       -0.15600280       4.33866218       3.75325950       0.00000000      -0.00244926      -0.00210901       0.00549023
C       -1.37618788       6.50800029       3.74358285       0.00000000      -0.00579457      -0.00202713       0.00318472
C       -2.58153260       8.65460303       3.71228494       0.00000000       0.00280564      -0.00438748       0.00619472
C        4.83657504       0.08964767       3.68839526       0.00000000      -0.00405696       0.00579632      -0.00261280
C        3.63505734       2.26838752       3.63672764       0.00000000      -0.00213365       0.00101148      -0.00131920
C        1.05936476       6.45607811       3.73694990       0.00000000       0.00278763      -0.00046752       0.00168327
C       -0.11593692       8.61164225       3.73230353       0.00000000       0.00416947       0.00100177      -0.00559169
C        7.30808826       0.04076580       3.71345777       0.00000000      -0.00003134      -0.00361659      -0.00370199
C        6.08674297       2.19309101       3.65331870       0.00000000      -0.00072838       0.00041734       0.00215963
C        4.88855792       4.31253640       3.60970454       0.00000000       0.00474401      -0.00236533       0.00209016
C        3.66848791       6.44268685       3.68481342       0.00000000      -0.00085936      -0.00169870      -0.00041350
C        2.36780454       8.56591359       3.72709250       0.00000000       0.00033953      -0.00337504      -0.00253809
C        9.76465013       0.04080399       3.72439834       0.00000000      -0.00438304       0.00101476       0.01019583
C        8.53586645       2.18755745       3.71156629       0.00000000       0.00129883       0.00224370      -0.00129525
C        7.31665908       4.34154956       3.66327473       0.00000000      -0.00270281      -0.00238071       0.00335799
C        6.09936251       6.49640111       3.66285029       0.00000000       0.00410545      -0.00780253       0.00431084
C        4.84824006       8.60689382       3.70457032       0.00000000       0.00031591       0.00197067       0.00317878
C       -0.10864970       1.51057793       3.72696978       0.00000000       0.00585094       0.00468339       0.00115710
C       -1.37908536       3.61317506       3.75239095       0.00000000      -0.00443690      -0.00364168      -0.00227163
C       -2.58967948       5.77904533       3.72997162       0.00000000      -0.00587229      -0.00317407       0.00032591
C       -3.80373581       7.93287674       3.70203794       0.00000000      -0.00010853      -0.00173331       0.00979221
C       -5.02639395      10.08015968       3.70356674       0.00000000      -0.00044276       0.00914363      -0.00024772
C        2.38543082       1.56431470       3.67840726       0.00000000      -0.00247302       0.00619515      -0.00088079
C        1.04530495       3.66244689       3.73290631       0.00000000      -0.00276770       0.00106790       0.00020577
C       -0.14897344       5.78554669       3.75085120       0.00000000      -0.00110282       0.00196321       0.00854964
C       -1.35607374       7.92913910       3.73077715       0.00000000       0.00445458      -0.00263685       0.00306607
C       -2.57210688      10.08077338       3.69836737       0.00000000      -0.00180854      -0.00099967      -0.00612596
C        4.85020075       1.51150176       3.65647457       0.00000000      -0.00401063       0.00482010      -0.00432064
N        3.72242090       3.63300747       3.58931994       0.00000000       0.01239358      -0.00016764      -0.00389451
C        1.12603751       7.84955452       3.73619093       0.00000000       0.00213603       0.00115752      -0.00745781
C       -0.10153476      10.03059002       3.71299750       0.00000000      -0.00224989       0.00170919      -0.00055328
C        7.30960049       1.46925982       3.69006696       0.00000000       0.00200174      -0.00119598      -0.00964058
C        6.10474918       3.61167111       3.62907063       0.00000000       0.00171604       0.00036357       0.00295032
C        4.86784903       5.76430081       3.64354895       0.00000000       0.00123989      -0.00250476      -0.00510851
C        3.60739181       7.84063590       3.70950131       0.00000000      -0.00079872      -0.00227306      -0.01079939
C        2.36771184       9.99332534       3.72520604       0.00000000      -0.00257103      -0.00572489      -0.00204175
C        9.75779111       1.46667340       3.73036128       0.00000000       0.00184245       0.00095737      -0.00062727
C        8.53352155       3.62108287       3.70509314       0.00000000      -0.00467429       0.00153067      -0.00035305
C        7.31441922       5.77484546       3.67156197       0.00000000       0.00246836      -0.00777215       0.00546249
C        6.08407788       7.92146869       3.68828282       0.00000000       0.00234746      -0.00428177      -0.00167314
C        4.83782166      10.02914150       3.71719683       0.00000000      -0.00064660       0.00582251       0.00284179
Cu       2.36487091       5.03412531       3.69039119       0.00000000       0.00023168       0.00349398       0.00388323
O        4.44159828       2.64209960       6.42876641       1.00000000       0.00571576      -0.00468904       0.00598761
O        5.30036096       3.52449824       6.42665746       1.00000000      -0.00557574       0.00252273      -0.00812770
