52
Lattice="12.336457 0.0 0.0 -6.168228499999997 10.683685154694365 0.0 0.0 0.0 15.0" Properties=species:S:1:pos:R:3:forces:R:3 energy=-448.7263021273486 free_energy=-448.7263021273486 stress="-0.004065827267679486 6.642446427225851e-05 -1.2801998434983031e-06 6.642446427225851e-05 0.007694749023697352 7.411497054215408e-06 -1.2801998434983031e-06 7.411497054215408e-06 -2.1198074034976425e-05" pbc="T T T"
C       -0.05314563       0.05417040       3.78271530       0.01278172      -0.00222981      -0.00188943
C       -1.30816330       2.15704177       3.83294943      -0.00485263      -0.00320493      -0.00631711
C       -2.55427862       4.30642006       3.78900612      -0.01058297      -0.00714004      -0.00151909
C       -3.76834218       6.45834365       3.71081284      -0.00320377       0.00922211      -0.00517928
C       -4.99071974       8.60776052       3.70521580       0.00113917       0.00128303       0.00275212
C        2.42195665       0.10622331       3.78125785      -0.00160472      -0.00945892      -0.01173926
C        1.18034426       2.24698931       3.91333540      -0.00087149       0.00348432      -0.01077163
C       -0.11569996       4.30110127       4.00079604       0.01215961       0.00295675       0.00100608
C       -1.33855028       6.46410307       3.88056552      -0.00069896       0.00238105      -0.00655996
C       -2.53481797       8.61330703       3.78440337      -0.00420717       0.00047898      -0.00295014
C        4.88315224       0.04941618       3.76312507      -0.00735850      -0.00162190      -0.00897724
C        3.68844326       2.21370751       3.70524065      -0.00269657      -0.00379769       0.00455590
C        1.08415047       6.42169385       4.10551867       0.00654984       0.00148392       0.00607458
C       -0.05665064       8.56221960       3.86391706       0.00137058       0.00850423      -0.00683708
C        7.35736907      -0.00331883       3.76225085      -0.00143306       0.00404102       0.00628946
C        6.12738422       2.16638474       3.65089447       0.00708450      -0.00524754      -0.00601148
C        4.92867967       4.31598652       3.49214423      -0.00097472       0.00512699       0.00436796
O        3.74394728       6.44968248       3.61209339      -0.00206816       0.00327629      -0.00602369
C        2.44140246       8.49902856       3.82061847      -0.00055749      -0.00010674      -0.01306167
C        9.81014351      -0.00240636       3.76942182       0.00317911       0.00220994      -0.01225629
C        8.57827579       2.15146166       3.72575591      -0.00785372      -0.00459448      -0.00735630
C        7.34747256       4.31119527       3.62302123      -0.00229338      -0.00285556      -0.00835755
C        6.12039281       6.44561864       3.56558103       0.00745042      -0.00035901      -0.01268249
C        4.88757405       8.56251798       3.69758445       0.01210970      -0.00084939      -0.00159855
C       -0.05536727       1.48115391       3.84793531      -0.00046432      -0.00154951       0.00728047
C       -1.33800456       3.58015180       3.87031829       0.00294781       0.00071735       0.00116132
C       -2.55467473       5.73865742       3.79263662      -0.00777769      -0.00088512      -0.00221412
C       -3.75919453       7.89294287       3.72936442      -0.00476122       0.00769957       0.00398030
C       -4.97961338      10.04730755       3.76029863       0.00747155      -0.00680544       0.00318941
C        2.44242595       1.54460605       3.81141119      -0.00596014      -0.00816052       0.00285709
C        1.08376020       3.62073761       4.08613023       0.01663265       0.00336492       0.00088458
C       -0.11605917       5.74198625       4.00759630       0.00384521       0.00278112       0.01171598
C       -1.30926112       7.88699864       3.84702629       0.00103662       0.00756394      -0.00537945
C       -2.52560653      10.04666595       3.77614135      -0.00560698      -0.00631110      -0.00265581
C        4.89001596       1.48085190       3.70238194       0.00428367      -0.00268378      -0.00035061
O        3.74713468       3.59284814       3.62529361      -0.01134997       0.00345654       0.00379248
C        1.17967364       7.79586195       3.92881206      -0.00078353       0.00067378       0.00013053
C       -0.05220586       9.98890291       3.79124319      -0.00384721       0.00945410       0.01035019
C        7.34668762       1.43615048       3.70517300       0.00147463      -0.00318865       0.01021646
C        6.12285871       3.59731308       3.56407972      -0.00129125      -0.00235334       0.00391945
C        4.92802630       5.72624402       3.49544980       0.00017258       0.00646891       0.00307757
C        3.68647731       7.82884839       3.70989390       0.00608824       0.00332908       0.00760076
C        2.42213246       9.93816998       3.78085002      -0.00063389       0.00276386       0.00320400
C        9.80254351       1.43121135       3.77442891      -0.00951290       0.00132619       0.00693631
C        8.56948482       3.58599432       3.70765013      -0.01135054      -0.00987563       0.00266815
C        7.34662783       5.73253929       3.62246511       0.00336316      -0.00120425       0.00915951
C        6.12558878       7.87740002       3.64748203       0.01046770      -0.00366244       0.00546292
C        4.88106137       9.99455742       3.75442033       0.01141897       0.00177986       0.00130400
Cu       2.22632610       5.01834154       4.50436793      -0.01965986      -0.00318456      -0.00061257
O        3.63050755       5.13362247       5.82914499      -0.00446475      -0.00070859       0.01442230
O        3.61734477       3.82490943       6.37157242       0.00278948       0.00037933      -0.00176435
H        3.36021630       4.00608823       7.30104788       0.00290467      -0.00416824       0.00470525
