52
Lattice="12.336457 0.0 0.0 -6.168228499999997 10.683685154694365 0.0 0.0 0.0 15.0" Properties=species:S:1:pos:R:3:forces:R:3 energy=-444.20221821431716 free_energy=-444.20221821431716 stress="-0.004366321765670395 -0.0024913779076151175 2.8474074204919518e-05 -0.0024913779076151175 0.00369136264714627 -1.5659364063540213e-05 2.8474074204919518e-05 -1.5659364063540213e-05 3.448514034757338e-06" pbc="T T T"
C        0.03741174       0.06587188       3.84427229      -0.00251109      -0.00216470       0.00354914
C       -1.21477187       2.18694344       3.83595310      -0.00555068      -0.00178853       0.00096304
C       -2.42715990       4.32848752       3.88530944      -0.00180231       0.00014967      -0.01751288
C       -3.63087854       6.47749183       3.91130175       0.00633669      -0.00012526      -0.01022232
C       -4.87099061       8.63247008       3.89827420       0.00535907       0.00235557       0.00330819
C        2.50164854       0.09465267       3.78227215       0.00828153      -0.00787803       0.00256429
C        1.21992744       2.20312434       3.66077403       0.00532140       0.00005832       0.00681028
C       -0.00837402       4.33287216       3.76082809      -0.00623137       0.00342055       0.00024130
C       -1.17835106       6.45307062       3.87062937       0.00058315       0.00615083      -0.00663080
C       -2.40823949       8.61210596       3.87017394      -0.00207344       0.00530317      -0.00083949
C        4.97612381       0.06019105       3.73688295       0.00446401      -0.00291902       0.01451096
C        3.72532320       2.17151856       3.42817410       0.00008746      -0.00235829       0.00097475
O        1.19353914       6.46686780       3.85242385       0.01404047      -0.00806940      -0.00844773
C        0.04896398       8.57906204       3.84828726      -0.00546335      -0.00470751       0.00745154
C        7.44356744       0.02643393       3.80787592       0.00446471       0.01179688      -0.00553645
C        6.21164434       2.19319750       3.65233349      -0.00957153       0.00420801       0.01350272
C        5.04980460       4.40630676       3.53134259       0.00037959      -0.00718534       0.00128015
N        3.87268160       6.47973544       3.83105240      -0.00817189      -0.00541369      -0.00319292
C        2.49325040       8.52310408       3.88064984       0.00063124      -0.00232985      -0.00058278
C        9.89451405       0.02559200       3.86642519      -0.00151486       0.00082502      -0.00408194
C        8.66575561       2.18028352       3.83210733       0.00268477       0.00297857       0.00346918
C        7.46131654       4.33666351       3.81716690       0.00377129      -0.00537035      -0.00225708
C        6.28030043       6.51266418       3.84172072      -0.00651694      -0.00011026      -0.00837036
C        4.98686499       8.59835005       3.88771976      -0.00163730       0.00096213      -0.00429053
C        0.02394001       1.49398537       3.78741510      -0.00017785       0.00160891       0.00623648
C       -1.20544567       3.61546517       3.83611457      -0.00543939      -0.00163558       0.00379727
C       -2.41041687       5.74686709       3.90152668       0.00600194      -0.00008606      -0.00668122
C       -3.64099211       7.90705653       3.90392637       0.00494486       0.00266987       0.00126884
C       -4.88829598      10.05903192       3.85576397       0.00282382       0.00034679       0.00509607
C        2.47592699       1.52073172       3.63085254       0.00548191      -0.00924978       0.00006250
O        1.16172370       3.58772846       3.70935906       0.00530934       0.00857932      -0.00535996
C        0.01090950       5.73533892       3.80393575       0.00086734       0.00406999      -0.01430010
C       -1.18562199       7.88399761       3.86853420      -0.01058418       0.00417992       0.00874815
C       -2.42732666      10.04795222       3.80188649       0.00653816      -0.00317864      -0.00297956
C        4.96693471       1.48966981       3.59497998      -0.00403621      -0.00442605       0.00164550
P        3.65583664       3.77336509       2.68788661       0.00343268       0.00089768       0.00454229
C        1.24725372       7.85346394       3.86560713       0.00031373      -0.00395635      -0.00636151
C        0.04379221      10.01513991       3.80073102       0.00727998      -0.00004889      -0.00446103
C        7.43512636       1.46719944       3.76912722      -0.00238344       0.01593191      -0.00053785
C        6.23268014       3.62847766       3.66763825      -0.00040006      -0.00156696       0.00381296
C        5.06301082       5.83422655       3.71499318      -0.00797114      -0.00731964       0.00290349
C        3.77229689       7.83861566       3.88166141       0.00101671      -0.00417972      -0.00276022
C        2.49789429       9.96656793       3.85880926       0.00155094       0.00233986       0.00173256
C        9.90029484       1.46474398       3.85585683      -0.00227659      -0.00305804      -0.00210473
C        8.67493705       3.61060757       3.85587117       0.00307996      -0.00279374       0.00748001
C        7.48404496       5.76484553       3.86819506       0.00165029      -0.00238844      -0.00221653
C        6.24185717       7.92315422       3.89126282       0.00033631       0.00391020       0.00975904
C        4.97132076      10.02045669       3.87690029      -0.00402059       0.00083953       0.00125439
Cu       2.86432262       4.99988830       4.36213275      -0.00160952      -0.00023117      -0.00278260
O        1.84687644       4.79382152       5.95486252       0.00046342       0.00606561      -0.00117736
O        1.99706234       3.42708266       6.31143306      -0.00527778       0.00215243       0.01450917
H        2.52074391       3.51529289       7.13592717      -0.01227528       0.00273855      -0.00778632
