51
Lattice="12.336457 0.0 0.0 -6.168228499999997 10.683685154694365 0.0 0.0 0.0 15.0" Properties=species:S:1:pos:R:3:initial_magmoms:R:1:forces:R:3 energy=-439.80221548039793 free_energy=-439.80221548039793 stress="-0.005315112107975976 0.0026836168510968165 -4.561097273966797e-06 0.0026836168510968165 -0.0005393910932156932 1.402457592876241e-05 -4.561097273966797e-06 1.402457592876241e-05 1.5602882655775407e-06" pbc="T T T"
C       -0.02278743       0.00711889       3.71083186       0.00000000      -0.00160595      -0.00112565      -0.00859176
C       -1.24728343       2.14972744       3.63694784       0.00000000       0.00262547       0.00024713       0.00113185
C       -2.49661241       4.28856428       3.85380908       0.00000000      -0.00288971      -0.00146242       0.00106449
C       -3.74521818       6.42282612       3.92871752       0.00000000       0.00129075      -0.00280437       0.00721028
C       -4.97574515       8.55543317       3.81571627       0.00000000       0.00477410      -0.00005079      -0.00628848
C        2.44062496       0.03355981       3.82249717       0.00000000      -0.00096567      -0.00016330      -0.01000539
C        1.22660816       2.09010448       3.35822345       0.00000000      -0.00101579       0.00368688       0.00661365
C       -0.13484967       4.36046611       3.36588079       0.00000000       0.00311207      -0.00290104      -0.00554602
C       -1.30410390       6.45108074       3.85591661       0.00000000       0.00064432      -0.00343510      -0.00563418
C       -2.51566003       8.57418300       3.96000880       0.00000000      -0.00198859       0.00114031      -0.01985299
C        4.90932253       0.01279206       3.93218274       0.00000000       0.00417518       0.00462546       0.00027376
C        3.71321433       2.18610509       3.73216630       0.00000000      -0.00412100      -0.00026880      -0.00103724
N        1.10978924       6.43029333       3.68986134       0.00000000      -0.00662833       0.00408701      -0.00097353
C       -0.04310579       8.54752608       3.89039711       0.00000000       0.00063005      -0.00684252      -0.00374383
C        7.38854686      -0.01623900       3.92023304       0.00000000      -0.00417609       0.00106823      -0.00677026
C        6.17346049       2.11697921       3.92117177       0.00000000      -0.00063040       0.00403856       0.00326023
C        4.97432506       4.20836318       3.64228397       0.00000000       0.00101341      -0.00225774      -0.00675615
P        3.60779245       6.31409954       2.58930997       0.00000000      -0.00474006      -0.00456854      -0.00889462
C        2.42967518       8.52906627       3.67744984       0.00000000       0.00342252       0.00395399      -0.00405468
C        9.85038388      -0.00672830       3.77795507       0.00000000      -0.00462221       0.00675148       0.00148974
C        8.63259079       2.13141534       3.89951976       0.00000000      -0.00366661       0.00080777      -0.00241865
C        7.39972534       4.26743622       3.90818335       0.00000000      -0.00191616       0.00066565      -0.00397658
C        6.15266391       6.39795012       3.67172753       0.00000000       0.00227798       0.00075256       0.00031874
C        4.90412432       8.54423590       3.59880611       0.00000000       0.00216726       0.00360760       0.00086377
C       -0.01698913       1.43731375       3.57359108       0.00000000       0.00260475      -0.00056214       0.00187852
C       -1.26973516       3.58320036       3.63657439       0.00000000       0.00222983      -0.00096044       0.00795724
C       -2.51337248       5.71315643       3.90569631       0.00000000       0.00047990      -0.00217553       0.00488559
C       -3.74592415       7.85114176       3.91878237       0.00000000       0.00123898      -0.00337974      -0.00143297
C       -4.96117117       9.98893931       3.78819269       0.00000000      -0.00114705      -0.00063087       0.00606455
C        2.45430764       1.45708999       3.65117261       0.00000000      -0.00411855       0.00146536       0.00099080
S        1.20059838       3.62627764       2.55037660       0.00000000      -0.00252523       0.00077918       0.00148663
C       -0.08726244       5.76300456       3.62745865       0.00000000       0.00185622      -0.00400773       0.00455230
C       -1.28535798       7.86504967       3.93376805       0.00000000      -0.00247286      -0.00357040       0.00439368
C       -2.50180140       9.99870706       3.92793342       0.00000000       0.00184328       0.00483290       0.00158185
C        4.92668395       1.43398999       3.87872499       0.00000000      -0.00146515       0.00560505      -0.00134496
N        3.78982267       3.54420774       3.67914556       0.00000000       0.00647350      -0.00371908      -0.00042036
C        1.17228229       7.79418287       3.75298019       0.00000000       0.00484581      -0.00066527       0.00554855
C       -0.02343554       9.96901556       3.93296588       0.00000000       0.00109455      -0.00569714       0.00434907
C        7.40245727       1.40753214       3.94391445       0.00000000      -0.00364112       0.00101405      -0.00052562
C        6.19357110       3.52603641       3.85326483       0.00000000       0.00018307       0.00147930       0.00329227
C        4.98960955       5.62578834       3.43742032       0.00000000      -0.00172773      -0.00027159      -0.00501201
C        3.65542112       7.87525638       3.41738096       0.00000000       0.00278790      -0.00302755       0.00703869
C        2.44474382       9.95166472       3.82245373       0.00000000      -0.00278946       0.00591908       0.00017494
C        9.86744293       1.42763709       3.79107878       0.00000000       0.00003833       0.00451325       0.01066778
C        8.62811452       3.55777268       3.91999352       0.00000000      -0.00439601       0.00006372       0.00818231
C        7.37988353       5.69413657       3.86552670       0.00000000       0.00129651      -0.00039486       0.00294795
C        6.13803928       7.83319195       3.67371404       0.00000000       0.00486014       0.00268519       0.00194991
C        4.91000929       9.97152533       3.71190607       0.00000000      -0.00484786       0.00436564       0.00431091
Cu       2.48715913       5.00794853       3.98425644       0.00000000       0.00912452       0.00255239       0.00292621
O        3.65048292       4.61890361       6.35295684       1.00000000       0.00365923       0.00158515       0.00104532
O        2.48438593       4.91370414       5.90604379       1.00000000      -0.00265201      -0.01735029      -0.00517126
