52
Lattice="12.336457 0.0 0.0 -6.168228499999997 10.683685154694365 0.0 0.0 0.0 15.0" Properties=species:S:1:pos:R:3:forces:R:3 energy=-444.15274931836905 free_energy=-444.15274931836905 stress="-0.005020012906666808 0.0028559173292135895 1.1115070762728957e-05 0.0028559173292135895 -0.0005898606692953268 -4.583678312124996e-06 1.1115070762728957e-05 -4.583678312124996e-06 -1.2945690513058955e-05" pbc="T T T"
C        0.04165696      -0.04161911       3.77611133      -0.00058047       0.00293990       0.00141344
C       -1.18168703       2.10111068       3.69258082       0.00889788       0.00939304       0.00114075
C       -2.42844114       4.23940618       3.90481393      -0.00006720       0.00363134      -0.00125837
C       -3.67792759       6.37367269       3.99192011      -0.00035073      -0.00228324       0.00416430
C       -4.91107412       8.50637565       3.88661423      -0.00264660      -0.00563835      -0.00561143
C        2.50459939      -0.01657438       3.89281914       0.00174482       0.00453528       0.01130637
C        1.29430740       2.04174019       3.43019097      -0.00043905       0.00388357      -0.00327291
C       -0.06810876       4.30938433       3.39358819       0.00578713      -0.00739250      -0.01066381
C       -1.23969515       6.40324280       3.87624745       0.00201448       0.00226490       0.00253604
C       -2.45000505       8.52446740       4.00325876      -0.00363558       0.00590657       0.00338263
C        4.97296130      -0.03545292       3.98980764       0.00461053       0.00151703       0.00904288
C        3.77431110       2.13927101       3.85116843      -0.00803880      -0.00418834       0.00437203
N        1.16871247       6.38868027       3.67982396      -0.00234370       0.00032455       0.00548154
C        0.01888117       8.50122861       3.90856688       0.00317223       0.00303615       0.00841642
C        7.45228989      -0.06348531       3.95844626      -0.00566619      -0.00734031       0.01546683
C        6.23812645       2.06988399       4.01245428      -0.00516563      -0.00770748      -0.00004919
C        5.03160501       4.16016329       3.79460283       0.00196657      -0.00052434       0.00593642
P        3.66992872       6.23969346       2.70030727      -0.00045794       0.00144873      -0.00374197
C        2.49278175       8.48346494       3.70931025       0.00472792       0.00954270       0.00043364
C        9.91443823      -0.05369601       3.82881145      -0.00353347      -0.00789815      -0.00084244
C        8.69811850       2.08372440       3.95749483       0.00387754      -0.00394644       0.00662678
C        7.46594151       4.21935725       3.99538756      -0.01089585       0.00500154       0.00514266
C        6.21590330       6.34851400       3.77239915      -0.00254363       0.00355544       0.00467755
C        4.96808172       8.49501899       3.66872587       0.00071842      -0.00469015       0.00217416
C        0.04891355       1.38838752       3.63734478       0.00177165       0.00848553      -0.00707199
C       -1.20218415       3.53437033       3.68172635       0.00358583       0.00526101      -0.00855812
C       -2.44612399       5.66460751       3.95263254       0.00105119       0.00345624      -0.01320025
C       -3.67987193       7.80167251       3.97909090      -0.00339844      -0.00331411      -0.00999234
C       -4.89710236       9.93961166       3.85814425      -0.00123474      -0.00078802      -0.01144651
C        2.51841306       1.40916480       3.74279067      -0.00335426       0.00080471      -0.00975933
S        1.28210494       3.56950300       2.60268409       0.01326284      -0.00759280       0.00741592
C       -0.02480839       5.71713254       3.62988081      -0.00261395      -0.00657665      -0.00012907
C       -1.22114922       7.81662988       3.95943984      -0.00195488       0.00467760      -0.00554440
C       -2.43700081       9.94899109       3.98418191       0.00517725       0.00761826       0.00392844
C        4.98972091       1.38755781       3.97042492      -0.00577640      -0.00138335      -0.01064018
N        3.84257656       3.49983118       3.84962035       0.00608094      -0.00705486      -0.00332622
C        1.23391163       7.74944112       3.75929389       0.00649963       0.00537568       0.00241793
C        0.03966778       9.92105957       3.97037931      -0.00022535       0.00131092      -0.00563615
C        7.46735623       1.35968183       4.00320139      -0.00300467      -0.00762896       0.00135786
C        6.25761562       3.47921408       3.97190739      -0.00432144      -0.00791174      -0.00257465
C        5.04834210       5.57473685       3.56973205       0.00263430       0.00091857       0.00103598
C        3.72144662       7.82386047       3.48346278       0.00399458       0.00251159       0.00306389
C        2.50823550       9.90465931       3.85882122      -0.00596816       0.00230653      -0.00153515
C        9.93229049       1.38043123       3.84594132       0.01003278      -0.00647591      -0.00551778
C        8.69570904       3.50966047       3.98530277      -0.00701500       0.00524009      -0.00170399
C        7.44573427       5.64508779       3.94966353      -0.00279577       0.00659157       0.00728498
C        6.20177383       7.78426082       3.75511714      -0.00090528      -0.00297722      -0.00418627
C        4.97386438       9.92344149       3.77290252      -0.00072938      -0.00662748      -0.00292906
Cu       2.51059858       4.96614627       4.08128571      -0.00348066      -0.00624201      -0.00020452
O        2.32517376       4.78249455       5.96014739       0.00200765       0.00660650       0.01632890
O        1.74185721       6.01680031       6.44835540      -0.00507952       0.00228309      -0.00600719
H        2.24006624       6.10181152       7.28543677       0.00460660      -0.00424623       0.00085496
