52
Lattice="12.336457 0.0 0.0 -6.168228499999997 10.683685154694365 0.0 0.0 0.0 15.0" Properties=species:S:1:pos:R:3:initial_magmoms:R:1:forces:R:3 energy=-452.28177151942475 free_energy=-452.28177151942475 stress="-0.0015591425008081106 0.003915366688107927 5.023509320681692e-06 0.003915366688107927 -0.0029197976857332194 -1.3613291985482379e-05 5.023509320681692e-06 -1.3613291985482379e-05 -8.699922721364762e-06" pbc="T T T"
C       -0.01286763      -0.00689229       3.76394473       0.00000000       0.00043886      -0.00377051       0.00165190
C       -1.21820174       2.14936953       3.82485636       0.00000000       0.00045285       0.00101943      -0.00047159
C       -2.44489641       4.26939826       3.81908157       0.00000000       0.00223497      -0.00389492      -0.00533411
C       -3.71466162       6.39536602       3.74858558       0.00000000       0.00013067       0.00132451       0.00330187
C       -4.96226629       8.52829398       3.70678384       0.00000000      -0.00109071      -0.00068863      -0.00007530
C        2.44593983      -0.02030191       3.78211015       0.00000000       0.00037594       0.00634070      -0.00192356
C        1.24348231       2.14364525       3.79931412       0.00000000      -0.00643030       0.00312759      -0.00040233
C        0.05331349       4.32293481       3.85367029       0.00000000       0.00207294      -0.00084611      -0.00430611
C       -1.25067460       6.41091331       3.81546797       0.00000000      -0.00019665      -0.00427020       0.00401823
C       -2.49112690       8.53142438       3.78434293       0.00000000       0.00022096       0.00036823      -0.00035647
C        4.91891946      -0.01789432       3.78780778       0.00000000       0.00278794       0.00289347       0.00238836
C        3.69435468       2.08748151       3.71560607       0.00000000       0.00199494      -0.00144464      -0.00273034
N        2.52797950       4.17663037       3.77792443       0.00000000       0.00104545       0.00073870       0.00351066
O        1.10232410       6.49837099       3.90052961       0.00000000       0.00021616      -0.00330803      -0.00018641
C       -0.03935454       8.54599074       3.75084227       0.00000000       0.00311308       0.00262104       0.00155962
C        7.39047616      -0.01267129       3.78653509       0.00000000      -0.00303580       0.00165407      -0.00166269
C        6.17227851       2.10576431       3.75419890       0.00000000       0.00231609      -0.00456809       0.00035009
C        4.94508694       4.19605351       3.51427375       0.00000000      -0.00080794       0.00056898      -0.00000575
P        3.62379976       6.37423837       2.43944826       0.00000000      -0.00054063      -0.00544665       0.00232370
C        2.40345990       8.53502068       3.62538601       0.00000000       0.00092042       0.00194598       0.00088999
C        9.85946417      -0.00327676       3.76335140       0.00000000      -0.00269986      -0.00053448      -0.00371592
C        8.64377939       2.12679605       3.80848310       0.00000000      -0.00381363      -0.00333565       0.00005008
C        7.41490305       4.24925724       3.71744305       0.00000000       0.00095356      -0.00025742      -0.00194332
C        6.17297539       6.38946217       3.53536219       0.00000000       0.00159002       0.00229188      -0.00766864
C        4.90842975       8.53420675       3.58558760       0.00000000       0.00378036      -0.00181409       0.00501456
C        0.00507115       1.42898130       3.80483615       0.00000000      -0.00324562      -0.00260665       0.00495082
C       -1.18695287       3.58654895       3.84088398       0.00000000       0.00280038      -0.00097942       0.00362046
C       -2.47610234       5.68620469       3.80183090       0.00000000      -0.00090066      -0.00258993      -0.00164908
C       -3.72805270       7.81837454       3.74952869       0.00000000      -0.00303529       0.00160228       0.00309995
C       -4.95810092       9.95392218       3.75605061       0.00000000       0.00201461       0.00048453      -0.00132513
C        2.45656524       1.40221498       3.77384961       0.00000000      -0.00264100       0.00829369      -0.00124043
C        1.30153186       3.57946381       3.81588955       0.00000000       0.00029563       0.00146608       0.00020236
C       -0.04122315       5.72781194       3.84988445       0.00000000       0.00005489      -0.00369570       0.00292780
C       -1.26610506       7.83083532       3.78984316       0.00000000       0.00231316      -0.00182124      -0.00033292
C       -2.48863552       9.95653225       3.78756087       0.00000000       0.00136457       0.00333262      -0.00651671
C        4.93246154       1.39789194       3.75619721       0.00000000       0.00430752      -0.00118215      -0.00701004
C        3.69027225       3.50057292       3.62686018       0.00000000      -0.00042467      -0.00215192      -0.00117921
C        1.15951658       7.86790545       3.68607444       0.00000000       0.00135552      -0.00081371       0.00011864
C       -0.01680824       9.96925400       3.77913458       0.00000000       0.00116684       0.00389045      -0.00230220
C        7.40554490       1.41009438       3.79696588       0.00000000      -0.00188547      -0.00258580      -0.00392951
C        6.17673261       3.52308723       3.67156909       0.00000000       0.00028136      -0.00299728      -0.00104288
C        4.95388068       5.62613958       3.37437879       0.00000000      -0.00648807       0.00657672       0.00230195
C        3.65065048       7.83805656       3.46416282       0.00000000       0.00311919       0.00130787      -0.00057268
C        2.44600126       9.95713103       3.73759958       0.00000000      -0.00416777       0.00032011       0.01142549
C        9.87811123       1.42341723       3.81084076       0.00000000      -0.00212440       0.00027063       0.00167874
C        8.64951243       3.54958127       3.79206624       0.00000000       0.00074040      -0.00424915       0.00092223
C        7.39574552       5.67782090       3.67730864       0.00000000       0.00166891       0.00154379      -0.00221745
C        6.14263626       7.81209290       3.59338914       0.00000000       0.00375029      -0.00294231       0.00317165
C        4.92041940       9.96047598       3.71712280       0.00000000      -0.00006694      -0.00348694       0.00533651
Cu       3.17859771       5.90293572       4.36376029       0.00000000      -0.00264732       0.00359085      -0.01771012
O        2.71746430       5.41876034       6.18635403       1.00000000       0.00075390       0.01040368       0.00085291
O        3.13948774       6.65260057       6.18247208       1.00000000      -0.00438967      -0.00169622       0.01214235
