52
Lattice="12.336457 0.0 0.0 -6.168228499999997 10.683685154694365 0.0 0.0 0.0 15.0" Properties=species:S:1:pos:R:3:forces:R:3 energy=-443.5513767796501 free_energy=-443.5513767796501 stress="-0.0002819527912290305 0.0028492355284331816 -1.732637076100617e-05 0.0028492355284331816 0.004204785500149279 2.4676913205382352e-05 -1.732637076100617e-05 2.4676913205382352e-05 8.217145067387233e-07" pbc="T T T"
C       -0.03379909       0.04405369       3.78269483      -0.00012025      -0.00103113       0.00419840
C       -1.25829177       2.17682580       3.92121285       0.00022485       0.00913679      -0.00534404
C       -2.48725614       4.31480635       3.92395558      -0.00435807      -0.00356121      -0.00742641
C       -3.74115994       6.44624944       3.79492260       0.00544931       0.00096597       0.00034466
C       -4.99304245       8.58109657       3.69728522      -0.00613166      -0.00529818       0.00332487
C        2.41924667       0.09542428       3.77356769       0.00403950       0.00539119       0.00261329
C        1.17294922       2.20527337       3.85734428       0.00269023       0.00191994       0.00110116
C       -0.04807795       4.30615638       4.02326097       0.00328416      -0.00556338      -0.00134087
C       -1.27966828       6.44830781       3.95751580      -0.00604726      -0.01554797      -0.00811672
C       -2.52878841       8.59494554       3.84189097       0.00831909      -0.00008128      -0.00683985
C        4.88251265       0.04169126       3.84300738       0.00246302       0.00931807       0.00289338
C        3.70578938       2.19024112       3.68280019      -0.00120584       0.00109861      -0.00420046
N        1.11537594       6.48282509       4.18565033      -0.01218651      -0.00266012      -0.00424252
C       -0.06451108       8.57617896       3.94468446       0.00030313       0.00542735      -0.00401411
C        7.36131449       0.02001227       3.92092335       0.00475508       0.00033975      -0.00467790
C        6.15411330       2.14520601       3.79290098      -0.00685562      -0.00435356       0.00387142
C        4.98300958       4.22021272       3.46799435       0.00158284       0.00410948       0.00776200
S        3.48395730       6.31198529       2.84441768       0.00246405       0.00683036      -0.01349744
C        2.40563967       8.56281961       3.83992227       0.00322119      -0.00882347      -0.00193272
C        9.83492865       0.02257468       3.86573558       0.00090822       0.00017061       0.00462498
C        8.61452115       2.16240059       3.90272809      -0.00568998       0.00626207      -0.00030008
C        7.39429362       4.29639491       3.76076473      -0.00584967       0.00838411      -0.00251227
C        6.13612304       6.41501390       3.53851491       0.00074812       0.00385146       0.00632051
C        4.87963080       8.56628240       3.61688939      -0.00393740      -0.00540179       0.00628003
C       -0.02060279       1.48372103       3.85935641       0.00297948       0.00481811      -0.00001816
C       -1.24884808       3.60291795       3.96863380       0.00007877       0.00582927       0.00533895
C       -2.50174041       5.73377318       3.89643579      -0.00415177      -0.01080780      -0.00101253
C       -3.75636415       7.87342224       3.77252625       0.00277115      -0.00055321       0.00588385
C       -4.97422233      10.02871571       3.74395881       0.00210864      -0.00352842       0.00687442
C        2.42956666       1.54884193       3.77056837       0.00150786       0.00439019       0.00699983
O        1.13388881       3.58711515       3.98873486       0.00213089      -0.00065907      -0.00502412
C       -0.03745237       5.74014621       4.06658958      -0.00682340      -0.01010519      -0.00442789
C       -1.29827825       7.87467571       3.92305995       0.00593168      -0.00909062      -0.00333264
C       -2.52754945      10.03457276       3.81416614       0.00646418       0.00725302       0.00711905
C        4.89695336       1.46815735       3.77608610      -0.00587217       0.00203590       0.00024144
O        3.77190531       3.55224254       3.52539993       0.00430810      -0.00413316       0.01085471
C        1.15335093       7.83410006       3.98307089      -0.00199403      -0.00077643       0.00177320
C       -0.04953055      10.00314473       3.90474273       0.00121346       0.00907736       0.00327068
C        7.37427164       1.44434946       3.88418255      -0.00349364      -0.00095292       0.00930671
C        6.17735859       3.55394157       3.68343905      -0.00262452      -0.00237105      -0.00781226
C        4.97651397       5.62075703       3.35059359       0.00156875       0.00771435      -0.00344544
C        3.61798908       7.90224843       3.54040090       0.00408994      -0.00985445       0.00224580
C        2.42444675       9.99050896       3.90142989       0.00423156      -0.00875393       0.00331727
C        9.85159509       1.45676051       3.91137159      -0.00252324       0.00915029      -0.00642104
C        8.62330920       3.58982526       3.87455272      -0.00683652       0.00699460      -0.00374297
C        7.37539486       5.71739367       3.70442291       0.00277821       0.00799139      -0.01250900
C        6.11472780       7.85223098       3.59007672      -0.00843626      -0.00142546      -0.00268051
C        4.89516351      10.00017085       3.76680327      -0.00329420      -0.00136522      -0.00195150
Cu       2.58908334       5.51902244       4.78850807       0.00256761      -0.00963819       0.01323022
O        3.50248706       4.38808791       5.94186510       0.00226190       0.01146762       0.00504362
O        3.14324246       4.99059221       7.21156325       0.01566489      -0.00017397      -0.01053699
H        4.03119699       5.16471372       7.58502357      -0.00467783      -0.01341671       0.00252598
