52
Lattice="12.336457 0.0 0.0 -6.168228499999997 10.683685154694365 0.0 0.0 0.0 15.0" Properties=species:S:1:pos:R:3:forces:R:3 energy=-449.6565006307499 free_energy=-449.6565006307499 stress="-0.0007520375079763985 0.0013264621943974032 9.102859091201906e-06 0.0013264621943974032 -0.005106947223057359 -1.0759898877069116e-05 9.102859091201906e-06 -1.0759898877069116e-05 1.2688521483354348e-05" pbc="T T T"
C        0.04443552      -0.05453668       3.78167027       0.00489776      -0.00198138      -0.00316276
C       -1.18059941       2.09559551       3.77050326       0.00326711      -0.00286128      -0.00766126
C       -2.43263994       4.23570450       3.66375116       0.00220360       0.00166681      -0.00325967
C       -3.66600783       6.36073827       3.65453493      -0.00390972      -0.00218146       0.00384127
C       -4.89897681       8.48890705       3.71827366      -0.00147047      -0.00635879       0.00238041
C        2.52302810      -0.05838608       3.79951732      -0.00053016       0.01599324      -0.00937678
C        1.29914401       2.04717664       3.97497971      -0.00313095       0.00135025      -0.00492664
C       -0.00004117       4.25099936       3.87443727      -0.00211493      -0.00274269       0.00230778
C       -1.17338376       6.37211656       3.71930527      -0.00982694      -0.00548407      -0.00927253
C       -2.42142026       8.49457426       3.70879987       0.00512650      -0.00294300      -0.00617425
C        4.98375096      -0.04558255       3.72733639      -0.00015931      -0.00240721       0.00251433
C        3.77390964       2.10851721       3.87989096       0.00380568       0.00224392       0.00178247
B        1.47374019       6.31097193       3.93183257       0.00243540       0.00285656      -0.00924382
C        0.05351960       8.50192128       3.75011067       0.00488745       0.00096667      -0.00372039
C        7.44692035      -0.02893680       3.68871452       0.00583989      -0.00151514      -0.00256986
C        6.21831521       2.08576770       3.66821272      -0.00412633       0.00433875      -0.00976240
C        4.98259574       4.17494986       3.75896752      -0.00643055       0.00191054       0.00347413
B        3.55282911       6.30858003       3.87726400      -0.00378989      -0.00008073      -0.00376669
C        2.51291633       8.55342511       3.77785624      -0.00008635       0.00074718       0.00382152
C        9.92294375      -0.02598803       3.71559781       0.00419514      -0.00271424      -0.00307328
C        8.68699890       2.10103899       3.64321595       0.00200577      -0.00086270       0.00576268
C        7.44020931       4.22822640       3.62295649       0.00184131      -0.00114756      -0.00345394
C        6.17137509       6.34603435       3.69881300       0.00702652      -0.00347155       0.00246868
C        4.96947720       8.49610743       3.75343559      -0.00733467       0.00291836       0.00050701
C        0.04864042       1.37275708       3.84407752       0.00032544      -0.00456227       0.01642155
C       -1.20011496       3.51792006       3.75474088       0.00065744      -0.00244164      -0.00324697
C       -2.42400123       5.65818611       3.66516740      -0.00964050      -0.00039123       0.00899151
C       -3.66052927       7.78315127       3.68867524       0.00208245      -0.00538451       0.00318160
C       -4.88897951       9.91441823       3.77000891       0.00422063      -0.00054467      -0.00097297
C        2.53723088       1.36628303       3.90239523       0.00274534       0.01511553       0.00156491
B        1.26224561       3.50852581       4.17501714      -0.00858456      -0.00700588      -0.00515683
C        0.06305658       5.65535180       3.82142739      -0.00748921      -0.00302157      -0.00814520
C       -1.18563776       7.79106412       3.72233002       0.00521031      -0.00487891       0.00394480
C       -2.41656263       9.91708584       3.74283847      -0.00360842       0.00289267       0.00706625
C        4.98934212       1.38182121       3.74193830       0.00114475      -0.00159328       0.00755039
N        3.81682049       3.47419123       3.96780854      -0.00639898      -0.00036388      -0.00254766
C        1.30098633       7.82523841       3.81099601       0.00112104       0.00460776       0.00764374
C        0.04905174       9.93194762       3.71307235       0.00391516       0.00104872      -0.00096259
C        7.45340027       1.38815129       3.64947164      -0.00147084       0.00098729       0.00211975
C        6.21572807       3.49691727       3.64981765      -0.00464440       0.00510016      -0.00248282
C        4.93232496       5.60868984       3.76191151       0.00545275       0.00026508       0.00261669
C        3.72147539       7.82366529       3.79780855      -0.00386043       0.00011842      -0.00010892
C        2.51625432       9.96683427       3.71535645       0.00557798      -0.00338925       0.00390830
C        9.92371650       1.39352957       3.69608174       0.00275679      -0.00353093       0.00511362
C        8.67830832       3.52238214       3.62543448       0.00422797       0.00102126       0.00764427
C        7.42805833       5.64862484       3.64762826       0.00424005      -0.00383090       0.00446001
C        6.19834010       7.77563509       3.72269215      -0.00679361      -0.00159267       0.00505251
C        4.97961396       9.92934891       3.74572165       0.00240007       0.00227282      -0.00513970
Fe       2.58900827       4.76961839       4.83036817       0.00961707       0.00711592      -0.00180445
O        2.90437936       5.14313375       6.64803459      -0.00327092       0.00324082      -0.00040159
O        1.97123485       6.09575569       7.23124439      -0.01093192      -0.00105338      -0.01457574
H        1.40665901       5.47858127       7.73138664       0.00637672       0.00155804       0.00882953
