51
Lattice="12.336457 0.0 0.0 -6.168228499999997 10.683685154694365 0.0 0.0 0.0 15.0" Properties=species:S:1:pos:R:3:initial_magmoms:R:1:forces:R:3 energy=-445.9512551704962 free_energy=-445.9512551704962 stress="-0.0028363144718074732 0.001166688522061121 -2.9585234190597333e-06 0.001166688522061121 -0.007003805055613947 -5.466523315183262e-06 -2.9585234190597333e-06 -5.466523315183262e-06 -9.521963684584349e-06" pbc="T T T"
C       -0.07605285       0.02560440       3.58378852       0.00000000       0.00469089      -0.00057689       0.00541269
C       -1.30277147       2.17490556       3.59866951       0.00000000       0.00678587       0.00069578       0.00217046
C       -2.55519229       4.31572070       3.52275284       0.00000000      -0.00141267       0.00052212       0.00036768
C       -3.78590811       6.44120148       3.50841635       0.00000000      -0.00505010      -0.00262095      -0.00093926
C       -5.01793279       8.56940215       3.53906381       0.00000000      -0.00749980       0.00447712       0.00170570
C        2.40252579       0.01911079       3.59204606       0.00000000       0.00522932       0.00513092       0.00198887
C        1.17832999       2.12208476       3.76002230       0.00000000      -0.00442978       0.00796113      -0.00363464
C       -0.12415346       4.32994436       3.69658989       0.00000000       0.00055976       0.00462869      -0.00217318
C       -1.29810797       6.45334381       3.55486617       0.00000000      -0.00377041      -0.00431940       0.00303200
C       -2.54196971       8.57504608       3.53090129       0.00000000       0.00061811      -0.00339797      -0.00402737
C        4.86310066       0.03426452       3.53225305       0.00000000       0.00097998       0.00912290       0.00432311
C        3.65061963       2.18027130       3.65077566       0.00000000      -0.00730091      -0.00087253       0.00758075
B        1.33753370       6.39702267       3.71095666       0.00000000      -0.00342060       0.00616768       0.00453216
C       -0.06849495       8.58454991       3.55370832       0.00000000       0.00505694      -0.00223181       0.01033505
C        7.32529399       0.05397908       3.50707785       0.00000000      -0.00007844      -0.01084408      -0.00789260
C        6.09621828       2.16646326       3.49394825       0.00000000      -0.00024516       0.00049156      -0.00115658
C        4.87275616       4.25782027       3.56593378       0.00000000       0.00465495       0.00431862       0.00447519
B        3.45680239       6.40644225       3.62862987       0.00000000      -0.00887550      -0.00105903       0.01004828
C        2.39139370       8.63727378       3.56384656       0.00000000       0.00113866      -0.00992839      -0.00446811
C        9.80151771       0.05630387       3.52793446       0.00000000      -0.00047025      -0.00559457       0.00123814
C        8.56468967       2.18173190       3.49147770       0.00000000      -0.00138634       0.00591592      -0.00283428
C        7.32252410       4.30918412       3.47965268       0.00000000      -0.00497872       0.00056913      -0.00444621
C        6.05681031       6.42843898       3.53395800       0.00000000       0.00856683      -0.00091496      -0.00661077
C        4.85251923       8.58234065       3.54704359       0.00000000      -0.00377354      -0.00750100      -0.00207383
C       -0.07434050       1.45072106       3.65027037       0.00000000       0.00414342       0.00044055       0.00423119
C       -1.32336304       3.59694839       3.59850438       0.00000000       0.00318079       0.00139017      -0.00289830
C       -2.54694734       5.73803963       3.52063083       0.00000000      -0.00540529      -0.00278167      -0.00316004
C       -3.77998256       7.86346055       3.52345233       0.00000000      -0.00863911      -0.00025482      -0.00034019
C       -5.00919771       9.99413486       3.57342414       0.00000000       0.00525676       0.00603160      -0.00553379
C        2.41691750       1.44324013       3.67842828       0.00000000      -0.00888182       0.00401201       0.00210099
B        1.14344245       3.58081654       3.93452576       0.00000000      -0.00116031       0.00649313       0.00141849
C       -0.06564509       5.73622769       3.63907333       0.00000000      -0.00056245       0.00309433      -0.00607874
C       -1.30710211       7.87248343       3.54354537       0.00000000       0.00453709      -0.00451516      -0.00152042
C       -2.53687725       9.99695776       3.54829247       0.00000000       0.00563553       0.00248264      -0.00402634
C        4.86860056       1.46138000       3.54314641       0.00000000      -0.00404996       0.00683756       0.00573111
N        3.69525697       3.55124379       3.71949253       0.00000000       0.01528276      -0.00510351      -0.00150144
C        1.17897491       7.90873501       3.60007814       0.00000000       0.00183689      -0.00284912       0.00564038
C       -0.07194821      10.01399139       3.52228824       0.00000000      -0.00240159      -0.00090575      -0.00290188
C        7.33098795       1.47046468       3.48455077       0.00000000       0.00027542      -0.00561564      -0.00055097
C        6.09559381       3.57817090       3.48591841       0.00000000       0.00225451      -0.00011348       0.00098638
C        4.82350285       5.68970371       3.57335864       0.00000000       0.00406534       0.00728203       0.00359251
C        3.60371433       7.91271382       3.56782370       0.00000000      -0.00203784      -0.00552028      -0.00841306
C        2.39459430      10.05017690       3.52313721       0.00000000       0.00000204      -0.01440724      -0.00633125
C        9.80082538       1.47423226       3.53001988       0.00000000       0.00235709       0.00153232      -0.00464763
C        8.55724016       3.60238928       3.48591866       0.00000000      -0.00507033       0.00759129       0.00408440
C        7.31138095       5.72866556       3.50388240       0.00000000       0.00161019      -0.00400247      -0.01102788
C        6.08005346       7.85905782       3.54065168       0.00000000      -0.00232301      -0.00297686       0.00209014
C        4.85962626      10.01279225       3.54618342       0.00000000       0.00235221      -0.00526175       0.00390437
Fe       2.55832366       4.83725626       4.38030403       0.00000000       0.00180947       0.00711403       0.00666933
O        3.83119557       4.32996240       9.99862276       1.00000000       0.00849552      -0.00588639       0.00030041
O        4.83407035       3.62225815       9.84660977       1.00000000      -0.00815238       0.00575248       0.00122896
