52
Lattice="12.336457 0.0 0.0 -6.168228499999997 10.683685154694365 0.0 0.0 0.0 15.0" Properties=species:S:1:pos:R:3:forces:R:3 energy=-448.91410803430637 free_energy=-448.91410803430637 stress="-0.005148400415740067 0.0010113839795022543 1.8367364316377764e-05 0.0010113839795022543 0.004403450544653531 4.783490684977195e-06 1.8367364316377764e-05 4.783490684977195e-06 -5.797637805397582e-06" pbc="T T T"
C        0.04907535      -0.02812757       3.78204387       0.00233122      -0.00912799      -0.00296109
C       -1.18945585       2.09511905       3.68457215      -0.00249384      -0.00138244      -0.01206484
C       -2.41203065       4.23992073       3.66241066       0.00205753       0.00341773      -0.00783539
C       -3.64079951       6.38244398       3.73239416      -0.00101534      -0.00024280       0.00183767
C       -4.88235344       8.52854601       3.80151123      -0.00473457       0.00352615      -0.00249299
C        2.50747378       0.01729429       3.79758249       0.00842775       0.00171098       0.00330834
C        1.25686570       2.11952707       3.73602653      -0.00442927       0.00033148      -0.01287164
C        0.00059412       4.25131064       3.57646311       0.00826831      -0.00191205       0.00624188
C       -1.19196867       6.38125790       3.63310539       0.00402810       0.00576242      -0.00641188
C       -2.42108180       8.53093973       3.73419877      -0.00553063       0.00024632      -0.01116968
C        4.98051854      -0.01959792       3.78767118       0.00184939      -0.00309468       0.00791902
C        3.75830966       2.16442226       3.93414515       0.00542056      -0.00987013       0.00373056
O        1.20919369       6.38706452       3.61656587       0.00563303      -0.00008322      -0.00238303
C        0.04056598       8.49336758       3.71965321      -0.00087649       0.00409002      -0.00131465
C        7.45343288      -0.06568574       3.76205828       0.00018415      -0.00338606      -0.00940759
C        6.24359019       2.07890407       3.82766318       0.00524726      -0.00573103      -0.00976410
C        5.07195200       4.20817830       4.00339739      -0.00418073       0.00526388       0.00713796
B        3.78694139       6.30414641       4.16685258       0.00224689      -0.00354824      -0.00013814
C        2.48601568       8.45253483       3.82479859      -0.00158189      -0.00117767      -0.00008887
C        9.91244198      -0.06556211       3.76795031       0.00085897       0.00412087      -0.00100775
C        8.69400137       2.08055011       3.72714731       0.00169927       0.00254075       0.00458670
C        7.49261105       4.22844441       3.79099735      -0.00702921      -0.00219688      -0.00882093
C        6.26129951       6.37643835       3.89659613       0.00245984       0.00708728       0.00197645
C        4.97803685       8.48984717       3.88154545      -0.01066624      -0.00248077      -0.00348796
C        0.05008410       1.40668969       3.72959930      -0.00376830      -0.00779022      -0.00501962
C       -1.18606782       3.52391383       3.62504613       0.00475528      -0.00059270      -0.00507714
C       -2.41480299       5.66163853       3.66573134       0.00409733       0.00489569       0.00773361
C       -3.65232322       7.81460882       3.75086781      -0.00554617      -0.00227481       0.01383036
C       -4.88312528       9.96375351       3.79339069       0.01020609      -0.00070389      -0.00155467
C        2.49691093       1.46039318       3.83195374      -0.00484560       0.00057538       0.00236413
O        1.20493971       3.51070101       3.56460866       0.01588439       0.00717828      -0.00062111
C        0.00066237       5.65582787       3.58470699       0.00241372      -0.00350737      -0.01270278
C       -1.19988192       7.80632934       3.69067073      -0.00096296       0.00768549      -0.01406468
C       -2.42848204       9.96773506       3.77636279       0.00375463      -0.00088692       0.00280846
C        4.98290192       1.40928364       3.85234934       0.00729422      -0.00702654       0.00964497
C        3.83072300       3.56453194       4.10582285      -0.00381855      -0.00322770       0.00441028
C        1.24593005       7.78234363       3.73988765      -0.00051144       0.00082759       0.01003167
C        0.04451437       9.92737260       3.75636295      -0.00269099       0.00021670       0.01719030
C        7.46650181       1.36216611       3.76734698       0.00581896      -0.00619104      -0.00003210
C        6.28100412       3.49365176       3.86623022      -0.00639861      -0.00329812      -0.00417053
C        5.08097138       5.62219278       4.02470679       0.00338190       0.00722277       0.00129685
C        3.73643968       7.77408692       3.94992918      -0.00548364      -0.00606609       0.01325091
C        2.50601471       9.89318532       3.77598117       0.00254125       0.00053696      -0.00108028
C        9.92534839       1.36992809       3.71857737      -0.00070722       0.00710577       0.00238140
C        8.70532289       3.51203016       3.71848781      -0.00083478       0.00357604       0.00312600
C        7.48819099       5.65899215       3.80123028      -0.00360100      -0.00017258       0.00257665
C        6.22848833       7.80262175       3.86504892      -0.00800941       0.00732178       0.01483395
C        4.98491260       9.92387968       3.80514146      -0.00555032      -0.00089071       0.00437693
Fe       2.55078802       4.85909224       4.51265741      -0.00630317       0.00440060      -0.01785605
O        1.44665544       4.60649110       6.05981175      -0.01366672      -0.00023232       0.01165804
O        1.88275046       5.99182077       6.34932226       0.00683820      -0.00207839       0.00183734
H        2.23227559       5.84196684       7.24609755      -0.00246117      -0.00046759      -0.00569095
