52
Lattice="12.336457 0.0 0.0 -6.168228499999997 10.683685154694365 0.0 0.0 0.0 15.0" Properties=species:S:1:pos:R:3:forces:R:3 energy=-444.5450954261082 free_energy=-444.5450954261082 stress="-0.004526953492782892 -0.0011246445897209981 4.414265554170846e-06 -0.0011246445897209981 -0.004131826830779784 8.505593560730391e-06 4.414265554170846e-06 8.505593560730391e-06 3.343198999915402e-06" pbc="T T T"
C        0.00589190      -0.01472008       3.83446575      -0.00835760       0.00318581      -0.00011046
C       -1.24216945       2.10943131       4.05195468      -0.00465999      -0.00178494       0.00299148
C       -2.49828925       4.25268707       4.02232553       0.00637208      -0.00224771      -0.00464969
C       -3.70343673       6.39689146       3.84505497      -0.00600260       0.00485756      -0.00859480
C       -4.92294793       8.53599631       3.76560379      -0.00060845       0.00460084      -0.00476413
C        2.47667868      -0.03312089       3.69345750      -0.00627993      -0.00316745       0.00536070
C        1.26827088       2.08357574       4.00032402       0.00459150      -0.00892909       0.00792017
C       -0.10389664       4.26476407       4.45383128      -0.00145645       0.00217000       0.00806871
C       -1.27135735       6.40693714       4.08109770       0.00192632      -0.00193753      -0.00102165
C       -2.45866720       8.52770255       3.80352448       0.01011675       0.00580055       0.00444367
C        4.94091299      -0.02132075       3.61080230       0.00382577       0.00159328       0.00374745
C        3.68330145       2.04724818       3.27416941       0.01525029      -0.00481301      -0.00247224
B        1.19560469       6.41148660       4.15316719      -0.00959647      -0.00430844      -0.00541765
C        0.00272471       8.53959419       3.85466657      -0.01084433      -0.00409019      -0.00276712
C        7.40810924      -0.01532331       3.68172827       0.00096615       0.00025293      -0.00219415
C        6.16902713       2.12442107       3.44603769      -0.00282352       0.01040589       0.00465432
C        5.02273774       4.32970277       3.16861654      -0.00635390       0.00094878       0.00300384
N        3.78252348       6.41846558       3.52879234       0.01756671      -0.00279002       0.00599825
C        2.49861819       8.52879889       3.77044548      -0.01065415      -0.00264244       0.00070344
C        9.87637098      -0.01435666       3.78560687       0.01756812       0.00065995      -0.00145817
C        8.63244546       2.12089355       3.77280186      -0.00350955      -0.00935577      -0.00354331
C        7.40522451       4.26397111       3.65752359      -0.00191831       0.00096343      -0.00647456
C        6.19676725       6.42299524       3.61558394      -0.00801947       0.00633497      -0.00367881
C        4.95001520       8.52789216       3.71672977       0.00253960      -0.00008538      -0.00162838
C        0.01067804       1.41184177       3.98381255      -0.00511533      -0.00296461       0.00438408
C       -1.27832183       3.52369282       4.20799621       0.00465189      -0.00225596       0.00145180
C       -2.49431365       5.68085864       3.99553279      -0.00016068       0.00132507      -0.01048423
C       -3.69333556       7.81989032       3.80769377       0.00728835       0.00861149       0.00544960
C       -4.92877890       9.95530255       3.77367293      -0.01092225       0.00265133       0.00010122
C        2.47262878       1.39128525       3.64719519       0.00850883      -0.00572737       0.00253220
P        1.46930121       3.59446293       4.91674366      -0.00389083       0.01396149      -0.00196124
C       -0.08823672       5.67162209       4.29215508       0.00037841      -0.00147109      -0.00291544
C       -1.23075145       7.82186574       3.91297165       0.00140376      -0.00330255      -0.00052494
C       -2.45735167       9.94653463       3.68511791       0.00135544       0.00494914       0.00470619
C        4.93616059       1.40394918       3.42005073       0.00889477       0.00156606       0.00213648
S        3.62312677       3.57002691       2.41052455       0.00313504       0.00505109       0.00427194
C        1.25821804       7.85990811       3.91322831      -0.01647358      -0.00630634      -0.00694597
C        0.00471258       9.95911874       3.70638666      -0.00181207      -0.00682515      -0.01368063
C        7.39633337       1.41527128       3.62383269      -0.00819635       0.00055437      -0.00119617
C        6.17789341       3.55780320       3.41571907      -0.00651589       0.00727885       0.00255090
C        4.98914141       5.73846658       3.40476275       0.00447420      -0.00459323       0.00510192
C        3.73225252       7.79191348       3.68746439       0.00100874      -0.00172575      -0.00170407
C        2.48296973       9.95697005       3.73291688       0.01003484       0.00405772       0.01428653
C        9.86870458       1.40848353       3.87149931       0.00049843      -0.00183328       0.00283392
C        8.62447314       3.54465102       3.82070784       0.00310897      -0.00689540      -0.00001310
C        7.41064088       5.68611451       3.70913054      -0.01507377       0.00321093       0.00037067
C        6.18340967       7.83396638       3.71095051      -0.00098480       0.00276601      -0.00334706
C        4.94152512       9.95529057       3.78630239       0.00625444      -0.00446406      -0.00017632
Fe       2.53453536       5.09751415       3.59007201       0.00285956      -0.00178470      -0.00698949
O        2.38064469       5.63961102       6.94218664       0.00688077       0.00445867       0.00149792
O        2.37708098       4.99055405       8.14322785       0.01187915       0.00877398      -0.00050021
H        3.31924686       4.95134752       8.42390754      -0.01310860      -0.01468875       0.00064662
