52
Lattice="12.336457 0.0 0.0 -6.168228499999997 10.683685154694365 0.0 0.0 0.0 15.0" Properties=species:S:1:pos:R:3:initial_magmoms:R:1:forces:R:3 energy=-457.91184043306913 free_energy=-457.91184043306913 stress="-0.007099414792299749 -0.002426418065808448 -5.112477699355729e-06 -0.002426418065808448 -0.004274943217898785 -4.394695543243751e-06 -5.112477699355729e-06 -4.394695543243751e-06 -1.3942772622696796e-05" pbc="T T T"
C       -0.07423488      -0.15485476       3.46811064       0.00000000      -0.00238884       0.00359394      -0.00351935
C       -1.33319714       1.96210870       3.43386497       0.00000000      -0.00066584       0.00220308      -0.00241577
C       -2.57346293       4.11103507       3.43379437       0.00000000      -0.00234336      -0.00364442      -0.00352730
C       -3.77727313       6.25965152       3.46555426       0.00000000       0.00179820      -0.00188752      -0.00330122
C       -4.99459538       8.40315186       3.48638390       0.00000000       0.00019324      -0.00045332       0.00193449
C        2.39917171      -0.14368242       3.55142905       0.00000000       0.00330721       0.00299337      -0.00282740
C        1.14139329       1.97269063       3.59065122       0.00000000       0.00212898      -0.00370134      -0.00151093
C       -0.13996144       4.08401219       3.60681875       0.00000000      -0.00102555      -0.00631814       0.00598618
C       -1.32698322       6.24897031       3.59051564       0.00000000      -0.00432441      -0.00004182      -0.00464365
C       -2.53101756       8.39622072       3.54858927       0.00000000      -0.00003559       0.00019242       0.00160140
C        4.86377223      -0.15016350       3.59360281       0.00000000      -0.00351323      -0.00376210      -0.00053993
C        3.62566540       1.99707053       3.68449826       0.00000000       0.00086883       0.00083386       0.00232868
B        2.33624319       4.12987102       3.98374458       0.00000000       0.00571915       0.00529451       0.00070690
B        1.13866642       6.20457379       3.98971691       0.00000000       0.00328157       0.00087039      -0.00658857
C       -0.06384566       8.38742917       3.68358616       0.00000000      -0.00212932       0.00368844       0.00221682
C        7.32596960      -0.15795138       3.55737374       0.00000000      -0.00090576       0.00116750      -0.00247263
C        6.08865631       1.98573986       3.55825998       0.00000000      -0.00579907       0.00141186      -0.00092873
C        4.87059865       4.14366165       3.71188552       0.00000000      -0.00040902       0.00048360       0.00355935
N        3.77554185       6.34392904       4.01943548       0.00000000       0.00339501      -0.00112818       0.00477900
C        2.41699046       8.39194743       3.71229918       0.00000000       0.00457524       0.00000298       0.00352658
C        9.79164668      -0.16272517       3.47709204       0.00000000       0.00038026       0.00078986       0.00139770
C        8.54521561       1.97534338       3.43617853       0.00000000       0.00324377      -0.00016072       0.00467260
C        7.31727444       4.12382178       3.47846004       0.00000000       0.00017474       0.00313704      -0.00627583
C        6.10628039       6.27582830       3.55206190       0.00000000      -0.00300126      -0.00369662       0.00255221
C        4.88133838       8.39647317       3.55289600       0.00000000       0.00198136      -0.00059663       0.00029710
C       -0.09103111       1.25879686       3.48008703       0.00000000      -0.00158904       0.00275157      -0.00405316
C       -1.35796568       3.38035959       3.45713284       0.00000000      -0.00383497      -0.00213596      -0.00034703
C       -2.56128195       5.53850650       3.47836643       0.00000000      -0.00141658      -0.00470852      -0.00003869
C       -3.76455635       7.68640723       3.49305597       0.00000000       0.00204158      -0.00171801      -0.00073068
C       -5.00047626       9.82663617       3.49568845       0.00000000       0.00076432       0.00390213      -0.00377123
C        2.39181812       1.27949176       3.62040466       0.00000000       0.00354160       0.00059089      -0.00195469
C        1.08168809       3.37739257       3.69783574       0.00000000       0.00420424      -0.00401201       0.00634206
C       -0.14042279       5.49520592       3.70072060       0.00000000      -0.00530043      -0.00307890       0.00156103
C       -1.30220104       7.67827727       3.61806587       0.00000000      -0.00217182       0.00208304       0.00401413
C       -2.53574267       9.82281729       3.56665144       0.00000000      -0.00073600      -0.00132245       0.00629050
C        4.86022902       1.27503225       3.61223099       0.00000000      -0.00542045      -0.00349434      -0.00482158
C        3.65289312       3.42294585       3.80723861       0.00000000       0.00241210       0.00076324      -0.00366214
C        1.18425191       7.69788609       3.80916067       0.00000000       0.00089177       0.00524234      -0.00654980
C       -0.07206575       9.81748180       3.61054232       0.00000000      -0.00238666       0.00113675       0.00071472
C        7.31782417       1.26637604       3.50322461       0.00000000      -0.00139694       0.00246797      -0.00199090
C        6.09072815       3.41661130       3.56422888       0.00000000      -0.00071181       0.00340503       0.00181968
C        4.89729248       5.58416098       3.74199980       0.00000000      -0.00300842      -0.00287674       0.00024929
C        3.67773147       7.69500259       3.74177011       0.00000000       0.00506549      -0.00257088       0.00542243
C        2.39781946       9.81211893       3.56334289       0.00000000       0.00088591       0.00037707       0.00098656
C        9.77580297       1.25656632       3.42487516       0.00000000       0.00376702       0.00038922       0.00087102
C        8.53837142       3.40060558       3.42599602       0.00000000      -0.00069909      -0.00047893      -0.00233537
C        7.32749678       5.54839396       3.47888640       0.00000000      -0.00061348       0.00240833      -0.00170484
C        6.11148399       7.69292062       3.52145374       0.00000000      -0.00080287      -0.00372193       0.00224033
C        4.86225331       9.81770503       3.48029703       0.00000000      -0.00113706      -0.00004335      -0.00677126
Fe       2.57381042       5.64604797       5.17225014       0.00000000       0.00254920       0.00194353       0.00932469
O        4.00495323       9.03274710       9.62636625       1.00000000       0.01008012       0.01200909       0.00738691
O        4.77628495       9.89166505      10.07048955       1.00000000      -0.00948406      -0.01058021      -0.00549971
