51
Lattice="12.336457 0.0 0.0 -6.168228499999997 10.683685154694365 0.0 0.0 0.0 15.0" Properties=species:S:1:pos:R:3:initial_magmoms:R:1:forces:R:3 energy=-438.25425906306225 free_energy=-438.25425906306225 stress="-0.0031683767982325682 0.0009907441123090668 3.1474648801763823e-06 0.0009907441123090668 -0.009616444577450554 2.7956444752290674e-06 3.1474648801763823e-06 2.7956444752290674e-06 -1.3146586522164748e-05" pbc="T T T"
C        0.10783098      -0.07202085       3.56675208       0.00000000      -0.00437432       0.00278206       0.01305843
C       -1.11743289       2.08154570       3.46681877       0.00000000      -0.00076868      -0.00205342      -0.00096577
C       -2.35249239       4.22095396       3.53733265       0.00000000      -0.00019737       0.00190936      -0.00514713
C       -3.58317846       6.34719784       3.60561543       0.00000000      -0.00516261       0.00467946      -0.00368033
C       -4.83461940       8.46728117       3.57472966       0.00000000      -0.00585308      -0.00119277       0.00430576
C        2.57514730      -0.10108116       3.72965907       0.00000000      -0.00521284      -0.00151290       0.00704715
C        1.37291425       2.00687476       3.41717614       0.00000000       0.00976466       0.00222365      -0.00237012
C        0.02847603       4.21207285       2.96014097       0.00000000       0.01146739      -0.00112622      -0.00779198
C       -1.12242292       6.36685692       3.35557522       0.00000000      -0.00084045      -0.00337872      -0.00042807
C       -2.35507707       8.47953592       3.62903898       0.00000000      -0.00308966       0.00119820       0.00091759
C        5.04170118      -0.05753209       3.87683180       0.00000000       0.00210896       0.00554523       0.00814246
C        3.77655262       1.99079569       4.16047820       0.00000000      -0.00196909       0.00744775       0.00398447
B        1.40566596       6.43563324       3.02663595       0.00000000       0.00604613       0.00940547       0.00058169
C        0.09447191       8.53781412       3.52309179       0.00000000       0.00116111      -0.00378486      -0.00672260
C        7.50578616      -0.01573746       3.80235519       0.00000000       0.00004862      -0.00569834      -0.00841887
C        6.28603677       2.08591260       4.11077501       0.00000000       0.00561321      -0.00476021       0.00182252
C        5.12685370       4.26511633       4.22661795       0.00000000       0.00604725      -0.00203739      -0.00049484
P        3.51678754       6.14388832       3.08036546       0.00000000      -0.00596028       0.00624651       0.00914950
C        2.56291652       8.59273817       3.44867330       0.00000000      -0.00022228       0.00422249      -0.00653910
C        9.98936639      -0.02510158       3.65118335       0.00000000      -0.00208833      -0.00951720       0.00034223
C        8.75835246       2.09698186       3.81087225       0.00000000      -0.00297164       0.00042522      -0.00474245
C        7.53742640       4.22187863       3.87837264       0.00000000      -0.00242582       0.00506342       0.00850252
C        6.28243073       6.34072409       3.61684912       0.00000000       0.00869365       0.00223877       0.00208566
C        5.03310417       8.49019224       3.47819902       0.00000000      -0.00251102      -0.00949786       0.00505157
C        0.11319132       1.35440127       3.47020395       0.00000000       0.00526326       0.00479864      -0.00079319
C       -1.14077703       3.49408152       3.32527403       0.00000000       0.00647531      -0.00031389      -0.00546217
C       -2.34901480       5.64344891       3.50742116       0.00000000      -0.00663612       0.00273173      -0.00669833
C       -3.59199893       7.76670772       3.59611038       0.00000000      -0.00518015       0.00213717       0.00624640
C       -4.82992944       9.88628275       3.60831913       0.00000000      -0.00761007      -0.00195217       0.00380265
C        2.58017740       1.31285476       3.78484315       0.00000000       0.00250973      -0.00051048       0.00044558
P        1.47522967       3.37063168       2.26241938       0.00000000      -0.00740874      -0.00583503       0.00069111
C        0.08079758       5.65771353       3.06620594       0.00000000       0.00856612       0.00397938      -0.00485757
C       -1.12415978       7.78856482       3.50671253       0.00000000      -0.00239406      -0.00276869      -0.00312297
C       -2.35348531       9.89419485       3.76176426       0.00000000      -0.00053709       0.00343351       0.00271848
C        5.04057600       1.35962277       4.08877980       0.00000000       0.00059434       0.00743455       0.01189479
P        3.61963797       3.59620125       4.89877500       0.00000000      -0.00074768      -0.00462312       0.00157671
C        1.33481370       7.90421642       3.32204565       0.00000000       0.00474534       0.00661564      -0.01025184
C        0.10211010       9.94827551       3.75282346       0.00000000       0.00040916      -0.00419380       0.00096432
C        7.51593634       1.39409556       3.93812004       0.00000000       0.00341106      -0.00748575      -0.00086923
C        6.31639026       3.50959383       4.12603707       0.00000000       0.00339250      -0.00649730      -0.00336605
C        5.08375180       5.57785072       3.71112684       0.00000000       0.01323266      -0.00014902       0.00248065
C        3.77437984       7.86123754       3.35371506       0.00000000      -0.00430567       0.00084292      -0.00687213
C        2.57522965       9.98594887       3.66088002       0.00000000      -0.00138487      -0.00261242      -0.00619159
C        9.99120219       1.39103992       3.66626480       0.00000000      -0.00676789      -0.00682501      -0.01326487
C        8.76338965       3.51530328       3.76451925       0.00000000      -0.00423180       0.00579167       0.00173342
C        7.52449362       5.63705652       3.70896878       0.00000000       0.00063442       0.00322218      -0.00721114
C        6.26685217       7.76014961       3.51967357       0.00000000      -0.00100752      -0.00202799       0.00366819
C        5.04258693       9.92096894       3.56466444       0.00000000      -0.00215548      -0.00857218       0.00856220
Fe       1.96848910       4.71283890       3.90872837       0.00000000      -0.00612154       0.00451937       0.00634207
O        0.11163020       5.94678730       9.39219091       1.00000000       0.01126644      -0.00369355      -0.00561191
O       -0.94575381       6.29498152       9.93016383       1.00000000      -0.01131515       0.00372595       0.00575615
