52
Lattice="12.336457 0.0 0.0 -6.168228499999997 10.683685154694365 0.0 0.0 0.0 15.0" Properties=species:S:1:pos:R:3:forces:R:3 energy=-441.1766885824659 free_energy=-441.1766885824659 stress="-0.007603012212753752 0.0036855318427825505 2.5091769822827627e-06 0.0036855318427825505 -0.008954698876844516 -5.441993547035766e-06 2.5091769822827627e-06 -5.441993547035766e-06 -6.213676757013055e-06" pbc="T T T"
C        0.00432596       0.04978355       4.07509784       0.00017550      -0.00623150       0.00345454
C       -1.21381322       2.20220551       4.21850318      -0.00346655      -0.00937473      -0.00999710
C       -2.48684449       4.33230872       4.15989900       0.00368736       0.00599222      -0.00221165
C       -3.73136105       6.46041218       4.05436498      -0.00494137      -0.00086621      -0.00723259
C       -4.95592604       8.58339714       3.99968401       0.00209302      -0.00855046      -0.00579462
C        2.46984546       0.01028246       3.97365331       0.00090760      -0.00178604      -0.00501376
C        1.29580780       2.12084321       4.09581121      -0.00351339       0.00643491      -0.00303564
C       -0.07679877       4.42216120       4.01188077      -0.00251641      -0.00377909      -0.00362406
C       -1.30392953       6.48573881       3.83685683      -0.00115366       0.00356710       0.00437200
C       -2.48000474       8.58551056       4.00296589      -0.00033681       0.00243357       0.00411890
C        4.93805083       0.03434939       3.99844469       0.00415847       0.00585035      -0.00917218
C        3.73646735       2.06831443       3.48484784      -0.00468605       0.00213076      -0.00696353
S        1.07022407       6.53385029       2.55197686      -0.00258747      -0.00540473      -0.01202526
C       -0.02028112       8.60985851       3.81051056      -0.00512909       0.00431446       0.00015222
C        7.40356834       0.05441844       4.04175101       0.00190925      -0.00281936      -0.00353498
C        6.19253109       2.16509531       3.82290113       0.00578092      -0.00562230       0.00276804
C        5.11267186       4.28833086       3.18813992       0.00384689       0.00284468       0.01310509
B        3.75630766       6.50427603       3.28821518       0.00084641       0.00129817      -0.00092638
C        2.44924687       8.64639728       3.67059529      -0.00185148       0.00790779       0.00037325
C        9.87784887       0.06386145       4.07436211      -0.00096705      -0.00072708      -0.00095207
C        8.64424478       2.18882815       4.14620685      -0.00052975       0.00499342       0.00304937
C        7.41158377       4.31525844       3.95441828       0.00460643       0.00199497      -0.00838515
C        6.17680494       6.45047931       3.73465432       0.00019050      -0.00002169      -0.00040002
C        4.93152147       8.61082752       3.81900366       0.00266711      -0.00545239      -0.00935967
C        0.02977802       1.48440797       4.15474717      -0.00111549      -0.00280643      -0.00244780
C       -1.24417650       3.63209262       4.18354270       0.00023871      -0.00390980       0.01070833
C       -2.50751702       5.75331549       4.06501330      -0.00057082       0.00603782       0.00772967
C       -3.72356904       7.87842977       4.02794076       0.00072303      -0.00249539       0.01355983
C       -4.94351117      10.00508583       4.03379582       0.00143844      -0.00827091      -0.00257959
C        2.49258292       1.42960561       3.83211722      -0.00691206       0.00114020      -0.01035127
P        1.55081046       3.83721218       4.43682737       0.01491645      -0.01015471       0.00206359
C       -0.15168115       5.73905825       3.56154861      -0.00001847       0.00103670       0.00369019
C       -1.25902100       7.89557228       3.85756921      -0.00454204       0.00208571       0.00354482
C       -2.46700391      10.00301099       4.00309979       0.00532409       0.00355835       0.00708187
C        4.95923682       1.44869051       3.79979910      -0.00071455       0.00442899      -0.00268606
S        3.89278292       3.36684524       2.31003554       0.00198223       0.00162161      -0.00656542
C        1.20471610       7.99915587       3.46103133      -0.00374292       0.00602482       0.00734711
C        0.00199312      10.02201039       4.00247878       0.00089451       0.00227969      -0.00125535
C        7.40755644       1.47801339       4.05022456       0.00471185      -0.00488407       0.00957691
C        6.22018142       3.57545216       3.67184599       0.00645146      -0.00325291       0.00191024
C        5.02474765       5.69988871       3.35041622       0.00129306       0.00329802       0.00401457
C        3.68690589       7.94665871       3.58401023      -0.00233850       0.00146850       0.00251312
C        2.46763083      10.04722468       3.97073634       0.00146280       0.00489217      -0.00491964
C        9.88745967       1.48653277       4.18537377      -0.00581070      -0.00229547      -0.00162067
C        8.63204481       3.60902994       4.13384980       0.00411320       0.00820108       0.00877328
C        7.39203757       5.73832007       3.94685907      -0.00405665      -0.00019219      -0.00352064
C        6.15012549       7.87559035       3.85828280       0.00213751      -0.00669562      -0.00326988
C        4.93924929      10.03338319       4.00810007      -0.00078057      -0.00617122       0.00743563
Fe       2.59047416       5.00889881       2.89569235      -0.00730569      -0.00227795       0.00558939
O        1.63693718       4.04421780       6.04816759      -0.00096641       0.00490168      -0.00000060
O        3.04069308       3.58111733       6.51547800      -0.00175281      -0.00217314       0.00405565
H        3.24788448       4.39342703       7.02095314      -0.00425004       0.00547766      -0.00314206
