51
Lattice="12.336457 0.0 0.0 -6.168228499999997 10.683685154694365 0.0 0.0 0.0 15.0" Properties=species:S:1:pos:R:3:initial_magmoms:R:1:forces:R:3 energy=-436.49841270593174 free_energy=-436.49841270593174 stress="-0.0028434802586059967 -0.00022718951797743117 8.897566950255697e-06 -0.00022718951797743117 -0.007098691368534428 -1.3633382895299398e-06 8.897566950255697e-06 -1.3633382895299398e-06 1.8357597877938388e-05" pbc="T T T"
C        0.00137121       0.01148941       3.69223168       0.00000000      -0.00488260       0.00913471       0.00755981
C       -1.23131918       2.15928864       3.54999357       0.00000000       0.00017936       0.00198750      -0.00274863
C       -2.46904214       4.29983889       3.70292177       0.00000000       0.00821504       0.00079188       0.00101452
C       -3.68657446       6.43503078       3.86980831       0.00000000       0.00023134      -0.00134338      -0.00444058
C       -4.93124393       8.55957707       3.83211799       0.00000000       0.00361278       0.00453605       0.00977054
C        2.46741671      -0.01363162       3.77709159       0.00000000      -0.00138920       0.00165041       0.00777819
C        1.25449335       2.07572062       3.37003929       0.00000000       0.00636515      -0.00124978      -0.00436503
C       -0.14387443       4.31272560       2.97869440       0.00000000      -0.00038769      -0.00284245      -0.00985680
C       -1.26668382       6.45620827       3.41341600       0.00000000       0.00295435       0.00705577      -0.00082636
C       -2.45561245       8.56340795       3.73214842       0.00000000       0.00932952      -0.00723095       0.00337339
C        4.93690047       0.02351967       3.91160629       0.00000000      -0.00836746      -0.00552343       0.01045033
C        3.65626755       2.07302127       4.15260622       0.00000000       0.01025673      -0.00428846      -0.00123006
S        1.26174439       6.56345296       2.25336996       0.00000000       0.01178509      -0.00686987       0.00071923
C       -0.00531983       8.59968660       3.52623753       0.00000000       0.00452484       0.00894374       0.00520828
C        7.39943549       0.04846011       3.86260758       0.00000000      -0.00111957      -0.00402491      -0.00732671
C        6.17237393       2.16236454       4.19956622       0.00000000       0.00200460       0.00000988       0.00381516
C        5.04683560       4.35344288       4.53486787       0.00000000       0.00180949       0.00299927      -0.00544691
B        3.66627930       6.40919777       3.99818483       0.00000000       0.01090545       0.00614838       0.00667961
C        2.46390266       8.61387871       3.62131184       0.00000000      -0.01061323      -0.00497988      -0.00429594
C        9.87746695       0.04084979       3.77786827       0.00000000      -0.00071876       0.00273262       0.01117028
C        8.64588537       2.17015524       3.92812342       0.00000000      -0.00737881       0.00494030      -0.00883478
C        7.43996051       4.30238680       4.14422551       0.00000000      -0.00320324       0.00538478      -0.01588093
C        6.20648964       6.45286292       4.08835507       0.00000000      -0.00197882      -0.00169267      -0.00162919
C        4.93443020       8.56978707       3.83315964       0.00000000      -0.00581188      -0.00679287      -0.00215415
C        0.00251625       1.43812591       3.51789252       0.00000000       0.00075201       0.00602654       0.00111403
C       -1.26334650       3.57614917       3.42656743       0.00000000       0.00758115      -0.00159195       0.00308497
C       -2.46781669       5.72422106       3.68532376       0.00000000       0.00502752       0.00202230       0.00533799
C       -3.69339404       7.85364906       3.81490635       0.00000000       0.00546408      -0.00247944      -0.00487403
C       -4.93676496       9.97469472       3.74655479       0.00000000      -0.00356161       0.00782368       0.00424113
C        2.46228987       1.40558396       3.76399865       0.00000000       0.00707398       0.00052155      -0.00597691
S        1.34089455       3.53722179       2.41510112       0.00000000      -0.01189289      -0.00877619       0.00862368
C       -0.14514695       5.72629649       2.96339618       0.00000000       0.00066319      -0.00063441       0.01030611
C       -1.23147674       7.87088167       3.53811221       0.00000000       0.01329452       0.00698092      -0.00137465
C       -2.45739677       9.98319488       3.82108631       0.00000000      -0.00512447      -0.00960125       0.00631895
C        4.92494651       1.44403441       4.12313336       0.00000000       0.00570349      -0.00378624      -0.00494386
P        3.44044576       3.68885533       4.77477217       0.00000000       0.01471582      -0.00978692      -0.00666830
C        1.23875348       7.97110456       3.29537531       0.00000000      -0.00680070      -0.00249711      -0.00597159
C        0.00095382      10.01357727       3.79301923       0.00000000      -0.00514920       0.00521777       0.00014051
C        7.40331046       1.46532083       4.02059923       0.00000000      -0.00266655      -0.00415107      -0.00602213
C        6.21062580       3.58463527       4.33818822       0.00000000       0.00078027       0.00393192       0.00024287
C        5.00187190       5.73204919       4.25994517       0.00000000      -0.00251065       0.00229666      -0.00652743
C        3.68126580       7.88855669       3.78264552       0.00000000      -0.01129357      -0.00330087       0.00376319
C        2.46454643      10.03438836       3.76884749       0.00000000      -0.00040515      -0.00628338       0.00684857
C        9.88215451       1.46428428       3.76488153       0.00000000      -0.00559110       0.00673658      -0.00399933
C        8.65392689       3.58945268       3.95101768       0.00000000      -0.00115120       0.00628093      -0.01148209
C        7.43615525       5.72612326       4.06175388       0.00000000      -0.00296354       0.00283634      -0.00191772
C        6.17273986       7.85963486       3.91294882       0.00000000       0.00081094      -0.00170582       0.00546181
C        4.93726397       9.99896540       3.75983339       0.00000000      -0.00252320      -0.00072303       0.01725077
Fe       2.02622090       5.18874305       3.81062817       0.00000000      -0.01632574      -0.00042090      -0.01077646
O        1.81910836       4.46525432       6.37216826       1.00000000      -0.01000352      -0.00829988       0.00214131
O        3.00559883       3.67423422       6.38034805       1.00000000      -0.00022635       0.00388668      -0.00284470
