51
Lattice="12.336457 0.0 0.0 -6.168228499999997 10.683685154694365 0.0 0.0 0.0 15.0" Properties=species:S:1:pos:R:3:initial_magmoms:R:1:forces:R:3 energy=-435.0277569099018 free_energy=-435.0277569099018 stress="-0.005995577937230749 -0.0013865510522166544 1.1615452249100851e-05 -0.0013865510522166544 -0.00807517149068543 1.187461242877042e-05 1.1615452249100851e-05 1.187461242877042e-05 9.754873866317473e-06" pbc="T T T"
C        0.05983107      -0.09456786       3.64453185       0.00000000       0.00726532       0.00281947      -0.00180525
C       -1.18292387       2.04334937       3.47201500       0.00000000       0.00671276       0.00273347      -0.00296687
C       -2.42262850       4.18411062       3.57339936       0.00000000      -0.00609723      -0.00407727      -0.00538614
C       -3.63026806       6.32295157       3.71203859       0.00000000      -0.00188985       0.00204400      -0.00760899
C       -4.87715476       8.44748285       3.67559195       0.00000000      -0.00892167      -0.00050659      -0.00621620
C        2.52613087      -0.11574557       3.76829909       0.00000000       0.00066107       0.00152880      -0.01295549
C        1.30508643       1.97502843       3.36098756       0.00000000       0.00309139      -0.00681515      -0.00773789
C       -0.08162041       4.17527282       2.92420485       0.00000000       0.00590823       0.00784605       0.00626103
C       -1.19615244       6.32592994       3.44551335       0.00000000       0.00465713      -0.00199729      -0.00164949
C       -2.40041185       8.44994553       3.72980479       0.00000000       0.00020552       0.00280228      -0.00728165
C        4.98999634      -0.08795429       3.90254425       0.00000000       0.00204862      -0.00140408      -0.00801908
C        3.72305421       1.99129223       4.09580295       0.00000000      -0.00114329      -0.00682002       0.00264117
B        1.25183121       6.36670076       3.26748604       0.00000000      -0.00853280      -0.00124046       0.00401855
C        0.05362807       8.47976676       3.62897248       0.00000000       0.00532641      -0.00102171      -0.00642199
C        7.45675067      -0.06820912       3.83140236       0.00000000      -0.00138068       0.00209211      -0.00329569
C        6.22221160       2.05734308       4.07716727       0.00000000      -0.00119552      -0.00060815       0.00167628
C        5.06008994       4.24831577       4.10145047       0.00000000       0.01324696      -0.00021875      -0.00376485
S        3.76937241       6.22180391       2.62923807       0.00000000       0.00524388       0.00475759       0.01188801
C        2.53811708       8.51436581       3.47514902       0.00000000      -0.00105312      -0.00697610       0.00586860
C        9.93431789      -0.07014377       3.68632786       0.00000000      -0.00373974      -0.00371193       0.00055017
C        8.69620302       2.05696963       3.81776647       0.00000000      -0.00546757       0.00378852      -0.00648265
C        7.48063113       4.19085591       3.89738732       0.00000000      -0.00379345       0.00589050       0.01242023
C        6.25744570       6.33197451       3.66843378       0.00000000      -0.00572562      -0.00426975       0.00255716
C        5.00099630       8.46463375       3.50443246       0.00000000       0.00119494       0.00171485       0.00145344
C        0.05487800       1.33144542       3.50199636       0.00000000       0.00683523       0.00307355       0.00141993
C       -1.21797094       3.45131603       3.31306325       0.00000000       0.00639055       0.00537254       0.00806216
C       -2.41448238       5.60718007       3.58931213       0.00000000      -0.00025138      -0.00420843      -0.00632331
C       -3.63494655       7.74214436       3.70810591       0.00000000      -0.00483321       0.00617320       0.00622494
C       -4.87746761       9.87113152       3.69098609       0.00000000       0.00075703       0.00179301      -0.00962984
C        2.52119429       1.31560886       3.74054195       0.00000000       0.00017602      -0.00250834       0.00076470
S        1.29857324       3.32152579       2.23262071       0.00000000      -0.00197238       0.00682950       0.00403756
C       -0.01950598       5.58191133       3.13092614       0.00000000       0.00810198       0.00603636       0.00137000
C       -1.16967121       7.74536597       3.61394016       0.00000000       0.00357032      -0.00129155      -0.00263272
C       -2.40352501       9.87109697       3.82343045       0.00000000      -0.00006289       0.00217496      -0.01490475
C        4.98146511       1.34230615       4.05479464       0.00000000       0.00155567      -0.00449972      -0.00229190
S        3.61026034       3.56495071       4.82871947       0.00000000      -0.00475486      -0.01156217      -0.00015093
C        1.30209171       7.81798772       3.45127911       0.00000000       0.00103925      -0.00623103      -0.00846183
C        0.05487550       9.89970867       3.80760210       0.00000000       0.00406882       0.00014637      -0.00392974
C        7.45401800       1.35254896       3.93784510       0.00000000      -0.00424523       0.00500635      -0.00388650
C        6.24893884       3.47933808       4.07166569       0.00000000       0.00505875       0.00341896       0.00671245
C        5.06925551       5.57023470       3.63288908       0.00000000      -0.00411218       0.00466698       0.01111542
C        3.76114025       7.83105320       3.28022642       0.00000000       0.00128016       0.00312481       0.00937966
C        2.53048270       9.92469390       3.69091485       0.00000000      -0.00632876      -0.00650865       0.00430764
C        9.93308726       1.35195619       3.68385732       0.00000000       0.00081845       0.00008892       0.00319329
C        8.70126791       3.47431891       3.78709323       0.00000000      -0.00947647       0.00251709       0.01234826
C        7.48381190       5.61108527       3.78718600       0.00000000      -0.00358805       0.00147700      -0.00043420
C        6.23280095       7.74633140       3.57552135       0.00000000      -0.00656215      -0.00843915       0.00928709
C        4.99336578       9.89121327       3.62756492       0.00000000       0.00625177       0.00142832       0.00615950
Fe       2.34198358       4.78481254       3.48968994       0.00000000      -0.00515169      -0.00772847      -0.00150153
O        1.10335413       6.35104277       9.15614506       1.00000000      -0.00009096      -0.00373767       0.00042630
O        0.85045282       7.50380438       9.52522987       1.00000000      -0.00109546       0.00503686       0.00159591
