51
Lattice="12.336457 0.0 0.0 -6.168228499999997 10.683685154694365 0.0 0.0 0.0 15.0" Properties=species:S:1:pos:R:3:initial_magmoms:R:1:forces:R:3 energy=-441.07004345822463 free_energy=-441.07004345822463 stress="-0.005005865212250068 -0.00132103317458265 1.1902232604349755e-05 -0.00132103317458265 -0.0046826039534031486 -5.082635066857511e-06 1.1902232604349755e-05 -5.082635066857511e-06 -4.452957022108957e-06" pbc="T T T"
C       -0.00377762      -0.05910334       3.69172320       0.00000000      -0.01056868      -0.00914347      -0.00063589
C       -1.25319233       2.06450267       3.91435804       0.00000000      -0.01042857       0.00664521       0.00010313
C       -2.50841870       4.20889176       3.88145499       0.00000000      -0.00278482       0.00316275      -0.01393709
C       -3.71169119       6.35369690       3.69485686       0.00000000       0.00706528       0.00575225       0.00830563
C       -4.93176917       8.49301322       3.61731115       0.00000000      -0.00044830      -0.01304656      -0.00294620
C        2.46708013      -0.07860130       3.55763393       0.00000000       0.01011600      -0.00093685       0.00258319
C        1.25722992       2.03231606       3.88274638       0.00000000      -0.00400960       0.00802161       0.00613872
C       -0.12222887       4.21988845       4.34285370       0.00000000       0.00886826       0.00967248      -0.00112802
C       -1.28098140       6.36397637       3.95136403       0.00000000      -0.00728339      -0.00696463       0.00026732
C       -2.46733289       8.48411882       3.65671992       0.00000000       0.00374273      -0.00924011       0.00173670
C        4.93174126      -0.06489628       3.47200843       0.00000000       0.00584512      -0.00350125      -0.00830662
C        3.67221011       2.00504382       3.16122132       0.00000000       0.00551292       0.00856896      -0.00732824
B        1.18036586       6.37469820       4.08130057       0.00000000       0.00908520       0.00294943       0.01147225
C       -0.00687764       8.49583997       3.72036143       0.00000000      -0.00564438      -0.00662143      -0.00006294
C        7.39890024      -0.05892969       3.53775502       0.00000000      -0.00625818       0.00383656      -0.00410374
C        6.15811091       2.08236987       3.31822720       0.00000000      -0.00167630      -0.00680235      -0.00947929
C        5.00787822       4.28719451       3.06229784       0.00000000       0.00266290       0.00700113      -0.00532417
N        3.77502769       6.37560839       3.43237564       0.00000000       0.00373450       0.00175204      -0.00958600
C        2.48755139       8.48479115       3.64264643       0.00000000       0.00655849       0.00713768       0.00246940
C        9.86782673      -0.05793680       3.63591119       0.00000000      -0.01161774      -0.00197241       0.01380160
C        8.62234715       2.07720588       3.62950069       0.00000000       0.00307810      -0.00760765       0.00284661
C        7.39557650       4.22077325       3.52214287       0.00000000      -0.00226278       0.00285113      -0.00392052
C        6.18816106       6.38037875       3.48227202       0.00000000      -0.00164786       0.00412299      -0.00017922
C        4.94114670       8.48500935       3.57759198       0.00000000      -0.00180646       0.00030423       0.00097785
C       -0.00045782       1.36526082       3.85192479       0.00000000      -0.01066571      -0.00196886      -0.00561408
C       -1.29007649       3.47889995       4.07444116       0.00000000      -0.00138099       0.01281218       0.00577326
C       -2.50315232       5.63754522       3.85070748       0.00000000      -0.00157755      -0.00014615       0.00053478
C       -3.70199165       7.77692469       3.65793181       0.00000000       0.00536660      -0.00409015       0.00006354
C       -4.93881112       9.91136427       3.62847447       0.00000000       0.00485153      -0.01293792       0.01191910
C        2.46336911       1.34476283       3.52935763       0.00000000       0.00025002       0.00979061      -0.00652082
P        1.44252018       3.53989091       4.79914284       0.00000000       0.00404418      -0.00123471       0.00010784
C       -0.10272228       5.63237115       4.19630910       0.00000000      -0.00147298       0.00680051       0.00036422
C       -1.24004555       7.77825968       3.77443954       0.00000000      -0.00425016      -0.01067764       0.00924527
C       -2.46648761       9.90271555       3.54258066       0.00000000       0.01231163      -0.00703466       0.01088267
C        4.92609375       1.36148723       3.29200379       0.00000000      -0.00137635      -0.00046952       0.01218896
S        3.59797431       3.53790617       2.32114180       0.00000000       0.00980441       0.00014388       0.00540193
C        1.24736140       7.81590065       3.80053671       0.00000000       0.00483253       0.01019748       0.00287964
C       -0.00445009       9.91489548       3.56196629       0.00000000      -0.00166961      -0.00473678       0.00571280
C        7.38608600       1.37196665       3.48475541       0.00000000       0.00285199      -0.00273403      -0.00819792
C        6.16601417       3.51519494       3.29294172       0.00000000      -0.00395051      -0.00322090      -0.00276607
C        4.97899549       5.69525591       3.29340753       0.00000000       0.00140225       0.00578244      -0.00938644
C        3.72310806       7.75043685       3.56657605       0.00000000       0.00589020      -0.00119652      -0.01108741
C        2.47381245       9.91302966       3.58819422       0.00000000      -0.00818059       0.00611859       0.01619296
C        9.85902477       1.36459729       3.72544004       0.00000000      -0.00296198      -0.00324954      -0.00004491
C        8.61477206       3.50089034       3.67984557       0.00000000      -0.00106892      -0.00427174      -0.00704739
C        7.40178961       5.64289237       3.56936338       0.00000000       0.00317289       0.00946705      -0.01252086
C        6.17468944       7.79139198       3.57019502       0.00000000      -0.00479289      -0.00032574      -0.01380342
C        4.93300796       9.91184914       3.63993590       0.00000000      -0.01727576      -0.00314539      -0.00232078
Fe       2.52468654       5.06586819       3.52075417       0.00000000       0.00752499      -0.00572453       0.01503571
O        2.72926872       5.68765416       9.10958235       1.00000000      -0.00160623       0.00372402       0.00115247
O        2.50765781       6.90374521       9.14162651       1.00000000       0.00009455      -0.00361369      -0.00190952
