52
Lattice="12.336457 0.0 0.0 -6.168228499999997 10.683685154694365 0.0 0.0 0.0 15.0" Properties=species:S:1:pos:R:3:forces:R:3 energy=-438.64460059890575 free_energy=-438.64460059890575 stress="-0.005837672408617375 -0.0024472481408993477 -2.482967193161544e-05 -0.0024472481408993477 -0.006093488795083055 -3.429577191706225e-06 -2.482967193161544e-05 -3.429577191706225e-06 3.5911249313283596e-05" pbc="T T T"
C       -0.02780958      -0.04151846       3.93681181      -0.00066044       0.00343056      -0.00724394
C       -1.27826825       2.08988336       3.77795363      -0.00142256       0.00346552       0.00143979
C       -2.51350981       4.23614690       3.89199152      -0.00223211       0.00212932       0.00219572
C       -3.71528222       6.37831443       3.99461341       0.00049637       0.00164521      -0.00632285
C       -4.95940136       8.50509656       3.94623780       0.00738111       0.00164172      -0.01001703
C        2.44067429      -0.05190918       3.97313516       0.00846997      -0.00692042      -0.00061217
C        1.20016843       2.02225906       3.56117801      -0.00494700      -0.00385930       0.00430272
C       -0.18003289       4.22301182       3.23698907       0.00280389      -0.00849426       0.00008302
C       -1.27840841       6.37444321       3.73231951       0.00060165       0.00724129       0.00629572
C       -2.48204252       8.50539432       3.96700877      -0.00149244       0.00318744      -0.00123156
C        4.90631297      -0.03137077       4.05654010       0.00418930      -0.00515084      -0.00072567
C        3.64611613       2.08390097       4.14720064      -0.00268695      -0.00359829      -0.01099091
B        1.19616122       6.37939200       3.41789656       0.00415244      -0.00241599       0.00028280
C       -0.02307365       8.51986319       3.82138022      -0.00253142      -0.00054623      -0.00169202
C        7.37002933      -0.02440705       4.03600823      -0.00523974       0.00167604      -0.00417515
C        6.12621482       2.11352734       4.21053575       0.00074919       0.00219613      -0.00780252
C        4.94970613       4.30078906       4.03770372      -0.01665897       0.00002833       0.00983618
S        3.81454062       6.40918599       2.53213440      -0.00634813      -0.00192802       0.00356857
C        2.45809822       8.55112336       3.65724502      -0.00061853      -0.00239893      -0.00029249
C        9.84304451      -0.02827998       3.96640406      -0.00616093       0.00851424      -0.00931923
C        8.60198454       2.10605688       4.08225083       0.00739523      -0.00335682      -0.00474997
C        7.38311354       4.24617947       4.10469341      -0.00449776      -0.00090557      -0.01474378
C        6.17712516       6.38908481       3.82957047       0.00066026      -0.00262326      -0.00687604
C        4.92250315       8.52243868       3.74518511       0.00246565       0.00378673       0.00144314
C       -0.04017993       1.38115050       3.78195745      -0.00442654       0.00153521       0.00393426
C       -1.31184220       3.50000325       3.63994486       0.00079652       0.00047426       0.01292528
C       -2.49911267       5.65973867       3.89570997       0.00118187       0.00438507       0.00428346
C       -3.71680188       7.79814022       3.97893492       0.00386347      -0.00103187      -0.00197618
C       -4.96234043       9.92918021       3.95480559       0.00706104       0.00027557       0.00698949
C        2.42804138       1.37545177       3.89087620      -0.00396309      -0.00943393      -0.00475081
S        1.11889344       3.35423036       2.43398929       0.00416621       0.00078189       0.00238538
C       -0.10301768       5.62663844       3.41567487      -0.00251647      -0.00523926       0.00167894
C       -1.25056473       7.79552198       3.84826770      -0.00287655       0.00937733       0.00932776
C       -2.48750374       9.92969672       4.01505119       0.00742972      -0.00253917      -0.00318996
C        4.89527116       1.40438456       4.15879210      -0.00064544      -0.00388730      -0.00097799
S        3.51836541       3.65048959       4.87226167       0.00173894      -0.00225147       0.00071300
C        1.22291752       7.84613570       3.62430943      -0.00103181      -0.00108009       0.00318944
C       -0.02875625       9.94566710       3.98607161      -0.00124532      -0.00603319       0.00034342
C        7.36164946       1.39987459       4.14333154       0.00579379       0.00022904      -0.00156196
C        6.14320651       3.53432482       4.16236168      -0.01004717       0.00290605       0.00109343
C        5.00781808       5.63704854       3.60212993      -0.00302303      -0.00497930       0.00456133
C        3.69605772       7.89735519       3.43168838       0.00310127      -0.00665852      -0.00079165
C        2.44307750       9.96041622       3.92001679      -0.00547628       0.00101790       0.00317817
C        9.83931969       1.39603580       3.97973044       0.00433084       0.00552441       0.00158454
C        8.60578625       3.52641254       4.06541678      -0.00058743      -0.00307334      -0.00177724
C        7.39516519       5.66710495       4.01628054      -0.00139036       0.00050150       0.00524636
C        6.15455852       7.80650414       3.81028656       0.00308524       0.00217623       0.00661635
C        4.90705872       9.94041821       3.91993952      -0.00640333       0.00946466       0.00302418
Fe       2.46502900       4.87172069       3.25495245       0.00392285       0.01037662       0.01429619
O        3.61670932       5.35189886       6.07481879      -0.00097222       0.00212114      -0.01143299
O        2.48359657       5.23765673       6.92469822       0.00360889      -0.00543260       0.00322859
H        2.89269329       5.38829179       7.79811389       0.01065627       0.00374853      -0.00479315
