52
Lattice="12.336457 0.0 0.0 -6.168228499999997 10.683685154694365 0.0 0.0 0.0 15.0" Properties=species:S:1:pos:R:3:forces:R:3 energy=-443.33988807103697 free_energy=-443.33988807103697 stress="-0.002812278925467471 0.0007882201221502678 -2.2806143939470414e-05 0.0007882201221502678 -0.00946951811594064 1.876886257248894e-05 -2.2806143939470414e-05 1.876886257248894e-05 3.706113550206854e-06" pbc="T T T"
C       -0.03255206       0.06583608       3.76575735       0.00643260       0.00083489      -0.00005472
C       -1.25520752       2.22092102       3.65705243      -0.00293198       0.00276550      -0.00152761
C       -2.49049118       4.36020917       3.70951047      -0.00241843      -0.00424706      -0.00341933
C       -3.72140538       6.48703534       3.76704085       0.00964584      -0.00980120       0.00467714
C       -4.97385624       8.60556516       3.75202885      -0.00161136      -0.00246543      -0.00358029
C        2.43470628       0.03035026       3.94173896       0.00324448       0.00693892      -0.00355370
C        1.23630638       2.14709280       3.63036395       0.00412434      -0.00467128       0.00175487
C       -0.10295406       4.35069116       3.14843770      -0.00225472      -0.00453961      -0.00573973
C       -1.26219952       6.50732625       3.52165854       0.01270153      -0.00340058      -0.00012116
C       -2.49389911       8.61622441       3.81319375      -0.00802160       0.00865120      -0.00028766
C        4.90183400       0.07563451       4.09059232      -0.00070297       0.00739223      -0.01174486
C        3.62995092       2.10063385       4.41611030      -0.00542196       0.00257356      -0.00559430
B        1.26936825       6.57966426       3.18774141      -0.00306469       0.00817846      -0.00794052
C       -0.04499179       8.67748952       3.70502331      -0.00154209      -0.00178874      -0.00462381
C        7.36474117       0.12430143       3.99503086      -0.00212355      -0.00095292      -0.00402659
C        6.14610393       2.22813752       4.31354659      -0.00218888      -0.00763153      -0.00066831
C        5.00284237       4.43092078       4.43232426       0.00696921      -0.00265482       0.00244588
P        3.37365951       6.28206668       3.23674770      -0.00807870       0.00886855       0.01442050
C        2.42281215       8.73404770       3.62335014       0.00401339       0.00000410      -0.01390839
C        9.84872110       0.11447571       3.83521953       0.00120732      -0.00724390       0.00438183
C        8.61768499       2.23729059       3.99465675       0.00112438       0.00362281       0.00276539
C        7.39978349       4.36318385       4.05631327      -0.00622700       0.00669706       0.00106667
C        6.14829644       6.48020083       3.77254590      -0.00349362       0.01172130       0.00787180
C        4.89316104       8.62860752       3.64981205      -0.00199166       0.00015459       0.00852238
C       -0.02401410       1.49365996       3.67381481       0.00151517       0.00345656      -0.00261401
C       -1.27779891       3.63209687       3.50873316      -0.00425798       0.00058057      -0.00234420
C       -2.48776188       5.78274737       3.67121718       0.01383627      -0.00896690      -0.00136130
C       -3.73096583       7.90594537       3.76801737      -0.00142334      -0.00715961       0.00682868
C       -4.97042256      10.02299709       3.80516467       0.00646366      -0.00155011       0.01096286
C        2.44347417       1.44870051       4.01178215       0.00280224       0.00139388      -0.00449633
P        1.34522047       3.50333403       2.46544077      -0.01302141       0.00002617       0.01468412
C       -0.05570921       5.79797591       3.23415073       0.01566678      -0.00540295      -0.00055503
C       -1.26258890       7.92719913       3.68215235      -0.00570705       0.00214573       0.00076937
C       -2.49337649      10.02815206       3.96881079      -0.00052716       0.01191265       0.00183130
C        4.89565516       1.49430507       4.31224884      -0.00639076       0.00142566       0.00318772
P        3.47465021       3.75020197       5.08976295      -0.01405331      -0.00778363      -0.00044834
C        1.19507285       8.04784556       3.49382355       0.00252504       0.00338932      -0.00528581
C       -0.03752353      10.08590986       3.95109066      -0.00246649      -0.00105069      -0.00900329
C        7.37273387       1.53614313       4.13146084       0.00111346       0.00000600      -0.00507388
C        6.17632651       3.65886673       4.32380344      -0.00004914      -0.00779350      -0.00614448
C        4.94860329       5.71267865       3.87307711       0.00513674      -0.00075063       0.00409506
C        3.63361669       8.00066198       3.52051903       0.00234753      -0.00226169      -0.00130411
C        2.43403330      10.12694477       3.84389986      -0.00134918      -0.00439471      -0.00305695
C        9.85048746       1.53055108       3.85012508      -0.00075376      -0.00328935       0.00250443
C        8.62482877       3.65491675       3.94226116      -0.00679961       0.00573852       0.00148734
C        7.38751246       5.77642532       3.87145539      -0.00288391       0.00703981      -0.00283245
C        6.12838558       7.89869112       3.68367849      -0.00703581       0.00747848       0.01134834
C        4.90209128      10.05916955       3.75029293       0.00443573      -0.00294449      -0.00073107
Fe       1.80423360       4.87923919       4.09952329      -0.00028048      -0.00253236       0.00069834
O        3.76820305       3.70406467       6.68813136      -0.00695477      -0.00199561       0.00178987
O        2.64686822       2.86548128       7.33453368       0.01288296      -0.00845259       0.00326906
H        2.25593219       3.59226533       7.86032513       0.00783870       0.00272934       0.00067926
