52
Lattice="12.336457 0.0 0.0 -6.168228499999997 10.683685154694365 0.0 0.0 0.0 15.0" Properties=species:S:1:pos:R:3:forces:R:3 energy=-448.64507113481454 free_energy=-448.64507113481454 stress="-0.00146536555015172 -0.00020869084186427416 -2.1340861408745785e-05 -0.00020869084186427416 0.005773563056348882 8.370690016034551e-06 -2.1340861408745785e-05 8.370690016034551e-06 -2.891750715286572e-05" pbc="T T T"
C       -0.01273521       0.01755210       3.74320822      -0.00239299       0.00529129      -0.00053611
C       -1.25833084       2.14013037       3.77195901      -0.00687520      -0.00149986      -0.00286194
C       -2.48602511       4.28472214       3.73385193       0.00284476      -0.00055257       0.00213415
C       -3.71755890       6.42806223       3.67419945      -0.00116508      -0.00283706      -0.00022018
C       -4.95188635       8.57095565       3.69044578       0.00726797      -0.00223410      -0.00122279
C        2.44921569       0.07542011       3.72135594      -0.00308803      -0.00622649      -0.00219692
C        1.18204726       2.16397753       3.79602112       0.00229879       0.00092761       0.00503474
C       -0.05146662       4.25963263       3.90642481      -0.00058923      -0.00183337      -0.00434750
C       -1.26755297       6.42264280       3.78907011       0.00064068      -0.00224047      -0.00790247
C       -2.49485497       8.57928956       3.71520729       0.00059521       0.01071689      -0.00224931
C        4.91230534       0.02573765       3.71686601       0.00678991       0.00140409       0.00451503
C        3.71506100       2.18310481       3.67793188      -0.00323127      -0.00000244      -0.00533486
C        1.12151679       6.43006964       4.14919513       0.00159754       0.00359888       0.00844233
C       -0.02529514       8.55026586       3.81019363      -0.00788639      -0.01098729       0.01113150
C        7.39165205      -0.01181999       3.75817342      -0.00158827      -0.00152396      -0.00097926
C        6.16127794       2.14731790       3.66736516      -0.00267734       0.00417597       0.00162167
C        4.95322595       4.28394705       3.63363400      -0.00167280       0.00097719       0.01053573
O        3.75694010       6.42684825       3.72353834       0.00384722      -0.00570392      -0.00199126
C        2.47307774       8.49762923       3.86576536       0.00341788       0.00313065      -0.00049293
C        9.85072201      -0.01658231       3.77090088       0.00196576       0.00305980      -0.01079848
C        8.62142803       2.13679599       3.71617021      -0.00097653      -0.00179285      -0.00526433
C        7.39130681       4.28552819       3.64769283       0.00289334      -0.00306294      -0.00010168
C        6.15970166       6.41631170       3.65334735      -0.00328871       0.00527393      -0.00667760
C        4.92170305       8.53770596       3.74570870      -0.00011438       0.00193098       0.00051287
C       -0.01135637       1.45209613       3.76844343      -0.00153802       0.00708018       0.00379600
C       -1.25295803       3.56205569       3.79703750      -0.00251108      -0.00418747      -0.00059883
C       -2.48707359       5.70971410       3.72197489       0.00122322      -0.00142672      -0.00610791
C       -3.71766917       7.85912632       3.68488204       0.00799689       0.00012557       0.00549454
C       -4.94134395      10.01495373       3.71926514      -0.00461243      -0.00322573      -0.00077891
C        2.44904067       1.53082185       3.73673603      -0.00151907      -0.00733931      -0.00163279
O        1.13107044       3.54560432       3.90953825       0.00262368       0.00578299       0.01006866
C       -0.02384525       5.69409138       3.94218820       0.00404166      -0.00167839       0.00163820
C       -1.26420130       7.85154272       3.76523571      -0.00955075      -0.00287768      -0.00974371
C       -2.49523982      10.01663944       3.71516425       0.00428280       0.00804698       0.00105410
C        4.91057592       1.46094851       3.68412512      -0.00025120       0.00317909      -0.00342377
O        3.76104399       3.56353047       3.60682782      -0.00474014       0.00294255      -0.00243107
C        1.20264397       7.78567145       3.93918589       0.00087385       0.00215149       0.00132312
C       -0.02064898       9.97733925       3.75551227       0.00060451      -0.01150680       0.00592212
C        7.38439949       1.42273102       3.70843323      -0.00358085       0.00204253       0.00432335
C        6.16213965       3.57043659       3.63291218      -0.00126804       0.00256593      -0.00468935
C        4.96810774       5.69122381       3.67432200       0.00137161      -0.00092588      -0.00570776
C        3.71132077       7.83631095       3.81023775       0.00215566      -0.00356147      -0.00107598
C        2.45772547       9.93809565       3.79750414       0.00311796       0.00485167      -0.01206263
C        9.85634729       1.42282538       3.75160607      -0.00366401      -0.00230168      -0.00433787
C        8.62445327       3.56701441       3.69016487       0.00493961      -0.00247974       0.00815687
C        7.39340312       5.70520377       3.64560361      -0.00515089      -0.00142051       0.00308492
C        6.16445651       7.84733776       3.68899630       0.00288197       0.00564231      -0.00125805
C        4.91821837       9.97146304       3.75687902       0.00007041       0.00252511       0.00355225
Fe       2.58463208       5.27010884       5.00222122      -0.01298047       0.00276081       0.00309096
O        3.24485846       3.98910169       6.17987957       0.00656525       0.00130713      -0.00415352
O        2.43641075       4.91316667       7.03660315      -0.00082192      -0.01257769       0.00565784
H        3.10750996       5.11569811       7.71149026       0.01082692       0.00451481       0.01008881
