52
Lattice="12.336457 0.0 0.0 -6.168228499999997 10.683685154694365 0.0 0.0 0.0 15.0" Properties=species:S:1:pos:R:3:forces:R:3 energy=-451.37495466872303 free_energy=-451.37495466872303 stress="-0.00505408132888621 0.0008782075438930696 1.578443766695928e-05 0.0008782075438930696 0.0011743896010884532 -3.302837483876809e-05 1.578443766695928e-05 -3.302837483876809e-05 1.720088177878156e-05" pbc="T T T"
C        0.00762113      -0.01305656       3.82217632      -0.00349649      -0.00136561       0.00190886
C       -1.23227148       2.10568616       3.94189363       0.00528460      -0.00065880       0.00498140
C       -2.46054889       4.24952400       3.95081317       0.00782197       0.01125220       0.00715839
C       -3.68976041       6.39236313       3.84266294       0.00216406      -0.00714121       0.00195154
C       -4.93469689       8.53122261       3.73430002      -0.00237688      -0.00473027       0.00147621
C        2.47334973       0.00539999       3.83326275       0.00297555       0.00364949       0.00030468
C        1.23888110       2.16079140       3.84818479       0.00130865       0.00524789      -0.00320355
C       -0.00198983       4.25441490       3.89971919      -0.00789043      -0.00607293      -0.00665020
C       -1.23871058       6.40388909       3.91254756       0.00379949       0.00319935      -0.00016164
C       -2.46763293       8.53878990       3.87234881      -0.00801994       0.00104335      -0.00261857
C        4.94432657      -0.01647046       3.87154665       0.01198192      -0.00322581      -0.00917559
C        3.71846946       2.16304885       3.74447359       0.00246613      -0.00643735      -0.01239864
N        1.17279806       6.38336279       3.70894630      -0.00883336       0.00279464      -0.01041309
C        0.00543220       8.50431907       3.83706444       0.00008132      -0.00233008       0.00887119
C        7.41502610      -0.04638389       3.89450650      -0.00456206      -0.00326833      -0.01424308
C        6.19740947       2.09512355       3.84331856      -0.00241390      -0.00940378       0.00172443
C        4.99597150       4.21264741       3.49463065       0.00020662      -0.00929483       0.00779608
S        3.73056152       6.37690424       2.40308514      -0.01299380      -0.00208593      -0.00275394
C        2.46431764       8.48836023       3.62974487       0.00647619       0.01101399      -0.00953952
C        9.87402598      -0.04314443       3.85064758      -0.01004819      -0.00700002       0.00703222
C        8.64976384       2.09805980       3.93785483       0.00580469      -0.00167216       0.00220839
C        7.43532342       4.24259364       3.80394880      -0.00617564      -0.00334110       0.01245966
C        6.20840311       6.38475756       3.51408332       0.00398219       0.00809164       0.00766437
C        4.94282118       8.52436835       3.54954429       0.00025181       0.01017569       0.00841466
C        0.00004898       1.41126837       3.88851851       0.00519525       0.00211307      -0.00605163
C       -1.23947288       3.53054505       3.96316067      -0.00093510      -0.00055579      -0.00021788
C       -2.46328452       5.67714280       3.92196714       0.00848800       0.00868910       0.00469537
C       -3.69743409       7.82054845       3.81873528      -0.00574146      -0.01019135       0.00298044
C       -4.92719735       9.96378729       3.79726206      -0.00177229      -0.00176062      -0.00546304
C        2.47676093       1.43417062       3.81235217       0.00166699       0.00453408      -0.00028857
C        1.20165344       3.56339068       3.82587326      -0.01053007      -0.00019316      -0.01001487
C       -0.01323091       5.70525147       3.85606793      -0.00319192      -0.00544154       0.00342791
C       -1.23752725       7.82098707       3.88797633      -0.00624595       0.00127548      -0.00765587
C       -2.46409568       9.96556627       3.85969131       0.00734169       0.00540953      -0.00554158
C        4.95752131       1.40735866       3.82744204       0.00166308      -0.00649214      -0.01568838
C        3.76304640       3.55157912       3.56258994      -0.00358432      -0.00808614      -0.00440056
C        1.21794969       7.75981333       3.70429066       0.00708325       0.00390091       0.01015694
C        0.00919149       9.93560171       3.87477163       0.00462521      -0.00595601      -0.00124138
C        7.42437983       1.37780447       3.91205025      -0.00072018      -0.00479382       0.00368315
C        6.22327584       3.51088035       3.73535049      -0.00585581      -0.01270092       0.01383362
C        5.06267423       5.62072667       3.23789769       0.01186736      -0.00358847       0.01171261
C        3.69781979       7.87110397       3.32869155       0.01103016       0.00752535       0.00749609
C        2.47324916       9.91750819       3.82365072      -0.00851511       0.00254962      -0.00610389
C        9.87374966       1.38301980       3.93377062       0.00587218      -0.00886133      -0.00586609
C        8.65465583       3.52864990       3.91968934       0.00560977       0.00726923       0.00275461
C        7.43234467       5.66941481       3.73849316       0.00130514      -0.00011452       0.00748842
C        6.18101578       7.81502995       3.56415329      -0.00153732       0.01080103       0.00285221
C        4.94285613       9.94557053       3.76156052      -0.00830051       0.00420765       0.00183336
Fe       2.44497433       4.97310400       3.54905839       0.00514859       0.00129036       0.00030220
O        2.05941887       5.86042863       6.34516022       0.01003360       0.00608327      -0.00626743
O        2.25039327       4.90778354       7.30046088      -0.00992105       0.01022997      -0.00062866
H        3.12695167       5.11721712       7.69092468      -0.00787370       0.00441716      -0.00058136
