52
Lattice="12.336457 0.0 0.0 -6.168228499999997 10.683685154694365 0.0 0.0 0.0 15.0" Properties=species:S:1:pos:R:3:forces:R:3 energy=-451.31645879982443 free_energy=-451.31645879982443 stress="-0.0024646297506349837 0.0005560463983886886 -2.0796875839992597e-06 0.0005560463983886886 0.006896767068671247 -2.9837828595216007e-06 -2.0796875839992597e-06 -2.9837828595216007e-06 -1.0983539994062425e-05" pbc="T T T"
C        0.07169291      -0.03048547       3.74977995      -0.00137658       0.00752184       0.00326185
C       -1.17046424       2.09312925       3.63754063       0.01215895      -0.00503622      -0.00387279
C       -2.39888854       4.23233045       3.58002845       0.00681917      -0.00208987       0.00775636
C       -3.62815993       6.37539425       3.65238895       0.00154015       0.00408304       0.00630923
C       -4.85460591       8.52911968       3.74507554      -0.00899914      -0.00302944       0.00790929
C        2.53367286       0.02398747       3.78216449      -0.00363248       0.00966811      -0.01273062
C        1.27394556       2.12919368       3.72727803      -0.00343775       0.00492234       0.00938539
C        0.03368976       4.24087483       3.52102030      -0.00680094       0.00560809       0.00190642
C       -1.17411652       6.36702710       3.55725484       0.00068958      -0.00844011      -0.00392248
C       -2.39857922       8.52319525       3.68745959       0.00685616       0.00098155      -0.00797872
C        5.00138988      -0.02865039       3.76977350       0.00234122       0.00102947       0.00112609
C        3.79692908       2.15462918       3.93235092      -0.00599149      -0.00279351       0.01415469
O        1.20424650       6.37906096       3.66218573       0.00408150      -0.00548488       0.00038811
C        0.06063686       8.48646874       3.70389922       0.00021336      -0.00235012       0.00646313
C        7.47575468      -0.07685871       3.75375659       0.00370799       0.00658522      -0.00935414
C        6.25585496       2.08055066       3.79452926      -0.01507226       0.00100333       0.00093665
C        5.04818188       4.19604463       4.00386328       0.00207065       0.00197206      -0.00770262
C        3.87106621       6.35871580       4.16107472      -0.00153252       0.00920933      -0.00556713
C        2.51040981       8.43143823       3.83725990      -0.00771328      -0.00679485      -0.00475296
C        9.93248381      -0.07383239       3.75109802       0.00033471      -0.00717812      -0.00074000
C        8.70950108       2.07686919       3.68605223       0.00709298       0.00216741       0.00140079
C        7.48878292       4.22555739       3.72896510       0.00270103       0.00345868      -0.00420659
C        6.27116669       6.37478155       3.83062839      -0.00284630      -0.01109965      -0.00438193
C        5.00670039       8.48677986       3.84109556       0.00399181       0.00306995      -0.00024484
C        0.07191872       1.40451417       3.70100972       0.00870826      -0.00022648       0.00140677
C       -1.16575571       3.52215551       3.55346540       0.00417972      -0.00367208      -0.00536573
C       -2.40279706       5.65354365       3.57976930      -0.00028313      -0.00406018       0.00771304
C       -3.63157441       7.80841882       3.68723433       0.00082669       0.00420775       0.00903215
C       -4.85740852       9.96458592       3.76079392      -0.00504636       0.00349161      -0.01197122
C        2.52482104       1.47078263       3.82957648      -0.00535323       0.00874292      -0.00719664
O        1.22156300       3.51195807       3.60058795      -0.01663632      -0.00248215       0.00218630
C        0.02289015       5.64737696       3.52995627       0.00249328       0.00223688      -0.00350998
C       -1.17886671       7.79660246       3.64087133       0.00471818      -0.00815144      -0.00330242
C       -2.40744815       9.96326112       3.75442774       0.00197439       0.00598973      -0.01338564
C        5.00641849       1.40118639       3.82616133      -0.01303386      -0.00242592       0.00721610
N        3.88003989       3.50884736       4.14332362       0.00989013      -0.00729459       0.00293759
C        1.26365493       7.76465507       3.74189256      -0.00429935      -0.00650013       0.00277994
C        0.06818138       9.91794133       3.74703872       0.00456633       0.00248876      -0.00736033
C        7.48142674       1.35790279       3.73879377      -0.00366636       0.00916943       0.00722761
C        6.26743460       3.49977324       3.82874895      -0.00162613       0.00272999      -0.00657550
C        5.04143989       5.65126527       4.00806719      -0.00177580      -0.00030052       0.01063751
C        3.77678444       7.72607383       3.94264402       0.00237483       0.00851568      -0.00206474
C        2.52995891       9.87034877       3.77654373      -0.00251063      -0.00718805       0.00212038
C        9.94423774       1.36421879       3.68531797       0.01001699      -0.00358987      -0.01056289
C        8.71186935       3.50832162       3.65355405       0.00549651       0.00402419       0.00168063
C        7.48818349       5.65529728       3.72733517       0.00080106       0.00086444       0.00147682
C        6.25388794       7.80211070       3.80083464      -0.00514097      -0.01240275       0.00949772
C        5.00505093       9.91595570       3.77529154       0.00154749       0.00507377       0.00187389
Fe       2.77005234       4.95108860       4.90108884       0.00212369      -0.01090053      -0.00405488
O        1.27992235       4.71289827       5.95479126      -0.00023469       0.00666799       0.01465256
O        1.64302051       6.06448533       6.42905177       0.00391747      -0.00673872      -0.00425047
H        1.66232861       5.87978098       7.38755915      -0.00122471       0.00474662       0.00161821
