52
Lattice="12.336457 0.0 0.0 -6.168228499999997 10.683685154694365 0.0 0.0 0.0 15.0" Properties=species:S:1:pos:R:3:forces:R:3 energy=-456.7480205787463 free_energy=-456.7480205787463 stress="-0.007709756996303976 7.926235756018167e-05 1.571555677620111e-07 7.926235756018167e-05 0.0022504752012941923 -7.452625184411696e-06 1.571555677620111e-07 -7.452625184411696e-06 1.8983426065680083e-06" pbc="T T T"
C        0.02307944      -0.02434983       3.75945802      -0.00061777       0.00198491       0.00577310
C       -1.22953025       2.08284726       3.72241434       0.00443191       0.00065699      -0.00071382
C       -2.46599190       4.23333644       3.64953592       0.00365484       0.00150928       0.00904641
C       -3.67921708       6.38602351       3.64656620      -0.00737461      -0.00288185      -0.00173400
C       -4.90083871       8.53974073       3.70742322      -0.00469489      -0.00612110       0.01269431
C        2.49583665       0.01768224       3.77389055      -0.00370880       0.00175175      -0.00638316
C        1.25235414       2.16098337       3.83238076      -0.00368911       0.00728791       0.01709259
C       -0.03002699       4.22465159       3.77586545      -0.00041042      -0.00071959      -0.00434008
C       -1.24321639       6.39227210       3.69718502       0.00094391      -0.00791111      -0.00234474
C       -2.45427039       8.53881555       3.71032894       0.00569317      -0.00336760       0.00496636
C        4.95936262      -0.02447600       3.75053701       0.00729707       0.00270719       0.00150899
C        3.75248484       2.16213393       3.80277970       0.00478072      -0.00398798      -0.00312573
C        1.20773112       6.33397725       3.86570971      -0.00843225       0.00343778       0.00030450
C        0.01512414       8.49520298       3.76202121       0.00247035       0.00068504       0.00674749
C        7.42989017      -0.06658092       3.73900097      -0.00171171      -0.00015737      -0.00046390
C        6.20663786       2.08453761       3.69712085       0.00226176      -0.00375485       0.01017235
C        4.99846675       4.20659234       3.72740374      -0.00236691       0.00101856      -0.00504689
C        3.78184164       6.33879130       3.86722518       0.00739550       0.00146515       0.00301684
C        2.49094137       8.46229072       3.81196474       0.00383378       0.00714695       0.00325958
C        9.88699175      -0.06580883       3.74314464       0.00157915       0.00211752       0.00791222
C        8.65748043       2.07965571       3.67264339      -0.00156111       0.00191924       0.00706678
C        7.43621714       4.23408805       3.63618682      -0.01117847      -0.00323389       0.00266054
C        6.21808291       6.38601250       3.68030220      -0.00009336       0.00163975       0.01001322
C        4.96909088       8.49775405       3.76089981       0.00213510       0.00145949      -0.00011755
C        0.01468259       1.40014200       3.77303112       0.00257805       0.00307185      -0.00233607
C       -1.25341437       3.50394523       3.69900221       0.00670311      -0.00072086      -0.00472152
C       -2.46181246       5.66634210       3.65309407      -0.00333164       0.00055716      -0.00524341
C       -3.67774457       7.81971487       3.68098118      -0.00186103      -0.00268751       0.00231441
C       -4.90357382       9.96668262       3.75261110      -0.00614011      -0.00335158      -0.01551898
C        2.50422533       1.44892771       3.81856330      -0.00307614       0.00588683      -0.00298895
C        1.17361929       3.54677553       3.90058346      -0.00615082       0.00274426      -0.00113620
C       -0.01680132       5.67282677       3.76737225      -0.00346950      -0.00586876       0.00704594
C       -1.22734631       7.81375193       3.71891074       0.00637931      -0.00823665      -0.00066419
C       -2.44816708       9.96549763       3.74850818       0.00534424       0.00268260      -0.00666626
C        4.96794099       1.40373477       3.74950985       0.00578535      -0.00063569      -0.00343232
N        3.81632128       3.53439698       3.82354683       0.00403469      -0.00574192      -0.00911734
C        1.25201286       7.73769741       3.81558575       0.00245281       0.00356890       0.00399905
C        0.02290579       9.92012858       3.75042822       0.00193012       0.00102438       0.00074835
C        7.43197712       1.36108084       3.69677072      -0.00023460      -0.00310787      -0.00518499
C        6.21631732       3.50506776       3.66797840      -0.00812901      -0.00733616       0.00025664
C        4.98611403       5.65935941       3.74422949       0.00278120       0.00255464      -0.00942194
C        3.73340335       7.73979543       3.81660154       0.00352805       0.00281389      -0.00565890
C        2.49026456       9.88964572       3.76314701      -0.00029911       0.00660325      -0.00218795
C        9.88041176       1.35924582       3.70769294       0.00174940       0.00107135      -0.00792500
C        8.65463432       3.51266704       3.63947364      -0.00272794       0.00535684       0.00100063
C        7.43674571       5.66491950       3.64114978      -0.00735724      -0.00256257      -0.00762316
C        6.20731180       7.81163320       3.71066601      -0.00217120      -0.00209346       0.00721784
C        4.95996419       9.92242906       3.75497319       0.00214890       0.00145424      -0.00226199
Fe       2.49804261       4.92384047       4.27460046      -0.00067431      -0.00351093      -0.00579361
O        2.70708287       4.74929926       6.20703559       0.00033481      -0.00311178      -0.01000382
O        1.87082611       5.64440251       6.99905616       0.00121629      -0.00198068       0.00526606
H        2.56711718       6.05608464       7.54643441      -0.00198152       0.00690406       0.00207226
