52
Lattice="12.336457 0.0 0.0 -6.168228499999997 10.683685154694365 0.0 0.0 0.0 15.0" Properties=species:S:1:pos:R:3:forces:R:3 energy=-451.5389797340646 free_energy=-451.5389797340646 stress="-0.005756127506672343 -0.0007299639324199255 -1.0100399926531104e-05 -0.0007299639324199255 0.000525030116106919 -1.4844156732430855e-05 -1.0100399926531104e-05 -1.4844156732430855e-05 -1.0841084954030757e-05" pbc="T T T"
C       -0.08930703      -0.07827577       3.84153407       0.00508992      -0.00702932       0.00030545
C       -1.33979158       2.02799335       3.90596626      -0.00822223       0.00685589       0.00298033
C       -2.57225382       4.17135713       3.98052656      -0.00734256       0.00291860       0.00685907
C       -3.79001935       6.32412070       3.96729472       0.00550466      -0.00446253      -0.00155499
C       -5.01931956       8.47343455       3.88309039       0.00066832      -0.00006277       0.00413360
C        2.37792202      -0.07407186       3.79556700       0.00255134      -0.00054884       0.01153987
C        1.14477767       2.10756503       3.71794374       0.00478221      -0.01068587       0.00740814
C       -0.11136096       4.16059829       3.91883283       0.00334203      -0.00142497      -0.00166821
C       -1.35639359       6.32869917       4.00998332       0.00610726      -0.00053627       0.01316142
C       -2.56580588       8.46705314       3.94373971      -0.00385431      -0.00340267      -0.01028017
C        4.84867804      -0.10341617       3.76705107      -0.01496947       0.00468972       0.00171741
C        3.61324479       1.96856400       3.33415694       0.00402367      -0.00289592      -0.01228658
C        1.07945865       6.29595725       3.86534767       0.00586890       0.00476245       0.00970108
C       -0.09427179       8.43446079       3.90443705       0.00050964       0.00638986       0.00361334
C        7.31480963      -0.12146197       3.81635441       0.00632734      -0.00102215      -0.00799966
C        6.08261032       2.03295047       3.62544062       0.00203785       0.00358109      -0.00247886
C        4.95117115       4.24135656       3.35274238      -0.00169815      -0.00256525      -0.00843881
N        3.71162660       6.32652450       3.58375343      -0.00209554       0.00013900      -0.01697856
C        2.39482577       8.40017123       3.79712942       0.00487458      -0.00431177       0.00235298
C        9.77329944      -0.11815848       3.85226643       0.00549808       0.00366694      -0.00711183
C        8.53789834       2.02650230       3.86985028      -0.00262720       0.00007174       0.00006703
C        7.32260513       4.18013207       3.82891927       0.00396535      -0.00314111       0.00217031
C        6.11362253       6.34607303       3.76434803      -0.00259141       0.00450054       0.00192104
C        4.85817142       8.44232848       3.77635439      -0.01157111       0.00150980      -0.00590938
C       -0.09320684       1.34858010       3.83433986      -0.00438017      -0.00418723       0.00616810
C       -1.35263739       3.44561714       3.95994508      -0.00785139       0.00873266       0.00316014
C       -2.57336661       5.60287507       4.00472266       0.00428488      -0.00127140       0.01503839
C       -3.79009646       7.75342688       3.95129317       0.00011617      -0.00392313      -0.01354150
C       -5.02242623       9.89919799       3.85695318       0.00749482      -0.00298192      -0.00929038
C        2.37956094       1.34830260       3.61867308       0.00936481      -0.00547569       0.00554044
C        1.10746886       3.50132926       3.75483146       0.00585716      -0.00723741      -0.00687498
C       -0.12631891       5.61205410       3.95799005       0.00585346       0.00057487       0.00388962
C       -1.33643960       7.74791549       3.96835995       0.00072087       0.00091923       0.00548677
C       -2.55969818       9.88857095       3.84027882      -0.01042149      -0.00405131       0.00609293
C        4.85421704       1.31669174       3.57130835       0.00060680       0.00362490      -0.00065513
S        3.63581914       3.48508915       2.46896979      -0.01009825      -0.01296995      -0.01021696
C        1.14498251       7.68380139       3.86309191       0.00215796       0.00334914       0.00395932
C       -0.08622002       9.85653931       3.83577153      -0.00617159       0.01014861      -0.00009818
C        7.30370456       1.31381274       3.77988944       0.00139450       0.00163653       0.00113718
C        6.09924166       3.46598578       3.61595982      -0.00125118       0.00334516       0.01062109
C        4.91510009       5.65014256       3.55832749       0.00045002      -0.00018723      -0.00604228
C        3.64225775       7.69537329       3.71776512      -0.00347830      -0.00425520       0.00078315
C        2.38020108       9.83411894       3.83063681       0.01027868      -0.00457055       0.00029657
C        9.76413932       1.30646894       3.89237210      -0.00416733       0.00349886      -0.00874473
C        8.53949226       3.45701312       3.91295822      -0.00170157      -0.00482239       0.00199363
C        7.32516532       5.60896111       3.86601106       0.00476891      -0.00208095      -0.00707180
C        6.09450933       7.76057926       3.80754765      -0.00846407       0.00754084      -0.00007456
C        4.84601128       9.86871972       3.83079016       0.00180150      -0.00031582      -0.00358866
Fe       2.42725034       5.00709213       3.52124955      -0.00192246       0.01710925       0.00671324
O        4.97782077       6.90030620       6.26279837      -0.00965181      -0.00812675       0.01532408
O        3.70014522       6.67992539       6.64525224      -0.00136326      -0.00125612      -0.00315734
H        3.77271954       6.05533780       7.40275965       0.00959316       0.01023681      -0.01007219
