51
Lattice="12.336457 0.0 0.0 -6.168228499999997 10.683685154694365 0.0 0.0 0.0 15.0" Properties=species:S:1:pos:R:3:initial_magmoms:R:1:forces:R:3 energy=-445.17041188248527 free_energy=-445.17041188248527 stress="-0.003759698723527328 0.0010927354746630112 1.9417317056603906e-06 0.0010927354746630112 -0.001642471651008952 2.6620609828088414e-05 1.9417317056603906e-06 2.6620609828088414e-05 1.5672707200408286e-05" pbc="T T T"
C       -0.01358556      -0.00893769       3.63897055       0.00000000       0.00164436      -0.00354702       0.00865116
C       -1.24474002       2.12481653       3.52795631       0.00000000       0.00012971       0.00304841      -0.00224145
C       -2.49632886       4.26069968       3.64510552       0.00000000      -0.00658323       0.00281333      -0.00289848
C       -3.73832212       6.39529629       3.74574855       0.00000000       0.00573612      -0.00643583      -0.00391099
C       -4.96287315       8.53022865       3.75019592       0.00000000       0.00070946       0.00233640      -0.00204954
C        2.45056456      -0.02521113       3.74572856       0.00000000       0.00881945       0.01177449       0.00391657
C        1.25161120       2.07979882       3.41608377       0.00000000      -0.00161043      -0.00484000       0.00070635
C       -0.04855337       4.31116350       3.49928600       0.00000000      -0.00826110       0.00305251       0.00153560
C       -1.30005630       6.41946728       3.78204920       0.00000000       0.00001003       0.00755226      -0.00018150
C       -2.49963602       8.54147444       3.82697711       0.00000000       0.00119168      -0.00822982       0.00437480
C        4.92294003      -0.01424670       3.81292151       0.00000000      -0.00475173      -0.00198862      -0.00306397
C        3.69354806       2.13595805       3.67558586       0.00000000       0.00597548      -0.00123502      -0.00006591
C        1.13629684       6.40584584       3.91893624       0.00000000      -0.00656214      -0.00481871      -0.00519878
C       -0.02268437       8.52780706       3.86572834       0.00000000       0.00416339       0.00529950       0.00230342
C        7.39673465      -0.02720353       3.78731733       0.00000000       0.00098804      -0.00398900      -0.00048583
C        6.15965841       2.11989883       3.71418726       0.00000000      -0.00229587       0.00107492      -0.00544796
C        4.88266394       4.27335447       3.60727458       0.00000000      -0.00391702      -0.00410345       0.00231835
O        3.75622269       6.44557150       3.62942016       0.00000000       0.01292357       0.01507435       0.00222989
C        2.48001100       8.49801669       3.83808321       0.00000000      -0.00290688       0.00240420      -0.00227214
C        9.85557243      -0.02220839       3.69548750       0.00000000       0.00449318      -0.00063093      -0.00496166
C        8.62444798       2.11705198       3.66548534       0.00000000      -0.00272016      -0.00549760       0.00228349
C        7.37141786       4.25497155       3.66900006       0.00000000      -0.00006645       0.00487125      -0.00189963
C        6.14340283       6.39704596       3.69489536       0.00000000      -0.00240421       0.00252000       0.00592626
C        4.92320615       8.53154494       3.73165500       0.00000000      -0.00614193       0.00440326      -0.00630881
C       -0.00633000       1.41697256       3.51122449       0.00000000      -0.00068389      -0.00275662       0.00904950
C       -1.24758524       3.55652819       3.53678759       0.00000000      -0.00820709       0.00446289       0.00758645
C       -2.51093804       5.68610792       3.72630865       0.00000000       0.00574919       0.00042471       0.00178067
C       -3.72865569       7.82176890       3.78373812       0.00000000       0.00088260      -0.00772811      -0.00568756
C       -4.95559064       9.95674241       3.71722746       0.00000000       0.00865133       0.00731322       0.00746927
C        2.46157988       1.38618740       3.63438597       0.00000000       0.00710245       0.00847961      -0.00275546
P        1.51277405       3.72928949       2.87272333       0.00000000       0.00283052      -0.00630108      -0.00191820
C       -0.06076947       5.72345985       3.73067128       0.00000000      -0.00653540      -0.00087104       0.00108822
C       -1.27043273       7.83319160       3.84243301       0.00000000       0.00647010       0.00499464       0.00764819
C       -2.48460346       9.95771175       3.81585162       0.00000000      -0.00073499      -0.00590512       0.00154670
C        4.93022210       1.40914276       3.75299730       0.00000000       0.00038584      -0.00170598       0.00604242
C        3.65652578       3.53901071       3.59042937       0.00000000      -0.00262731      -0.00376560       0.00295175
C        1.21696527       7.77574149       3.89057398       0.00000000      -0.00007279      -0.00138598      -0.00200635
C       -0.01258101       9.94920606       3.83385516       0.00000000      -0.00175789       0.00213788      -0.00013912
C        7.39649988       1.39950820       3.72800109       0.00000000      -0.00384030      -0.00535053      -0.00858035
C        6.14154296       3.54735114       3.64932805       0.00000000       0.00019169       0.00383551      -0.00083425
C        4.94690938       5.69588890       3.65720349       0.00000000       0.00092949      -0.00048422      -0.01114364
C        3.71437786       7.84374044       3.77139603       0.00000000      -0.00349164       0.00653665      -0.00208092
C        2.46471733       9.93188349       3.78013716       0.00000000       0.00394179      -0.00140935      -0.00277074
C        9.86195257       1.41045027       3.62699065       0.00000000       0.00281910      -0.00015986       0.00274080
C        8.61641619       3.54443849       3.65733651       0.00000000      -0.00440545      -0.00249180       0.00093048
C        7.37505358       5.67505598       3.70022459       0.00000000       0.00120844       0.00279075      -0.00405524
C        6.15254217       7.82219610       3.72366448       0.00000000      -0.00636140       0.00520543      -0.00448188
C        4.92016717       9.96247515       3.69110124       0.00000000       0.00020622      -0.00227080       0.00403234
Fe       2.58906023       5.11863662       4.79350180       0.00000000      -0.00029299      -0.00701203       0.01786141
O        2.37916584       5.29703957       6.68938607       1.00000000      -0.00346432      -0.00891693      -0.00458743
O        1.98648035       4.08178573       6.29210383       1.00000000       0.00254337      -0.00857510      -0.01294629
