52
Lattice="12.336457 0.0 0.0 -6.168228499999997 10.683685154694365 0.0 0.0 0.0 15.0" Properties=species:S:1:pos:R:3:forces:R:3 energy=-444.5714879465298 free_energy=-444.5714879465298 stress="-0.004487048022298962 -0.0009697288785267916 5.6823292755829495e-06 -0.0009697288785267916 -0.00712009803233561 1.9396069084508084e-06 5.6823292755829495e-06 1.9396069084508084e-06 -6.415592030856668e-05" pbc="T T T"
C        0.03948056       0.08570933       4.04004397       0.00906075      -0.02043655      -0.02782414
C       -1.21113041       2.22361406       4.28071773      -0.00849437       0.00995026       0.00469694
C       -2.46667474       4.36812228       4.12255537      -0.00545969      -0.00561665      -0.01132511
C       -3.66715717       6.50208746       3.85037511       0.00896233       0.01269819      -0.01628913
C       -4.88454497       8.64012373       3.83035245       0.00030909       0.00440787       0.00477354
C        2.51461621       0.05622207       3.89729040      -0.00828611      -0.00256230      -0.02053828
C        1.31202523       2.12675443       4.32670975      -0.00828268       0.01868596      -0.01513769
C       -0.07883720       4.43103558       4.50813951       0.01157534      -0.01069930      -0.00995440
C       -1.22068965       6.50380072       3.90569462      -0.01314478      -0.02050293       0.00079996
C       -2.41699881       8.62552747       3.79484470      -0.01761403      -0.01489196      -0.00639805
C        4.97910471       0.08062249       3.72536538      -0.02024799      -0.00273063       0.00579304
C        3.71258620       2.15047952       3.51693326       0.01042151      -0.02521432       0.01369983
P        1.41010675       6.27595792       3.10878618      -0.01456169      -0.00472123      -0.01618518
C        0.04536741       8.63399467       3.66168958       0.00587153       0.00572036      -0.01087404
C        7.43727415       0.10645603       3.76514781       0.01601453       0.00300342       0.00748671
C        6.19807613       2.23544030       3.59349552       0.01571230       0.00274403       0.03143773
C        5.05776394       4.40380551       3.17069288      -0.01964779       0.00231736       0.00549379
C        3.80073521       6.56746664       3.36160359      -0.00895499       0.01221024       0.01302483
C        2.51962515       8.67954279       3.61567221       0.00840454       0.00545362      -0.00253187
C        9.90934572       0.10891080       3.92892933       0.00984656       0.01785688       0.02511596
C        8.66072727       2.23607886       3.95489067      -0.00932203      -0.00487828       0.00222826
C        7.43568543       4.37101252       3.73197297       0.01307935      -0.00240172       0.00878301
C        6.23700390       6.52988336       3.57063819       0.01800729       0.00693851       0.02690812
C        4.99309924       8.66315516       3.71676300      -0.00481760      -0.01040066       0.00555859
C        0.04395735       1.50335228       4.25050017       0.00194771      -0.00583054      -0.00727941
C       -1.24606877       3.65437154       4.36097744      -0.00004135       0.00606530       0.01298670
C       -2.45307327       5.78888522       3.98428731      -0.01067608      -0.01242531      -0.01778622
C       -3.65562641       7.92385650       3.82299523      -0.01387390       0.00382313       0.00790817
C       -4.89452538      10.05191087       3.94324723       0.01280283      -0.00713397      -0.01231069
C        2.50621253       1.48063823       3.92399315      -0.01379830       0.00109006      -0.00558334
P        1.47484781       3.73350297       5.06128247      -0.01012087       0.00311637       0.00136246
C       -0.02912819       5.74569929       4.02217638      -0.01394989      -0.01636772      -0.00645333
C       -1.18904156       7.91624163       3.74918304      -0.00567668      -0.00825125       0.00554668
C       -2.41923992      10.04569768       3.79283897      -0.02177223      -0.01144447      -0.00994482
C        4.96993639       1.51073406       3.60457318       0.00822263      -0.00756049       0.01142093
S        3.64837299       3.57614784       2.49280450       0.02356931       0.01237543      -0.03155666
C        1.29649224       7.98197137       3.51784371       0.01220383      -0.00883466      -0.01145540
C        0.04454142      10.06349957       3.71302245      -0.00324784       0.01585013       0.02119809
C        7.42682667       1.53315901       3.78357169       0.01495844      -0.00586638      -0.02388314
C        6.21292108       3.65699334       3.49892241      -0.00201806       0.00147826       0.02133768
C        5.01860219       5.83566548       3.32055288      -0.00045736       0.02259336      -0.01203729
C        3.76181445       7.95508098       3.55099831      -0.00521133       0.01077218       0.00280619
C        2.51094769      10.09368005       3.78205901       0.02057932       0.00944985      -0.00534114
C        9.90207903       1.52501217       4.07867213      -0.00950281       0.02254070      -0.02113523
C        8.65159405       3.65736245       3.96024573       0.00435240      -0.01479651      -0.02674515
C        7.44360874       5.79457506       3.72014821       0.02600941       0.00280240       0.01381554
C        6.22025538       7.94549651       3.70937388       0.00403399       0.00343434       0.03207862
C        4.97827528      10.07678573       3.90646150       0.00067395      -0.01191159       0.01224917
Fe       2.93160866       5.03816071       3.98359810       0.00000110       0.01789491      -0.00410536
O        1.29634660       3.62891696       6.67142036      -0.05063697       0.02845879       0.01772205
O        2.53786264       2.90736208       7.23655576      -0.00380167      -0.08495416      -0.03557186
H        2.80456877       3.62681790       7.83984630       0.04699905       0.05670163       0.05201433
