51
Lattice="12.336457 0.0 0.0 -6.168228499999997 10.683685154694365 0.0 0.0 0.0 15.0" Properties=species:S:1:pos:R:3:initial_magmoms:R:1:forces:R:3 energy=-444.6501168233141 free_energy=-444.6501168233141 stress="-0.005525367321687335 -0.0001375217117985315 -2.629308841949148e-06 -0.0001375217117985315 -0.001993652105552486 8.189040606746409e-06 -2.629308841949148e-06 8.189040606746409e-06 -2.6026564157446725e-06" pbc="T T T"
C       -0.07259565      -0.08512245       3.77343733       0.00000000       0.00225708       0.00617392      -0.00244122
C       -1.32057625       2.04511577       3.94395273       0.00000000      -0.00060675       0.00304830      -0.00571619
C       -2.56816891       4.19249647       3.72431044       0.00000000       0.00375814      -0.00274500      -0.00598674
C       -3.78115861       6.33214637       3.54922171       0.00000000       0.00067001       0.00598887      -0.00112280
C       -4.99897085       8.47622144       3.58294760       0.00000000      -0.00754083       0.00151575      -0.00786565
C        2.40284316      -0.06941503       3.67875339       0.00000000       0.00659756      -0.00119524      -0.00323183
C        1.17620186       1.99801617       4.14015719       0.00000000      -0.00688668      -0.00839589       0.00184177
C       -0.16146006       4.22783556       4.00132392       0.00000000      -0.00892546      -0.00430810       0.00791374
C       -1.33193646       6.33242123       3.46818838       0.00000000      -0.00038033       0.00682010       0.01225755
C       -2.53894850       8.47363683       3.46181229       0.00000000      -0.00580518      -0.00223206       0.00056393
C        4.86017908      -0.07099393       3.53126988       0.00000000       0.00338695      -0.00715713       0.00032292
C        3.64917444       2.08472343       3.74091723       0.00000000      -0.00248455       0.00354557      -0.00790557
P        1.27497861       6.12718171       2.61765767       0.00000000      -0.01075075       0.00450026      -0.00179095
C       -0.07526426       8.47381025       3.30802254       0.00000000      -0.00009700       0.00243919       0.00339075
C        7.32885300      -0.08049240       3.53306960       0.00000000      -0.00038387      -0.00341554      -0.00207621
C        6.09685525       2.04997776       3.59903764       0.00000000       0.00915194      -0.00110694       0.00372598
C        4.88209234       4.16533341       3.58024126       0.00000000      -0.00078374       0.00666927      -0.00228311
C        3.65844203       6.32592129       3.44702764       0.00000000      -0.00315787      -0.00689368       0.00967303
C        2.40060527       8.48007733       3.37954837       0.00000000      -0.00213263      -0.00298373       0.00009611
C        9.79637978      -0.08384601       3.67802262       0.00000000      -0.00324739       0.01001521       0.00108070
C        8.55906629       2.05075755       3.70062689       0.00000000       0.00357413      -0.00024905      -0.00924896
C        7.32497590       4.19180445       3.60144133       0.00000000       0.00913693       0.00493038      -0.00684244
C        6.10259299       6.33434199       3.53737010       0.00000000       0.00258500      -0.00604558       0.00117989
C        4.86934733       8.46336281       3.56568441       0.00000000       0.00307818       0.00025672       0.00002463
C       -0.07524852       1.33225938       3.97238498       0.00000000      -0.00612664       0.00311422      -0.00645406
C       -1.35186576       3.47204702       3.92173767       0.00000000      -0.00102017      -0.00446206      -0.00157502
C       -2.56235077       5.61622942       3.58525454       0.00000000       0.00019733       0.00217909       0.00352922
C       -3.77283689       7.76042697       3.52230432       0.00000000      -0.00853135       0.00404600       0.00138526
C       -5.00162618       9.89849244       3.67420368       0.00000000       0.00415981       0.00144598       0.01426624
C        2.40855008       1.35361799       3.86344625       0.00000000      -0.00168790       0.00026335      -0.00895264
P        1.16353178       3.56828305       4.97398905       0.00000000      -0.00036439      -0.01115298      -0.00573539
C       -0.13600335       5.58042989       3.54655885       0.00000000      -0.00557941      -0.00368886       0.00912777
C       -1.31399412       7.75755508       3.36352759       0.00000000      -0.00034460       0.00737650       0.00810133
C       -2.54163242       9.90174263       3.53644120       0.00000000       0.00330535      -0.00725423       0.00288831
C        4.86233179       1.35704057       3.61445261       0.00000000       0.00554157      -0.00312590       0.01257022
N        3.69168543       3.46403622       3.69685779       0.00000000      -0.00805849       0.00589558       0.00588815
C        1.17435315       7.81277370       3.17121273       0.00000000      -0.00374845      -0.00153476       0.00051626
C       -0.07535733       9.89876717       3.44877358       0.00000000       0.00154312      -0.00297222      -0.00486341
C        7.32940277       1.34073502       3.61234394       0.00000000       0.00765585      -0.00504978      -0.00860179
C        6.09613362       3.46870725       3.58971039       0.00000000       0.00306284       0.00710465      -0.00718888
C        4.86990784       5.61466741       3.51565991       0.00000000       0.00220232       0.00122523      -0.00838237
C        3.63548004       7.73095027       3.44928709       0.00000000       0.00080097      -0.00472929      -0.00303223
C        2.39864368       9.89710309       3.53542698       0.00000000      -0.00260651       0.00038537       0.00676780
C        9.79390254       1.33717736       3.78287047       0.00000000      -0.00028120       0.00860931       0.00392657
C        8.55026257       3.47652614       3.67907825       0.00000000       0.00533023      -0.00165154       0.00314990
C        7.32612614       5.61615969       3.56549450       0.00000000       0.00567685       0.00308213       0.00035550
C        6.10360299       7.76145212       3.56495936       0.00000000      -0.00132951      -0.00808346       0.00025938
C        4.86440319       9.88640798       3.67367090       0.00000000       0.00040840       0.00792847      -0.00233350
Fe       2.53950807       4.84840825       3.85493590       0.00000000       0.00789888      -0.00947379      -0.00591569
O        3.78071493       6.70750478       9.12751560       1.00000000       0.00927520       0.00418455       0.01073338
O        4.75470306       7.03361558       9.81652940       1.00000000      -0.00839297      -0.00283717      -0.00598963
