51
Lattice="12.336457 0.0 0.0 -6.168228499999997 10.683685154694365 0.0 0.0 0.0 15.0" Properties=species:S:1:pos:R:3:initial_magmoms:R:1:forces:R:3 energy=-439.43686745598194 free_energy=-439.43686745598194 stress="-0.006376679208937541 -0.0027481824123658212 -3.006228892560737e-06 -0.0027481824123658212 -0.007911117777469322 -1.0425587264906795e-05 -3.006228892560737e-06 -1.0425587264906795e-05 1.1485531039974919e-05" pbc="T T T"
C       -0.02054361      -0.00353137       3.99001198       0.00000000       0.00745961       0.00738732       0.01436006
C       -1.25989179       2.14416555       3.84961556       0.00000000      -0.00215674       0.00736359       0.00558989
C       -2.47545576       4.29295962       4.01989604       0.00000000      -0.00410808      -0.00101317       0.00042456
C       -3.68420128       6.43195545       4.10837098       0.00000000      -0.00415675      -0.00081701      -0.00955460
C       -4.94169944       8.55407006       4.04185603       0.00000000       0.00158074      -0.00205231       0.00276694
C        2.45164924      -0.02798667       4.04268256       0.00000000       0.00743453      -0.00265708      -0.00333314
C        1.20361740       2.02626389       3.53231073       0.00000000      -0.00778451      -0.01028643       0.00188274
C       -0.11842651       4.32825600       3.44377084       0.00000000      -0.00148753      -0.00962365       0.00648443
C       -1.24558121       6.44154702       3.94530321       0.00000000      -0.00559077      -0.00408785      -0.00112925
C       -2.46533020       8.56033747       4.12306734       0.00000000      -0.00369804       0.00215617      -0.00174142
C        4.92628346       0.01275475       4.04020968       0.00000000       0.00197591      -0.00750489       0.00312188
C        3.64891931       2.08440141       3.91574271       0.00000000      -0.00524569      -0.01098275      -0.00638402
C        1.14691463       6.47471451       3.32485427       0.00000000       0.01349364      -0.00417153       0.00031816
C       -0.00220573       8.56394470       3.86721633       0.00000000      -0.00241999       0.00056105       0.00344294
C        7.38641852       0.02462645       3.95758973       0.00000000      -0.00082197       0.00124185       0.00185528
C        6.14708551       2.17264522       3.99353904       0.00000000       0.00197703       0.00398438       0.00374418
C        5.03295213       4.39430982       3.56991817       0.00000000      -0.00394132      -0.00054673      -0.00117719
S        3.95654683       6.64295842       2.19672960       0.00000000       0.00148523      -0.01148946       0.00772967
C        2.46684005       8.58918167       3.55156071       0.00000000      -0.00201059       0.00522780      -0.01146039
C        9.85018125       0.01656303       3.93942530       0.00000000      -0.00555701       0.00704503      -0.00042325
C        8.61868605       2.15742946       4.04207936       0.00000000       0.00863804       0.00142390       0.00026024
C        7.41392950       4.30269118       4.00371566       0.00000000       0.00727937       0.00183338      -0.01043724
C        6.25100915       6.46301441       3.64982430       0.00000000      -0.00775094      -0.00105503       0.01137416
C        4.94513194       8.57934005       3.71005845       0.00000000      -0.00187282       0.01450689       0.00862617
C       -0.03282441       1.41054662       3.80481238       0.00000000      -0.00703488       0.00428945       0.00041929
C       -1.26067518       3.57530169       3.79818148       0.00000000      -0.00994643       0.00003470      -0.00557905
C       -2.45994182       5.71531797       4.06895582       0.00000000      -0.00846101      -0.00245281      -0.00225632
C       -3.69578688       7.85064906       4.12122903       0.00000000      -0.00100970      -0.00184229      -0.00535608
C       -4.95382880       9.96942036       4.05844863       0.00000000       0.00928661       0.00043959      -0.01013970
C        2.43938682       1.37486972       3.82517912       0.00000000      -0.00497962      -0.00756302      -0.00160599
P        1.18325774       3.49430010       2.55108050       0.00000000      -0.00051074      -0.01132347       0.00163482
C       -0.04361972       5.75151081       3.57675209       0.00000000       0.00157536      -0.00745509      -0.00258281
C       -1.23019800       7.85689013       4.00879110       0.00000000      -0.00567328      -0.00091056       0.00624909
C       -2.47003352       9.97643935       4.09645476       0.00000000       0.00303169      -0.00129615       0.01238680
C        4.91021161       1.44743218       3.99386359       0.00000000      -0.00030469      -0.00932246      -0.00009976
P        3.39316888       3.81687164       3.92989951       0.00000000       0.00218115       0.00554641       0.00335642
C        1.22051559       7.84526766       3.56541837       0.00000000      -0.00040380       0.00091439      -0.00359616
C       -0.00810694       9.98844343       3.96593356       0.00000000       0.00135425      -0.00054731       0.00298807
C        7.37768481       1.45280742       4.02673883       0.00000000       0.00549875       0.00447311       0.00249270
C        6.17671140       3.60303910       3.88947184       0.00000000       0.00177105       0.00796444       0.00061483
C        5.14205112       5.73570099       3.19401902       0.00000000      -0.00125871      -0.00048020       0.00138565
C        3.72656528       7.98440452       3.28827123       0.00000000       0.00347905       0.00641961       0.00557522
C        2.45186770       9.99624147       3.84818351       0.00000000      -0.00479780       0.00170975       0.00094570
C        9.85137922       1.44351477       3.98343018       0.00000000       0.00458913       0.00279820      -0.00014195
C        8.63339080       3.58146216       4.06997774       0.00000000       0.00483425      -0.00179491      -0.01567097
C        7.43451409       5.72560979       3.96928271       0.00000000       0.00068859      -0.00003987      -0.01010217
C        6.18670416       7.86829526       3.78164895       0.00000000      -0.00341952       0.00305094       0.00192144
C        4.91719814       9.98588566       3.93423323       0.00000000       0.00126503       0.01745426       0.00823448
Fe       2.39846087       5.25105670       2.54075606       0.00000000       0.00846435       0.00842804      -0.00949735
O        2.12418514       4.00761700       6.09445005       1.00000000       0.00512333       0.00362534       0.00549066
O        3.34734585       4.27623535       5.54019798       1.00000000       0.00193621      -0.00856353      -0.01340764
