52
Lattice="12.336457 0.0 0.0 -6.168228499999997 10.683685154694365 0.0 0.0 0.0 15.0" Properties=species:S:1:pos:R:3:forces:R:3 energy=-448.04848982642613 free_energy=-448.04848982642613 stress="-0.004047632647117502 -0.0005892831632709529 2.0179305708410742e-05 -0.0005892831632709529 -0.002326232917143296 4.599613392144344e-06 2.0179305708410742e-05 4.599613392144344e-06 -1.9828316041434092e-06" pbc="T T T"
C        0.01167435       0.01857423       3.95823429      -0.00230347       0.00565488      -0.00883890
C       -1.23056529       2.13710099       3.98758868       0.00467045      -0.00021161      -0.00273281
C       -2.45821719       4.28375575       4.00387252      -0.00311064       0.00453630      -0.00533141
C       -3.67467067       6.42841054       3.99776259      -0.00247026       0.00305291      -0.00697841
C       -4.90840310       8.57565448       3.98707267       0.00010734      -0.00271698       0.00313223
C        2.47577170       0.03162914       3.85254678       0.00237316      -0.00228504       0.00496744
C        1.21593761       2.17989156       3.71420348       0.00371955       0.00660785      -0.01069104
C       -0.03167130       4.23263367       3.68667097      -0.00420516      -0.00500031      -0.00272558
C       -1.22359678       6.41670088       3.75235615      -0.00784454      -0.00447367       0.00147088
C       -2.44636237       8.56587297       3.88749325      -0.00369922      -0.00249875      -0.00538037
C        4.94327213       0.02043437       3.80677386       0.01024076       0.00483905       0.01016675
C        3.70481621       2.10288744       3.42323630      -0.00243233      -0.00244233      -0.00501081
P        1.23563192       6.42032864       2.51353775      -0.00100577      -0.00367564       0.00095029
C        0.00555138       8.57398800       3.68008723      -0.00220490       0.00337779      -0.01033229
C        7.41268466       0.01554120       3.87938471      -0.00010035      -0.00332013       0.00183596
C        6.18513501       2.15206227       3.74091889       0.00469652      -0.00392478       0.00640467
C        5.04633953       4.32822646       3.43043776       0.00285728       0.00496413       0.00416402
C        3.74827106       6.41624416       3.56573616      -0.00642307      -0.00345853      -0.00541058
C        2.48214064       8.56977667       3.68911150      -0.00064870       0.00246575       0.00243013
C        9.87894835       0.00565738       3.97465090      -0.01256046      -0.00818769      -0.00287650
C        8.64215195       2.14721650       4.00104988       0.00415328       0.00214123      -0.00418709
C        7.42854557       4.29307033       3.93293996      -0.00610673       0.00599080      -0.00319256
C        6.21010694       6.44556773       3.88569740       0.00859538       0.00168863       0.00611573
C        4.95103290       8.55227396       3.89343428       0.00404027      -0.00006208      -0.00275001
C        0.00622927       1.44577503       3.90640743       0.00724273       0.00699833      -0.00398350
C       -1.23618320       3.55127101       3.93750724      -0.00240306      -0.00176452       0.00041019
C       -2.45152272       5.70834582       3.95279061      -0.00686851       0.00419338       0.00331167
C       -3.67845169       7.85697954       3.97332914      -0.00388244      -0.00232392       0.00463516
C       -4.91702607       9.99892279       3.95015896      -0.00385861      -0.00096078      -0.00245015
C        2.46563020       1.45424188       3.65947871      -0.00048948       0.00249235       0.00280995
N        1.16526619       3.55062615       3.58708167      -0.00076420       0.00361556       0.00863416
C       -0.05165584       5.65716908       3.50114634      -0.00651135      -0.00495289       0.00834966
C       -1.22134060       7.85121528       3.75453146      -0.00594385      -0.00314434      -0.00862604
C       -2.45807169       9.99602572       3.85600943       0.00822098       0.00108532       0.00470620
C        4.94573058       1.44219205       3.66428756       0.00460778       0.00233411      -0.00615544
P        3.79922612       3.57030770       2.41785986       0.00906428      -0.00467727       0.00370788
C        1.24670134       7.92525404       3.44845032      -0.00042515       0.00414559      -0.00096209
C        0.00846963       9.99528267       3.81658225       0.00549049       0.00269607       0.00056903
C        7.40756073       1.44129705       3.90213111       0.00600257      -0.00456016      -0.00047736
C        6.20780056       3.57958259       3.71544534      -0.00210920      -0.00262432       0.00497217
C        4.98924394       5.75166604       3.63500842       0.00502209       0.00667917       0.00244569
C        3.71745307       7.81243156       3.71634658       0.00050676       0.00251249      -0.00464876
C        2.47910167       9.98328632       3.88357960      -0.01015217      -0.00311130      -0.00431739
C        9.87396175       1.42848128       4.02257576       0.00322487      -0.00732520       0.00580367
C        8.64625170       3.57355351       4.01645628      -0.00426870       0.00866879      -0.00389151
C        7.43076730       5.71889285       3.96502297       0.00458079       0.00495453       0.00116887
C        6.19460226       7.86255447       3.94936771       0.00621201      -0.00081382      -0.00159633
C        4.94691908       9.97690597       3.95986291      -0.00505869       0.00092104       0.01100332
Fe       2.46106542       4.91975476       3.48401946       0.00842390      -0.01271273       0.00643342
O        2.05512948       4.13534748       6.27392792       0.00040854       0.00239700      -0.00426485
O        2.27105379       5.00162893       7.30873846       0.00318736      -0.00213758       0.00617045
H        3.06986359       4.64748567       7.75640866      -0.00979809      -0.00564669       0.00104217
