51
Lattice="12.336457 0.0 0.0 -6.168228499999997 10.683685154694365 0.0 0.0 0.0 15.0" Properties=species:S:1:pos:R:3:initial_magmoms:R:1:forces:R:3 energy=-447.84070081631245 free_energy=-447.84070081631245 stress="-0.005019988203159545 0.0006494730283981869 3.107091763559571e-06 0.0006494730283981869 0.0008971218955459409 2.615437137042317e-06 3.107091763559571e-06 2.615437137042317e-06 5.824098850574709e-06" pbc="T T T"
C       -0.05672286      -0.06019325       3.63922998       0.00000000       0.00106426       0.00104696      -0.00414775
C       -1.29762645       2.05617023       3.78369721       0.00000000      -0.00293384       0.00418502      -0.00262531
C       -2.52698126       4.20126280       3.81182889       0.00000000      -0.00045834       0.00013498      -0.00767293
C       -3.75472617       6.34312528       3.68310631       0.00000000      -0.00153082       0.00072120      -0.00082310
C       -4.99858626       8.48324623       3.54835905       0.00000000       0.00513926      -0.00709458       0.00364679
C        2.40942191      -0.04291838       3.62045391       0.00000000       0.00372130      -0.00123220       0.00069739
C        1.17439203       2.11276404       3.67024046       0.00000000      -0.00411173      -0.00284964      -0.00300163
C       -0.06984876       4.20428048       3.77110364       0.00000000      -0.00456943      -0.00286021      -0.00154760
C       -1.30121997       6.35524746       3.75836182       0.00000000      -0.00707408      -0.00335003       0.00043238
C       -2.53168432       8.48924717       3.66586015       0.00000000       0.00416970       0.00134885       0.01072328
C        4.88092787      -0.06708735       3.64371367       0.00000000       0.00092201       0.00116606       0.00588172
C        3.65357080       2.11376772       3.52518533       0.00000000      -0.00055917      -0.00273359       0.00658101
N        1.11572772       6.32827785       3.58187980       0.00000000       0.00783438       0.00208020      -0.00280229
C       -0.05672770       8.45275381       3.64529973       0.00000000      -0.00327736       0.00403317      -0.00025411
C        7.34966254      -0.09427766       3.69051590       0.00000000      -0.00129477      -0.00540553       0.00580989
C        6.13147682       2.04510049       3.64658615       0.00000000       0.00526497       0.00093636       0.00186985
C        4.93123666       4.16454161       3.31236451       0.00000000      -0.00561618       0.00011774       0.00661983
S        3.67108915       6.33392096       2.22837620       0.00000000       0.00589519       0.00616719       0.00548188
C        2.40107481       8.44110945       3.45451122       0.00000000       0.00064984       0.00173128      -0.00382187
C        9.80887858      -0.09031103       3.67082153       0.00000000      -0.00308673       0.00000252       0.00329283
C        8.58356642       2.04966397       3.76941380       0.00000000       0.00375780      -0.00092619       0.00084420
C        7.36721186       4.19349355       3.65473323       0.00000000       0.00345483       0.00560524      -0.01196241
C        6.14340184       6.33639620       3.35395887       0.00000000       0.00290554       0.00377953      -0.00048012
C        4.87971739       8.47829802       3.37761918       0.00000000      -0.00513842      -0.00171559      -0.00605928
C       -0.06467247       1.36321138       3.71438758       0.00000000      -0.00416813       0.00276524       0.00247548
C       -1.30610485       3.48074998       3.82334699       0.00000000      -0.00390380       0.00010425      -0.00018922
C       -2.52783061       5.62902825       3.77433713       0.00000000      -0.00731921      -0.00237157      -0.01117212
C       -3.76197736       7.77113060       3.63356082       0.00000000       0.00715608      -0.00250047       0.00452463
C       -4.99145833       9.91606054       3.60052860       0.00000000       0.00352382      -0.00470346       0.00502254
C        2.41191925       1.38566599       3.60351833       0.00000000      -0.00151517      -0.00122684      -0.00217667
C        1.13540549       3.51526937       3.67225417       0.00000000      -0.00761038      -0.00496965      -0.00747234
C       -0.07773667       5.65503366       3.73529003       0.00000000      -0.00001959      -0.00069723       0.00172535
C       -1.30091321       7.77128539       3.69694663       0.00000000      -0.00241035      -0.00132421       0.00408375
C       -2.52802641       9.91575030       3.63715755       0.00000000       0.00399504       0.00093850      -0.00000381
C        4.89321700       1.35657093       3.60412688       0.00000000       0.00396812      -0.00052705      -0.00086730
C        3.69615207       3.50400721       3.35354920       0.00000000      -0.00712951      -0.00377498       0.00242467
C        1.15729772       7.70870754       3.54482276       0.00000000       0.00163902       0.00674537      -0.00299038
C       -0.05424278       9.88527002       3.66078364       0.00000000      -0.00298817       0.00154114      -0.00199515
C        7.35863589       1.32934269       3.72090042       0.00000000       0.00401299      -0.00450490       0.00063428
C        6.15643219       3.46174025       3.56431385       0.00000000       0.00141409       0.00341478      -0.00372625
C        4.99880577       5.57475131       3.07112029       0.00000000       0.00385332      -0.00022972       0.01195655
C        3.63544819       7.82439692       3.15845895       0.00000000      -0.00263945      -0.00995282       0.00263452
C        2.40851505       9.87141464       3.63503230       0.00000000      -0.00148242      -0.00207440      -0.00128688
C        9.80815371       1.33463410       3.76375882       0.00000000       0.00224921      -0.00036433       0.00224320
C        8.58769398       3.48040876       3.76994387       0.00000000       0.00215113       0.00159097       0.00198450
C        7.36598212       5.62060491       3.58859823       0.00000000       0.00195468       0.00562822      -0.01034503
C        6.11683017       7.76741252       3.39239746       0.00000000      -0.00180682       0.00150056      -0.00356495
C        4.87844469       9.89928657       3.58444406       0.00000000      -0.00273625      -0.00052678       0.00182592
Fe       2.35917731       4.91630332       3.32402178       0.00000000       0.00468353       0.01063063      -0.00242793
O        3.33353702       6.37215574       9.29856397       1.00000000      -0.00534003      -0.00392230      -0.00609997
O        4.06669128       6.91066391      10.13605356       1.00000000       0.00534003       0.00392230       0.00609997
