51
Lattice="12.336457 0.0 0.0 -6.168228499999997 10.683685154694365 0.0 0.0 0.0 15.0" Properties=species:S:1:pos:R:3:initial_magmoms:R:1:forces:R:3 energy=-445.3241530351538 free_energy=-445.3241530351538 stress="-0.004338535787750491 -0.002798037600158438 -5.107905060617029e-05 -0.002798037600158438 -0.0008267022275208376 -4.482578900239037e-05 -5.107905060617029e-05 -4.482578900239037e-05 1.0101951123989637e-06" pbc="T T T"
C        0.04658440      -0.09856716       3.65887972       0.00000000      -0.01101017       0.00037861      -0.00294772
C       -1.21090231       2.01502100       3.61659781       0.00000000       0.00985110      -0.01964155       0.01847351
C       -2.44016993       4.15760812       3.59801764       0.00000000       0.01227047      -0.00208670       0.02119047
C       -3.64727490       6.30672745       3.64687727       0.00000000       0.00391900      -0.01973492      -0.02291412
C       -4.87589878       8.45371303       3.66251916       0.00000000      -0.00737735      -0.01070638       0.02730793
C        2.52040754      -0.10337583       3.68743350       0.00000000      -0.00824217      -0.02924200       0.02381040
C        1.26752355       2.04847312       3.72134443       0.00000000       0.01223828       0.01768685      -0.00626215
C        0.02331492       4.14319717       3.54916223       0.00000000      -0.00441385       0.00790451       0.00097521
C       -1.20509491       6.30709366       3.53148142       0.00000000       0.00293387       0.01483321       0.00759926
C       -2.41240294       8.44440203       3.60792202       0.00000000      -0.01055839      -0.00753249      -0.01219901
C        4.99275295      -0.12102262       3.75862399       0.00000000       0.01077657       0.01502743      -0.00921137
C        3.73377892       1.97204216       4.09231938       0.00000000      -0.00122235      -0.00873138       0.01186891
C        1.24414562       6.26915341       3.48467364       0.00000000       0.00458001      -0.01085975       0.02361267
C        0.06375234       8.41116804       3.59732257       0.00000000      -0.01369566       0.00893558       0.01090696
C        7.45434244      -0.12985687       3.74054763       0.00000000      -0.00772937      -0.01997181      -0.00357088
C        6.20953317       2.03242123       3.92863323       0.00000000       0.01726391      -0.00930286       0.00206085
C        5.02058951       4.24901322       4.17775911       0.00000000      -0.00410625      -0.00072575       0.01207328
O        3.87290065       6.39155124       4.12843243       0.00000000      -0.03816425       0.01361565      -0.00350750
C        2.54518563       8.38435821       3.71754624       0.00000000       0.00404064       0.01967575      -0.01351990
C        9.90754541      -0.12775293       3.70219847       0.00000000      -0.00856917      -0.00312105       0.00154601
C        8.66825147       2.01767157       3.72078492       0.00000000      -0.02180965       0.01154695      -0.00690194
C        7.44507983       4.17172026       3.79613173       0.00000000      -0.02260926      -0.00045926       0.00715726
C        6.25441448       6.34052389       3.86798438       0.00000000       0.02544049      -0.00480531      -0.00119835
C        5.00282253       8.44858721       3.76554817       0.00000000       0.03348501       0.01029680      -0.01204185
C        0.03077296       1.32242598       3.64661659       0.00000000       0.01917120      -0.00070242      -0.00644208
C       -1.21513568       3.43486866       3.57011283       0.00000000       0.00421795      -0.02072914       0.01788712
C       -2.42861494       5.58669120       3.57814670       0.00000000       0.01297872      -0.00063675       0.00262357
C       -3.64110230       7.73503904       3.63275448       0.00000000      -0.01115534      -0.02415274      -0.02528825
C       -4.88004545       9.87733313       3.64762252       0.00000000      -0.02149249      -0.01924849       0.00822910
C        2.50767547       1.31234277       3.82732823       0.00000000       0.00403203      -0.01432976      -0.02219416
C        1.23915213       3.44902280       3.66774251       0.00000000      -0.00883485       0.02834576      -0.00255894
C        0.02792209       5.59424979       3.51119356       0.00000000      -0.00556787      -0.00319883      -0.02004519
C       -1.18093511       7.72695420       3.56359084       0.00000000      -0.00312964       0.01000044       0.00213480
C       -2.41174408       9.86486368       3.67767518       0.00000000       0.01013733      -0.00123527      -0.00773602
C        4.98555751       1.30197775       3.94113127       0.00000000       0.01506052       0.00829932      -0.00363872
P        3.65703247       3.46444817       5.04156341       0.00000000       0.00721867       0.01047074       0.01834908
C        1.30223179       7.64373271       3.59787567       0.00000000      -0.00978078       0.00859901       0.01377197
C        0.05775688       9.83657185       3.69812513       0.00000000      -0.00847567       0.00015128      -0.00223064
C        7.43787449       1.30518775       3.79690028       0.00000000      -0.00100591      -0.02226549       0.01297815
C        6.21295252       3.47013278       3.97162481       0.00000000      -0.00384813      -0.01234142      -0.00066316
C        5.07291785       5.66049929       4.09919320       0.00000000       0.01461743       0.00098117      -0.03799994
C        3.79588581       7.75531987       3.82838460       0.00000000       0.01219609       0.03223517       0.00816790
C        2.51993360       9.82417004       3.72119282       0.00000000      -0.00725045      -0.00067572      -0.01660199
C        9.89524008       1.30034337       3.67137944       0.00000000      -0.01419979      -0.00072022      -0.01030690
C        8.66885725       3.44763267       3.69595318       0.00000000      -0.01776975       0.01998122      -0.00421738
C        7.46825852       5.59533919       3.76138121       0.00000000       0.00025969      -0.01152223      -0.00376970
C        6.24267027       7.75332549       3.76035738       0.00000000       0.01775409      -0.00680460       0.00443466
C        4.98287206       9.86853075       3.69530100       0.00000000      -0.00230493       0.00334240      -0.00249739
Fe       2.59497080       4.78852120       3.59137333       0.00000000      -0.01713202       0.01702907       0.00653175
O       -0.10580727       7.43745998       6.39931658       1.00000000       0.30904136      -0.01633106      -0.01393903
O        1.12308864       7.50499909       6.44826597       1.00000000      -0.27202892       0.04247842       0.01071347
