52
Lattice="12.336457 0.0 0.0 -6.168228499999997 10.683685154694365 0.0 0.0 0.0 15.0" Properties=species:S:1:pos:R:3:forces:R:3 energy=-448.1000094005466 free_energy=-448.1000094005466 stress="-0.005259159142484559 0.0003631552423811217 -7.879417847059264e-06 0.0003631552423811217 -0.0018956220541555594 3.3472437106670975e-05 -7.879417847059264e-06 3.3472437106670975e-05 6.302709087874536e-06" pbc="T T T"
C       -0.00673550      -0.00706892       3.89578154      -0.00484223      -0.00315410      -0.00855260
C       -1.25074220       2.12495720       4.05442469       0.00158111       0.00097038      -0.00055106
C       -2.49756631       4.27230741       3.85331515      -0.00336553      -0.00804307      -0.01402861
C       -3.71570998       6.41142463       3.69090943       0.00604091      -0.00633101       0.00845837
C       -4.93617991       8.55349732       3.71646231       0.00795061       0.00686428       0.00383268
C        2.46855302       0.00827552       3.80249879      -0.00131165       0.00795728      -0.00102872
C        1.24424632       2.08141633       4.23955628       0.00086366       0.00399000      -0.00900771
C       -0.08253753       4.30456300       4.09106894      -0.00877933       0.00245966      -0.00275393
C       -1.26617490       6.41375296       3.60204474      -0.00697611       0.00329241      -0.00902391
C       -2.47491778       8.55269473       3.60420943      -0.00063887      -0.00403659      -0.00322793
C        4.92726168       0.00743821       3.66829378      -0.00834957      -0.00346120      -0.00306066
C        3.71668862       2.16125300       3.84411685      -0.00147772       0.00232980       0.00392811
P        1.30254441       6.23192082       2.66503156       0.01159337       0.00163177       0.00884151
C       -0.01281705       8.55570329       3.43782295       0.00553987       0.00416756       0.00321366
C        7.39662943      -0.00295734       3.66257329       0.00804007       0.00211483       0.00578711
C        6.16666394       2.12759071       3.72974788      -0.00352513       0.00611533      -0.00529735
C        4.95029120       4.24214559       3.69467460      -0.00021902      -0.00968168       0.00149853
C        3.72027250       6.39415369       3.55870693       0.00369085       0.00782003       0.00631944
C        2.46441470       8.55533582       3.49808090      -0.00326438      -0.00551831      -0.00410556
C        9.86283845      -0.00662915       3.80208218       0.00080962       0.00042989      -0.00264431
C        8.62890422       2.12959743       3.82331275      -0.00459541       0.00171553       0.00216655
C        7.39343517       4.27016025       3.73509351       0.00949841       0.00324086       0.00563520
C        6.16760735       6.41129249       3.67435612       0.00158599      -0.00319765      -0.00974887
C        4.93159248       8.53790296       3.69227508      -0.00217738      -0.00427067       0.00247956
C       -0.00703458       1.41230836       4.08235666      -0.00015182      -0.00153360       0.00200937
C       -1.27816929       3.55161044       4.03089822      -0.00689186       0.00053000       0.00408174
C       -2.49529277       5.69687444       3.72482906      -0.00026369      -0.00914931       0.00076657
C       -3.70932728       7.83917725       3.66263962       0.00345403      -0.00329266       0.00591431
C       -4.93662245       9.97569745       3.80245217      -0.00044266       0.01038248       0.00380286
C        2.47484700       1.43268782       3.96822813       0.00561899       0.00487631       0.01076873
P        1.24831390       3.65859995       5.07257319       0.00676306      -0.00385718       0.00060024
C       -0.06774649       5.66213056       3.64301649      -0.01207871       0.00340311      -0.00445816
C       -1.25028520       7.83848274       3.50262160       0.00299818       0.00423799      -0.00664740
C       -2.47527725       9.98024737       3.67273691      -0.00964444      -0.00508533      -0.00131665
C        4.93162339       1.43492130       3.74360896      -0.00455349      -0.00025942      -0.00408898
N        3.75854796       3.53924101       3.77512807      -0.00530267       0.00159842       0.00153548
C        1.23461305       7.89722502       3.27824721      -0.00152333      -0.00838288       0.00204152
C       -0.00924725       9.97799818       3.58496852       0.00461186       0.00768861      -0.00687777
C        7.39908330       1.41846496       3.73959012      -0.00412944       0.00538722       0.00379673
C        6.16511897       3.54623617       3.71859996       0.00935176       0.00396139       0.00407647
C        4.93469484       5.69126924       3.63894502      -0.00368922      -0.00685337      -0.00348327
C        3.69738959       7.80092907       3.56985777      -0.00372857       0.00585763      -0.00977506
C        2.46514592       9.97283811       3.66225359       0.00451156      -0.00619984      -0.00071859
C        9.86283101       1.41582091       3.90159034      -0.00151463       0.00139012       0.00830272
C        8.62034195       3.55589012       3.80856281      -0.00143949      -0.00347636       0.00342938
C        7.39203042       5.69444161       3.70514141       0.00858875       0.00022940      -0.00260256
C        6.16617449       7.83790394       3.69717155       0.00607656       0.00025465       0.00861369
C        4.92955899       9.96256396       3.79860081      -0.00286122      -0.00765558      -0.00433572
Fe       2.57003298       4.90012590       3.85021400      -0.01081843       0.01340514       0.01011715
O        2.86049687       5.14414017       7.26237545       0.01469030      -0.00907067      -0.01002854
O        2.51725223       4.82952363       8.54543621      -0.00454616       0.00707260      -0.00108280
H        3.35776387       4.86328450       9.05367877      -0.00075736      -0.01286420       0.00642905
