53
Lattice="12.336457 0.0 0.0 -6.168228499999997 10.683685154694365 0.0 0.0 0.0 15.0" Properties=species:S:1:pos:R:3:forces:R:3 energy=-461.290526543799 free_energy=-461.290526543799 stress="-0.0028361309863565143 0.0022978984760662884 -7.174249834340202e-06 0.0022978984760662884 -0.005577448270905169 -4.9532850484517875e-06 -7.174249834340202e-06 -4.9532850484517875e-06 2.9294282195432784e-05" pbc="T T T"
C       -0.02176321      -0.01704876       3.82412555       0.00019635      -0.00233492       0.00453397
C       -1.24418026       2.12628434       3.90782033       0.00457588       0.01202785       0.00058206
C       -2.47589425       4.25992520       3.90480183       0.00487978       0.00528560       0.00131432
C       -3.72145449       6.39074867       3.82133884      -0.00198189      -0.00259000       0.00421711
C       -4.97068705       8.52018403       3.75583528       0.00172546      -0.00468649       0.00613807
C        2.43942353      -0.03100723       3.84122228      -0.00053384       0.00528722       0.00937894
C        1.22273482       2.11339823       3.91447526      -0.00176411       0.00310193       0.00152250
C       -0.00210349       4.26575294       3.99220106       0.01115140       0.00242425      -0.00220987
C       -1.25427397       6.40291988       3.92464338       0.00368016       0.00313235      -0.00057170
C       -2.50286765       8.52927701       3.85030600       0.00027351      -0.00517613      -0.00358376
C        4.90963458      -0.02025776       3.80575033      -0.00583991      -0.00369522      -0.00565666
C        3.68070999       2.09426540       3.78248542       0.00677374      -0.00136910      -0.00222488
C        2.48156875       4.21300434       3.93402818       0.00590233       0.00809504      -0.00098135
C        1.19470953       6.44216790       3.94164510       0.00120844       0.00260774       0.00430674
C       -0.04194871       8.54208429       3.80192382       0.00459112      -0.00203121      -0.00230705
C        7.37584035      -0.00575365       3.76823595      -0.01106024      -0.00201352       0.00865264
C        6.15521136       2.10772474       3.75266317      -0.00166406       0.00122492       0.01741472
C        4.93712258       4.21673423       3.54128058      -0.00844713       0.00368551       0.00029941
S        3.74609057       6.43742244       2.21230449      -0.00361146       0.00089288       0.01795424
C        2.42466064       8.56830819       3.56506102       0.00216695      -0.00620221      -0.01072657
C        9.85304888      -0.00196427       3.76156773      -0.00211291       0.00117699       0.00017083
C        8.62440026       2.12446493       3.83014404      -0.00129799      -0.00343464      -0.00545703
C        7.39787591       4.25128883       3.74145165      -0.00457556      -0.00134930       0.01295471
C        6.15322050       6.38848587       3.55590925      -0.00549289       0.00233544       0.00174049
C        4.91334963       8.53640362       3.56577631      -0.00436213      -0.01140475       0.00280805
C       -0.01547087       1.40774741       3.89484394      -0.00229383       0.00195434       0.00531715
C       -1.23859816       3.55181757       3.95174420       0.00826009       0.01033661      -0.01072928
C       -2.48441631       5.68333062       3.89702639       0.00242643       0.00663561      -0.00319578
C       -3.73277360       7.81304328       3.81625494      -0.00091834      -0.00509086       0.00106346
C       -4.96412986       9.94573773       3.81376832       0.00250208      -0.00086378       0.00206379
C        2.44475953       1.39216200       3.85556378       0.00102986       0.00778547      -0.00669013
C        1.24003908       3.54844187       3.96499756       0.00795805       0.00316850      -0.00491291
C       -0.00220970       5.70032759       3.97186257       0.00414277       0.00078401      -0.00664794
C       -1.26781393       7.82215733       3.87064640       0.00505529      -0.00001794      -0.01078711
C       -2.49556944       9.94906714       3.83287070      -0.00482979      -0.00400457      -0.00422473
C        4.91957401       1.39577659       3.77161819       0.00473647      -0.00562741      -0.00027358
C        3.68848651       3.51237559       3.71624227      -0.00003883      -0.00184753      -0.00337122
C        1.19004384       7.83923620       3.73570538       0.00556004      -0.00030996      -0.00064369
C       -0.02695369       9.96421460       3.78543912      -0.00746234      -0.00364448      -0.00229824
C        7.38708556       1.41007879       3.79055784      -0.00604578      -0.00222280       0.00421698
C        6.16742263       3.52917253       3.67711379      -0.00838627       0.00271771       0.00045354
C        4.96455406       5.63618080       3.28495029      -0.00612752       0.00714544      -0.00196872
C        3.66633268       7.88428827       3.29796008      -0.00191022      -0.01680458      -0.00585508
C        2.44458414       9.97719510       3.70072829      -0.00624400      -0.00416201       0.00152994
C        9.85814523       1.41711776       3.84730700       0.00519559       0.00513688      -0.00746104
C        8.62920543       3.54652818       3.83687089       0.00414352      -0.00226918       0.00008728
C        7.38260966       5.67768876       3.72183727      -0.00407907      -0.00033299       0.00281173
C        6.13238307       7.80825179       3.60820141      -0.00082249      -0.00182659      -0.00017439
C        4.91246701       9.95575228       3.73583859      -0.00206384      -0.00819135      -0.00402717
Fe       2.94824967       5.96591394       4.29476905       0.01151623       0.00445616       0.00140180
O        3.72141461       6.43563510       5.99996956      -0.00652354       0.00409941       0.00432996
O        2.88259006       5.98706033       7.10351170       0.00747247       0.01267145      -0.00352183
H        3.56985622       5.93238257       7.79216957      -0.00663406      -0.01466580      -0.00676273
