51
Lattice="12.336457 0.0 0.0 -6.168228499999997 10.683685154694365 0.0 0.0 0.0 15.0" Properties=species:S:1:pos:R:3:initial_magmoms:R:1:forces:R:3 energy=-444.40875557551306 free_energy=-444.40875557551306 stress="-0.006087903011964918 -0.0005241188021699149 -1.0046743627573326e-06 -0.0005241188021699149 -0.0015476149071515317 -6.205554739138949e-06 -1.0046743627573326e-06 -6.205554739138949e-06 5.0312547424397955e-06" pbc="T T T"
C       -0.00913229      -0.10739768       3.54775607       0.00000000      -0.00211531      -0.00418566       0.00196227
C       -1.25772479       2.02146052       3.64607157       0.00000000      -0.00261857       0.00081915       0.00268653
C       -2.49646642       4.16439024       3.34455740       0.00000000       0.00357282      -0.00501342      -0.00274036
C       -3.71430241       6.31080842       3.18976626       0.00000000       0.00298515      -0.00153654      -0.00150527
C       -4.93806042       8.45895361       3.29792734       0.00000000      -0.00015627       0.00228400      -0.00246463
C        2.46054459      -0.10794699       3.59175728       0.00000000       0.00396492       0.00043153       0.00574998
C        1.20532458       1.94569930       4.10611526       0.00000000      -0.00212571      -0.00359885      -0.00147185
C       -0.12593086       4.21651201       3.85063819       0.00000000      -0.00050515       0.00649743       0.00026398
C       -1.27825084       6.32291500       3.32671232       0.00000000      -0.00614029       0.00031161       0.00017842
C       -2.48308230       8.45743812       3.29162282       0.00000000      -0.00351272       0.00101278      -0.00707429
C        4.93113559      -0.11590818       3.54390969       0.00000000      -0.00286201       0.00714866      -0.00998831
C        3.71987059       1.93603481       4.13087996       0.00000000      -0.00070043       0.00741000      -0.00696877
C        1.14300071       6.31160293       3.77720700       0.00000000       0.00357670      -0.00813811       0.01208999
C       -0.01182217       8.42880599       3.43403378       0.00000000      -0.00017481       0.00061488      -0.00796466
C        7.39840709      -0.12653993       3.49353811       0.00000000       0.00081828       0.00217919      -0.00584802
C        6.16847334       2.02219056       3.64299651       0.00000000       0.00280501      -0.00193117       0.00382635
C        5.02753252       4.23266374       3.89213514       0.00000000      -0.00133777      -0.00160107      -0.00072984
N        3.81321323       6.34280098       3.80407147       0.00000000       0.01194201       0.00359588      -0.01284557
C        2.47656178       8.40430956       3.56515029       0.00000000      -0.00769461      -0.00231618       0.00077565
C        9.85851047      -0.12236111       3.49767425       0.00000000       0.00251625      -0.00511798      -0.00531694
C        8.62292308       2.01976440       3.43309032       0.00000000       0.00064765       0.00043178       0.00158405
C        7.39554804       4.16698459       3.34155103       0.00000000       0.00121874       0.00302459       0.01340234
C        6.18254369       6.32940526       3.35569937       0.00000000       0.00812641       0.00197980       0.01318586
C        4.93924957       8.43638544       3.44778003       0.00000000      -0.00159800      -0.00785920       0.01013644
C       -0.01832548       1.30705436       3.77085898       0.00000000      -0.00354663      -0.00102761      -0.01203665
C       -1.28194386       3.45187234       3.59967671       0.00000000       0.00300945       0.00167555       0.00341793
C       -2.49352146       5.59221441       3.24895920       0.00000000      -0.00063499      -0.00697014      -0.00557123
C       -3.71014164       7.74195040       3.22487847       0.00000000      -0.00128831      -0.00168336       0.00477673
C       -4.93967326       9.87615159       3.46002758       0.00000000       0.00299992       0.00266226      -0.00345002
C        2.46233075       1.27786581       3.96342111       0.00000000       0.00185482       0.00170304      -0.00487145
P        1.09375369       3.52670718       4.92045615       0.00000000       0.00506182      -0.00520906      -0.00578663
C       -0.07237967       5.63012652       3.62199258       0.00000000      -0.00652452       0.00558358       0.00444459
C       -1.25331957       7.74215215       3.31412371       0.00000000      -0.00362101       0.00270864       0.00131485
C       -2.47711721       9.87185062       3.45548561       0.00000000       0.00039417      -0.00047489       0.00683599
C        4.93794063       1.29860463       3.77319412       0.00000000      -0.00069905       0.00388643       0.00045290
P        3.87400313       3.48295183       5.02663445       0.00000000       0.00080660       0.00254462       0.00153884
C        1.22431424       7.68291887       3.57987826       0.00000000      -0.00381783      -0.00508875       0.01373141
C       -0.00515578       9.85001044       3.47123509       0.00000000      -0.00212776       0.00481860      -0.00226489
C        7.39067549       1.30518123       3.50046159       0.00000000       0.00339049      -0.00016115       0.00126127
C        6.18033254       3.45970954       3.60511989       0.00000000       0.00030681      -0.00168163       0.00395074
C        5.00208413       5.65200818       3.67006651       0.00000000       0.00399280      -0.00236591      -0.01721351
C        3.72867510       7.70339382       3.59768347       0.00000000      -0.00456727       0.00030686      -0.00525781
C        2.46453100       9.83279653       3.49771144       0.00000000      -0.00079897      -0.00170868       0.01259952
C        9.85693827       1.30743323       3.50439983       0.00000000      -0.00022976      -0.00103262      -0.00100304
C        8.61882307       3.44698494       3.33566936       0.00000000      -0.00010265       0.00103847       0.00419553
C        7.40009652       5.59282849       3.25395167       0.00000000       0.00331001       0.00214073       0.00616260
C        6.17101685       7.74669644       3.33370492       0.00000000       0.00040598      -0.00108600      -0.00086471
C        4.92746945       9.86068336       3.47923100       0.00000000      -0.00032815      -0.00963845      -0.00357558
Fe       2.55835270       5.10139426       4.21676353       0.00000000      -0.00787015       0.01140037      -0.00701187
O        2.55089112       7.11647762       9.59216628       1.00000000       0.00135380       0.00825258       0.00897687
O        2.73700034       8.07282107      10.35403837       1.00000000      -0.00136193      -0.00703657      -0.00567572
