52
Lattice="12.336457 0.0 0.0 -6.168228499999997 10.683685154694365 0.0 0.0 0.0 15.0" Properties=species:S:1:pos:R:3:forces:R:3 energy=-444.283501469543 free_energy=-444.283501469543 stress="-0.007392494547769341 -0.0015480466574316878 2.4144828266686642e-05 -0.0015480466574316878 -0.008617459096829974 -3.986975630561499e-06 2.4144828266686642e-05 -3.986975630561499e-06 8.056524171430458e-06" pbc="T T T"
C       -0.03551804       0.03899415       3.99327102      -0.00015031       0.00571969       0.00413894
C       -1.26952544       2.18959482       3.88682074       0.00203886       0.00639693       0.00610846
C       -2.49965856       4.33703755       3.97059624      -0.00024466      -0.00359692       0.00614497
C       -3.71543597       6.47264452       3.98603321      -0.00161222      -0.00252498       0.00431760
C       -4.96574783       8.59282920       3.94506635       0.00069354       0.00205976       0.00550400
C        2.43406135       0.00945952       4.15016718       0.00564341      -0.00180441       0.00109952
C        1.21222102       2.10511537       3.81610210       0.00731252      -0.00273936      -0.00533933
C       -0.10999430       4.37186955       3.59105526      -0.00215033      -0.00514131      -0.00219999
C       -1.27419492       6.48797919       3.92859937       0.00014756      -0.00306804       0.00328839
C       -2.49207268       8.59854480       4.08897372       0.00187400       0.00304740      -0.00013412
C        4.91388347       0.04446290       4.13574981       0.00038520      -0.00215842       0.00477301
C        3.65094036       2.11540374       4.26155008      -0.00127538      -0.00716632      -0.00536080
C        1.15589041       6.50323450       3.47294031       0.00244462      -0.00273588      -0.01541121
C       -0.02210928       8.60598432       3.88618280       0.00079580       0.00211166       0.00082329
C        7.37206017       0.06531139       3.97475334      -0.00215103      -0.00581169       0.00225941
C        6.13771212       2.20853783       4.07828338      -0.00390681      -0.00447924       0.00451935
C        4.98815494       4.41785044       3.68204077      -0.00124772       0.00326184       0.00282744
S        3.88331123       6.64388158       2.18503054       0.00982471       0.00697553      -0.00502360
C        2.44595218       8.63685242       3.54399442      -0.00048982      -0.00006560      -0.00326981
C        9.83616757       0.06255566       3.89836252      -0.00052515       0.00338789       0.00082844
C        8.60441654       2.19978777       4.00949256      -0.00387529       0.00160262       0.00726632
C        7.39273781       4.34127140       3.92960793      -0.00199266       0.00095082      -0.00869144
C        6.20837779       6.49565138       3.56206141      -0.00085020       0.00112528       0.01211409
C        4.92566390       8.62869139       3.61563953      -0.00421547      -0.00783391       0.01134034
C       -0.03970465       1.46252722       3.91410657       0.00309045       0.00769435      -0.00687001
C       -1.27535211       3.61848853       3.83944151      -0.00171062      -0.00102966      -0.00140276
C       -2.49096655       5.75939245       3.99525386      -0.00166645      -0.00407556      -0.00351087
C       -3.72318756       7.88972142       4.02336182       0.00160495      -0.00010767      -0.00303496
C       -4.97180929      10.00604829       4.05042060       0.00245508       0.00533947       0.00325814
C        2.43395090       1.42553826       4.10404601       0.00525250      -0.00626325      -0.00588213
P        1.27913801       3.57128884       2.85195769       0.00186691       0.00432239       0.00673056
C       -0.05455391       5.79723909       3.67468458       0.00059332      -0.00686421      -0.00396176
C       -1.25636721       7.90119174       3.99037244       0.00103322       0.00089020       0.00405736
C       -2.48815897      10.01045056       4.15492651       0.00378129       0.00145824      -0.00710872
C        4.90416086       1.47921044       4.17752779      -0.00261818      -0.00658341      -0.00016802
P        3.47419107       3.85156327       4.48184678      -0.00316802       0.00393993      -0.00172272
C        1.20535812       7.88747104       3.61436953       0.00056323       0.00019229      -0.00451862
C       -0.02314087      10.02637971       4.00598514      -0.00279719       0.00026737      -0.00375821
C        7.36582470       1.49262914       4.04302523      -0.00463906      -0.00524471      -0.00552433
C        6.15578956       3.63502227       3.91716882      -0.00296862      -0.00176446      -0.00674936
C        5.07199402       5.75215854       3.20856547       0.00179909       0.00590033       0.00728333
C        3.69559013       8.02854709       3.24420241      -0.00212851      -0.00597714       0.00227484
C        2.43567660      10.04343247       3.82717187      -0.00035234      -0.00021981      -0.00503526
C        9.83736814       1.48719802       3.95925660       0.00084568       0.00610425       0.01045703
C        8.61244503       3.62395159       4.00366846      -0.00174837       0.00161990      -0.00890328
C        7.40519173       5.76376798       3.85175787      -0.00353182       0.00093943       0.01306139
C        6.16127775       7.90832063       3.67153425      -0.00032917       0.00002041       0.00669099
C        4.90307586      10.03174427       3.87238958      -0.00120486      -0.00167089       0.00167015
Fe       2.54862412       5.26941779       3.07423507       0.00824817       0.00451274      -0.01414267
O        3.66273498       4.23672238       6.03709259      -0.00473334      -0.00133847       0.00080035
O        2.69044511       3.42789857       6.93914125      -0.00428142       0.01295477      -0.00058152
H        3.07839702       3.72546701       7.78638772       0.00027092      -0.00253014      -0.00533223
