52
Lattice="12.336457 0.0 0.0 -6.168228499999997 10.683685154694365 0.0 0.0 0.0 15.0" Properties=species:S:1:pos:R:3:initial_magmoms:R:1:forces:R:3 energy=-462.35958000881556 free_energy=-462.35958000881556 stress="-0.003275684460460214 -2.922101862312499e-05 -1.2505304238174917e-06 -2.922101862312499e-05 -0.003164040597606819 9.532584959148168e-06 -1.2505304238174917e-06 9.532584959148168e-06 1.072093576709403e-06" pbc="T T T"
C        0.06634350      -0.14791059       3.47499994       0.00000000      -0.00497336      -0.00153257      -0.00792589
C       -1.16572250       1.99120186       3.55292085       0.00000000       0.00133886       0.00454540      -0.00602220
C       -2.39840716       4.12751284       3.55162885       0.00000000      -0.00981224       0.00074405      -0.00469639
C       -3.63302891       6.26171548       3.47826170       0.00000000      -0.00532397       0.00573714       0.00068117
C       -4.86759869       8.39751299       3.44274443       0.00000000      -0.00158600       0.00740474       0.00542265
C        2.53491048      -0.15491370       3.46496604       0.00000000      -0.00667390      -0.00013993       0.00307368
C        1.30054120       1.97217077       3.61265221       0.00000000      -0.00022262      -0.00694594      -0.00423234
C        0.06539027       4.14213632       3.74485460       0.00000000      -0.00109519       0.00147746      -0.00882905
C       -1.17199598       6.27050623       3.57287759       0.00000000      -0.00297505      -0.00190035       0.00345899
C       -2.39938450       8.39746137       3.44634428       0.00000000       0.00156229       0.00366422       0.00570901
C        5.00316511      -0.14829598       3.47286900       0.00000000      -0.00251318       0.00331909      -0.01221039
C        3.76818452       1.97249775       3.60417705       0.00000000       0.00308163      -0.00495799      -0.00408625
C        2.53581685       4.00162948       4.04647376       0.00000000      -0.00302086       0.00626585       0.00436067
N        1.18586126       6.33291254       3.95788127       0.00000000       0.00413236      -0.00039565      -0.00078962
C        0.06318530       8.39932721       3.54160914       0.00000000       0.00105748       0.00305611       0.01391172
C        7.46936146      -0.14941273       3.50507293       0.00000000       0.00228796      -0.00023726       0.01213765
C        6.23360258       1.99151966       3.53782238       0.00000000       0.00926558       0.00669239      -0.00025199
C        5.00425881       4.14279973       3.73362750       0.00000000      -0.00055844      -0.00283804       0.00016285
N        3.88460288       6.33314031       3.96016442       0.00000000       0.00100511       0.00302674      -0.00796895
C        2.53478288       8.38460553       3.67430408       0.00000000      -0.00145155      -0.00521349      -0.01183022
C        9.93591176      -0.14885591       3.50927185       0.00000000       0.00102472      -0.00875137       0.00509497
C        8.70194757       1.99115591       3.51470928       0.00000000       0.00846965      -0.00723759      -0.00288281
C        7.46806707       4.12783301       3.54150822       0.00000000       0.00128641      -0.00020775      -0.00089545
C        6.24176729       6.27066756       3.56770232       0.00000000       0.00298479       0.00310444       0.00640506
C        5.00592986       8.39964442       3.53938072       0.00000000       0.00412011       0.00189799       0.01896284
C        0.06609724       1.27443621       3.53619353       0.00000000      -0.00321459      -0.00307155      -0.00661304
C       -1.15873039       3.42317778       3.60915529       0.00000000      -0.00412824       0.00875167      -0.01244212
C       -2.40101578       5.54948801       3.52566769       0.00000000      -0.00770219       0.00104645      -0.01419623
C       -3.63340141       7.68453137       3.44436373       0.00000000      -0.00040220       0.00723806      -0.00500797
C       -4.86785267       9.82226980       3.44610528       0.00000000      -0.00592377       0.00279831       0.01122768
C        2.53441066       1.26708805       3.55290768       0.00000000      -0.00009279      -0.00545935      -0.00867409
C        1.30537890       3.39866707       3.79536407       0.00000000      -0.00173403      -0.00409761      -0.00666358
C        0.04427930       5.57635843       3.75524592       0.00000000       0.00087057       0.00312158       0.01601650
C       -1.16883679       7.68788483       3.50795997       0.00000000       0.00173320       0.00078101       0.01407775
C       -2.39878642       9.82204753       3.44965765       0.00000000      -0.00563859       0.00387762      -0.01002224
C        5.00222033       1.27442822       3.52426462       0.00000000       0.00846450       0.00395705       0.00745432
C        3.76446932       3.39921451       3.78651972       0.00000000      -0.00145403      -0.00463178      -0.00000150
C        1.27277976       7.69484299       3.71666886       0.00000000       0.00196349      -0.00381865       0.00170885
C        0.06902538       9.82638463       3.48943241       0.00000000      -0.00120087       0.00287466      -0.00081940
C        7.46643695       1.27853172       3.50568739       0.00000000       0.00810077      -0.00006886       0.00226601
C        6.22767401       3.42384667       3.59267711       0.00000000       0.00300381       0.00454586       0.00306453
C        5.02597190       5.57682120       3.75486933       0.00000000       0.00070774       0.00128124      -0.01368769
C        3.79682934       7.69475233       3.71717960       0.00000000       0.00122081       0.00368067      -0.00145156
C        2.53457086       9.81089972       3.54613472       0.00000000      -0.00071735      -0.00645560      -0.00025229
C        9.93758142       1.27888524       3.51347002       0.00000000       0.00785777      -0.00650327       0.00188171
C        8.70290636       3.41544837       3.52613118       0.00000000      -0.00326718      -0.00614762      -0.00336010
C        7.47110887       5.54975843       3.51780144       0.00000000      -0.00247250       0.00122370       0.00071236
C        6.23810164       7.68807108       3.50402966       0.00000000       0.00168146       0.00494504       0.01277050
C        5.00020052       9.82704904       3.49044677       0.00000000      -0.00011762      -0.00504507       0.00378127
Fe       2.53462802       5.61854948       4.89541760       0.00000000       0.00143495      -0.01622492       0.00028416
O        1.03670551       8.83580960       9.50021928       1.00000000      -0.00197557       0.00314374       0.00295448
O        0.44196183       9.70041179      10.15456531       1.00000000       0.00159190      -0.00232008      -0.00176801
