51
Lattice="12.336457 0.0 0.0 -6.168228499999997 10.683685154694365 0.0 0.0 0.0 15.0" Properties=species:S:1:pos:R:3:initial_magmoms:R:1:forces:R:3 energy=-447.78758338617627 free_energy=-447.78758338617627 stress="-0.005982496290826523 -0.0005959610966661506 1.5146049411044179e-06 -0.0005959610966661506 0.000654853107763243 2.1199604764563956e-06 1.5146049411044179e-06 2.1199604764563956e-06 1.4510074526674256e-05" pbc="T T T"
C       -0.07020784       0.07210977       3.64591060       0.00000000      -0.00562998      -0.00131388      -0.00251845
C       -1.32157129       2.17995700       3.70583698       0.00000000       0.00205417       0.00484636      -0.00423085
C       -2.55360065       4.32253140       3.80039393       0.00000000       0.00032599       0.00089654      -0.00772035
C       -3.77084545       6.47531013       3.79731610       0.00000000      -0.00825735      -0.00874495      -0.00786210
C       -4.99837049       8.62636426       3.71536264       0.00000000       0.00003541       0.00038966       0.00358705
C        2.39804823       0.07825177       3.59900528       0.00000000      -0.00258380       0.00574098      -0.00536865
C        1.16378128       2.25765168       3.52672670       0.00000000      -0.00189002      -0.00099705      -0.00738931
C       -0.09321077       4.31125871       3.74325819       0.00000000       0.00033253       0.00019921       0.00776063
C       -1.33679573       6.48089727       3.84224816       0.00000000       0.00191219       0.00217696       0.00027554
C       -2.54671152       8.61987240       3.75316531       0.00000000       0.00584706       0.00145023       0.00496729
C        4.86650579       0.05051557       3.54933088       0.00000000      -0.00218026      -0.00078599       0.00283088
C        3.62874198       2.12144610       3.11316189       0.00000000       0.00284616      -0.00438141       0.00154424
C        1.09731795       6.44988766       3.69252365       0.00000000      -0.00113994       0.00329333      -0.01059428
C       -0.07748555       8.58894554       3.70810759       0.00000000       0.00485471       0.00139948      -0.00233861
C        7.33333186       0.03111247       3.58929237       0.00000000      -0.00456791      -0.00310975       0.00297949
C        6.10139319       2.18580378       3.39281083       0.00000000       0.00031420       0.00604080       0.00087178
C        4.97676415       4.39671466       3.11630249       0.00000000      -0.00111263       0.00135744       0.01409363
N        3.72505296       6.47190694       3.35944416       0.00000000       0.01130732       0.01061112       0.00276642
C        2.41180278       8.55230618       3.59665807       0.00000000      -0.00300230      -0.00012822       0.00085249
C        9.79232960       0.03436904       3.63290304       0.00000000       0.00325832      -0.00556655      -0.00597956
C        8.55658529       2.17914249       3.64820552       0.00000000       0.00024677       0.00008856       0.00444282
C        7.34209388       4.33240885       3.62827421       0.00000000       0.00303564       0.00233972      -0.01589953
C        6.13505486       6.49641980       3.58668798       0.00000000      -0.00456796      -0.00120348      -0.00593107
C        4.87606987       8.59585290       3.59665086       0.00000000      -0.00189912      -0.00820437       0.00259640
C       -0.07468610       1.49932742       3.63857251       0.00000000      -0.00137182       0.00092934      -0.00095914
C       -1.33432522       3.59685660       3.77529854       0.00000000       0.00053848       0.00358240       0.00442114
C       -2.55345589       5.75433261       3.83747463       0.00000000      -0.00184467      -0.00077426      -0.01071360
C       -3.77136749       7.90582153       3.77410028       0.00000000       0.00259004      -0.00415129       0.00091777
C       -5.00219920      10.05004398       3.66880414       0.00000000      -0.00313824       0.00552240       0.00486327
C        2.39948097       1.50061578       3.41631741       0.00000000      -0.00099110       0.00208421      -0.00556916
C        1.12389540       3.65047749       3.57151042       0.00000000      -0.00023966      -0.00140966       0.00753147
C       -0.10730290       5.76351352       3.79021789       0.00000000       0.00199877       0.00114981      -0.00068281
C       -1.31781756       7.90108754       3.78441810       0.00000000       0.00890219       0.00260908       0.00366687
C       -2.54031702      10.04124504       3.63863538       0.00000000      -0.00238394       0.00289506      -0.00115861
C        4.87179231       1.46994735       3.34300792       0.00000000       0.00276328      -0.00115234      -0.00146872
S        3.64201529       3.64737954       2.25832243       0.00000000      -0.00036944       0.00062599       0.01283426
C        1.16346311       7.83772319       3.67305670       0.00000000      -0.00028278       0.00178026      -0.00710745
C       -0.06883561      10.01039459       3.61985762       0.00000000      -0.00358033      -0.00224669      -0.00253505
C        7.32207662       1.46632962       3.54937700       0.00000000      -0.00317027       0.00064935      -0.00407886
C        6.12015815       3.62063928       3.38756088       0.00000000       0.00328617       0.00614817       0.00325732
C        4.93805269       5.80387594       3.33252389       0.00000000      -0.00072434       0.00164313       0.00643810
C        3.65929884       7.84377004       3.52118325       0.00000000      -0.00151406       0.00502567       0.00549195
C        2.39927419       9.98592459       3.61209421       0.00000000      -0.00154689      -0.00302721      -0.00687879
C        9.78241152       1.45941733       3.67234506       0.00000000       0.00348831      -0.00162001       0.01462621
C        8.55883602       3.60848013       3.71110516       0.00000000       0.00033090       0.00085507       0.00483326
C        7.34650556       5.75879669       3.69233938       0.00000000      -0.00998463      -0.00397506      -0.01273319
C        6.11353065       7.91257469       3.64892108       0.00000000      -0.00172812      -0.00510251       0.00193064
C        4.86460776      10.02255342       3.63273156       0.00000000      -0.00015619      -0.01148634       0.00972256
Fe       2.43427132       5.15405671       3.34559193       0.00000000       0.00958914      -0.00694929      -0.00038537
O        3.69583096       3.75745985       9.29034799       1.00000000      -0.00201300       0.00102943      -0.00186752
O        4.54468348       3.32336350      10.07785304       1.00000000       0.00201300      -0.00102943       0.00186752
