52
Lattice="12.336457 0.0 0.0 -6.168228499999997 10.683685154694365 0.0 0.0 0.0 15.0" Properties=species:S:1:pos:R:3:initial_magmoms:R:1:forces:R:3 energy=-457.6662785824857 free_energy=-457.6662785824857 stress="-0.0030062324243510428 0.002671278825802731 -3.2389281916103426e-06 0.002671278825802731 -0.0061734669946652545 -4.4603099703065417e-07 -3.2389281916103426e-06 -4.4603099703065417e-07 1.4143130493573798e-05" pbc="T T T"
C       -0.15372530      -0.07686333       3.67555956       0.00000000       0.00228586       0.00226274       0.00017726
C       -1.37231421       2.07133752       3.74950788       0.00000000       0.00084451       0.00386885      -0.00632043
C       -2.60282424       4.20412762       3.74616915       0.00000000      -0.00524269      -0.00547456      -0.00712271
C       -3.85409336       6.33305504       3.66976654       0.00000000       0.00367603       0.00008519      -0.00431616
C       -5.10289562       8.46111185       3.60823468       0.00000000       0.00409581       0.00307725      -0.00135032
C        2.30616466      -0.09269445       3.67110795       0.00000000       0.00605567       0.00253028      -0.00353285
C        1.09428501       2.05198020       3.73495649       0.00000000       0.00451460      -0.00022680      -0.00134954
C       -0.12629850       4.21143610       3.79624682       0.00000000      -0.00064794       0.00535661      -0.00006199
C       -1.38607498       6.34944248       3.74255347       0.00000000      -0.00137215       0.00209768       0.00518905
C       -2.63737069       8.47141342       3.67545613       0.00000000      -0.00269094      -0.00069441      -0.00204438
C        4.77679571      -0.07913761       3.62856146       0.00000000      -0.00324712      -0.00689295       0.00177471
C        3.54885139       2.02793583       3.60336741       0.00000000       0.00387358       0.00277382       0.00865151
C        2.35425655       4.16174356       3.69603843       0.00000000      -0.00255682      -0.01016442      -0.00792205
C        1.07092869       6.38440497       3.71184802       0.00000000      -0.00251101       0.00484817      -0.00835554
C       -0.17927063       8.48777075       3.62592577       0.00000000       0.00015008      -0.00246523       0.00147390
C        7.24395083      -0.06312121       3.60892380       0.00000000      -0.00468982       0.00135174       0.00013435
C        6.02410863       2.04896184       3.59478101       0.00000000      -0.00206021       0.00043274       0.00085586
C        4.80751180       4.15525141       3.38085210       0.00000000      -0.00057866       0.00515379       0.00208773
S        3.69100291       6.42470168       1.89519033       0.00000000      -0.00393572      -0.00623489       0.01550992
C        2.29207531       8.51297067       3.40834900       0.00000000      -0.00286596       0.00255396      -0.00454932
C        9.72149355      -0.05717122       3.62156518       0.00000000      -0.00201794      -0.00151113      -0.00482096
C        8.49454614       2.06798529       3.68055177       0.00000000       0.00301642      -0.00760520      -0.00212912
C        7.26824862       4.19194377       3.60298722       0.00000000       0.00365586      -0.00126388       0.00009274
C        6.01592576       6.32781900       3.43244778       0.00000000      -0.00048143      -0.00034622      -0.00424447
C        4.77683557       8.47373521       3.44446713       0.00000000       0.00029811      -0.00101210      -0.00846930
C       -0.14373444       1.35007782       3.73401251       0.00000000       0.00253522       0.00351286      -0.00020820
C       -1.36318648       3.49784214       3.77996075       0.00000000      -0.00248579       0.00418179      -0.00110651
C       -2.61315044       5.62864155       3.73323377       0.00000000       0.00108132      -0.00403489      -0.00526032
C       -3.86643447       7.75443174       3.65574592       0.00000000       0.00095791       0.00054651       0.01012304
C       -5.09733320       9.88502105       3.65834412       0.00000000       0.00580165       0.00393944      -0.00162762
C        2.31267372       1.33029138       3.67580824       0.00000000       0.00659625       0.00187997       0.00205677
C        1.12066912       3.49743410       3.76257161       0.00000000      -0.00072344       0.00003195      -0.00497098
C       -0.12149518       5.64842963       3.77046354       0.00000000       0.00305570       0.00629293      -0.00196949
C       -1.40157817       7.76577564       3.68978505       0.00000000      -0.00331559       0.00098677      -0.00785111
C       -2.62877235       9.88990437       3.65518177       0.00000000      -0.00068328      -0.00341819       0.01029090
C        4.78756958       1.33631991       3.59976278       0.00000000      -0.00188945      -0.00463488       0.00485864
C        3.55331672       3.45220032       3.53362890       0.00000000       0.00330096       0.00232024      -0.00202725
C        1.05627618       7.77881033       3.55980968       0.00000000       0.00068812       0.00197813      -0.00633325
C       -0.15972094       9.90632939       3.61293786       0.00000000      -0.00259328      -0.00363121       0.00960641
C        7.25582530       1.35227765       3.63594164       0.00000000      -0.00067039       0.00038194       0.00803426
C        6.03824364       3.47068709       3.52873206       0.00000000      -0.00025964       0.00378161       0.00505472
C        4.80945616       5.58180197       3.16325502       0.00000000      -0.00741486       0.00371560      -0.00573666
C        3.52680448       7.80233996       3.17882285       0.00000000      -0.00486097      -0.00053189       0.00025793
C        2.31425790       9.92134379       3.55281924       0.00000000      -0.00484714       0.00263961      -0.00002570
C        9.72885595       1.36269607       3.69897064       0.00000000       0.00362775      -0.00259745      -0.00454956
C        8.50171001       3.48955666       3.68980086       0.00000000      -0.00154832      -0.00898468       0.00034765
C        7.24996136       5.61710572       3.58786128       0.00000000       0.00168789       0.00096980       0.00902545
C        5.99612195       7.74699681       3.47635545       0.00000000       0.00104856      -0.00095962       0.01271406
C        4.77825322       9.89766260       3.60265592       0.00000000      -0.00040218      -0.00179475       0.00503459
Fe       2.89389312       5.95399114       3.76265064       0.00000000       0.00389093       0.00100544      -0.00757605
O        6.65397772       7.86789816       9.94885777       1.00000000      -0.00765518      -0.00783729      -0.01230381
O        6.07857587       7.27877239       9.02593066       1.00000000       0.00750912       0.00775921       0.01478422
