51
Lattice="12.336457 0.0 0.0 -6.168228499999997 10.683685154694365 0.0 0.0 0.0 15.0" Properties=species:S:1:pos:R:3:initial_magmoms:R:1:forces:R:3 energy=-442.1422004624684 free_energy=-442.1422004624684 stress="-0.0008461845962887379 0.0030113260359322944 -1.3039847055992036e-05 0.0030113260359322944 0.004383712142855308 -1.1476907798401133e-05 -1.3039847055992036e-05 -1.1476907798401133e-05 1.675176945549639e-06" pbc="T T T"
C       -0.03854045       0.02526194       3.74058453       0.00000000      -0.00207687      -0.00382263       0.00419662
C       -1.26250442       2.16056491       3.85612657       0.00000000      -0.00154460      -0.00471465      -0.00443117
C       -2.48752587       4.29782976       3.82264801       0.00000000      -0.00355070       0.00433279       0.00100962
C       -3.74026806       6.43171808       3.68657845       0.00000000       0.00582723       0.00282126      -0.00328398
C       -4.99536641       8.56776083       3.63111096       0.00000000       0.00490387       0.00000235      -0.01016537
C        2.41737180       0.08299177       3.70775010       0.00000000       0.00168347      -0.00526469       0.00017677
C        1.17018121       2.18637462       3.76634704       0.00000000       0.00198201      -0.00342735       0.00233226
C       -0.04693635       4.28967305       3.93500346       0.00000000      -0.00010943       0.00429079      -0.00505803
C       -1.28168523       6.43662312       3.86314063       0.00000000       0.00046157       0.00126701       0.00203580
C       -2.53231594       8.58333090       3.76329154       0.00000000       0.00086242       0.00053641      -0.00037938
C        4.88097465       0.02981458       3.77038765       0.00000000      -0.00179145       0.01164403       0.00655764
C        3.70585574       2.17738580       3.59633269       0.00000000      -0.00476214       0.00237084       0.00383741
N        1.11114275       6.47336282       4.06849978       0.00000000       0.00584382      -0.00432290       0.00398755
C       -0.06941635       8.56485054       3.88172302       0.00000000      -0.00702970      -0.00110045      -0.00357540
C        7.35899833       0.00653790       3.86652512       0.00000000       0.00500360      -0.00116580       0.00092109
C        6.15552642       2.13217797       3.67959883       0.00000000      -0.00040122      -0.00405385      -0.00623412
C        4.99724702       4.21118442       3.28558898       0.00000000      -0.00056639      -0.00406046       0.00207586
S        3.48565066       6.34943623       2.66524595       0.00000000       0.00228685      -0.01644971      -0.00421401
C        2.40047058       8.54370543       3.83054567       0.00000000       0.00178094      -0.00115015      -0.00531198
C        9.83236750       0.00449660       3.83731859       0.00000000       0.00007929      -0.00123324       0.00020002
C        8.61303545       2.14710210       3.81924071       0.00000000       0.00150128       0.00177605      -0.00585768
C        7.40016629       4.27986962       3.61419117       0.00000000      -0.01032014       0.00172702       0.00667587
C        6.13805047       6.40140035       3.41009784       0.00000000      -0.00656626       0.00175292      -0.00190661
C        4.87400761       8.54027429       3.60087391       0.00000000       0.00381624       0.01035017      -0.00734630
C       -0.02423738       1.46563975       3.79810754       0.00000000      -0.00008357      -0.00414003       0.00285711
C       -1.25149583       3.58563704       3.88620311       0.00000000      -0.00183899       0.00034399      -0.00191625
C       -2.50221010       5.71916586       3.79193357       0.00000000       0.00295505       0.00274855       0.00268547
C       -3.75801324       7.86044712       3.68759412       0.00000000       0.00513400       0.00174481      -0.00258710
C       -4.97662571      10.01478553       3.69021061       0.00000000      -0.00053927      -0.00208465      -0.00076998
C        2.42987396       1.53885058       3.69194420       0.00000000      -0.00124923      -0.00489009       0.00548233
O        1.13210262       3.56844578       3.84947357       0.00000000       0.00724057       0.00150495       0.01552742
C       -0.04270596       5.72876927       3.97001165       0.00000000      -0.00026399       0.00341434       0.00050843
C       -1.30237440       7.86262744       3.84118272       0.00000000      -0.00531168      -0.00187336      -0.00835843
C       -2.53004297      10.02305511       3.74487249       0.00000000       0.00435334       0.00017819       0.00086984
C        4.89666910       1.45508346       3.68518102       0.00000000      -0.00473392       0.00876037       0.00138055
O        3.77988393       3.54204679       3.41561763       0.00000000       0.00338329      -0.00449591      -0.00836257
C        1.14500589       7.82900996       3.93065020       0.00000000      -0.00226777      -0.00367143       0.00214467
C       -0.05300703       9.99191043       3.84362533       0.00000000      -0.00238765       0.00431103       0.00062729
C        7.37222753       1.43065932       3.80304182       0.00000000       0.00390779      -0.00089442      -0.00509292
C        6.18567946       3.53716332       3.51907744       0.00000000      -0.00611499      -0.00426341       0.00422556
C        4.98379582       5.61735788       3.17696862       0.00000000      -0.01037006      -0.00264015      -0.00190285
C        3.61352497       7.86415569       3.55010610       0.00000000       0.00779977       0.00336826       0.01293520
C        2.42191471       9.97440026       3.87549120       0.00000000       0.00400174      -0.00061680      -0.00224513
C        9.84800807       1.43994941       3.85499222       0.00000000      -0.00132490      -0.00498408      -0.00522175
C        8.62446641       3.57326196       3.76214819       0.00000000      -0.00667059       0.00496292      -0.00003327
C        7.38010158       5.70230892       3.56843509       0.00000000      -0.00248999       0.00346806       0.00940030
C        6.11167595       7.83682563       3.52061364       0.00000000       0.00338944       0.00277929       0.00113339
C        4.89157561       9.97764144       3.74529565       0.00000000      -0.00053209       0.00367896       0.00276026
Fe       2.68854231       5.52313767       4.79373060       0.00000000      -0.00367190      -0.00158739       0.00121453
O        2.87352433       3.95950572       5.92763428       1.00000000      -0.00470405       0.00007093      -0.00066887
O        3.94584635       4.76081085       5.97537491       1.00000000       0.01507596       0.00270132      -0.00283575
