51
Lattice="12.336457 0.0 0.0 -6.168228499999997 10.683685154694365 0.0 0.0 0.0 15.0" Properties=species:S:1:pos:R:3:initial_magmoms:R:1:forces:R:3 energy=-438.70214258068785 free_energy=-438.70214258068785 stress="-0.00237463137289022 -0.0016378404893310362 -1.4439770047422317e-05 -0.0016378404893310362 -0.0030982678561652117 -1.1631921065840693e-05 -1.4439770047422317e-05 -1.1631921065840693e-05 2.6851116266078935e-06" pbc="T T T"
C       -0.03421577       0.06003577       3.62026505       0.00000000      -0.00351666       0.00237549       0.00123289
C       -1.27732224       2.19714569       3.44053962       0.00000000      -0.00180456      -0.00020798       0.00806504
C       -2.52716567       4.34131468       3.52674807       0.00000000      -0.00492214      -0.00582679      -0.00754164
C       -3.73268909       6.48302941       3.68860111       0.00000000      -0.00157091      -0.00050639      -0.00449752
C       -4.95592443       8.61569480       3.71398111       0.00000000       0.00047781       0.00429511       0.00672972
C        2.43824652       0.04651947       3.69694985       0.00000000       0.01204420       0.00115298       0.00329625
C        1.21830186       2.12983511       3.32532624       0.00000000      -0.00474664      -0.00309575      -0.00440732
C       -0.18592115       4.35494933       2.88182263       0.00000000      -0.01185272      -0.00342510       0.00316928
C       -1.30815692       6.49393603       3.26890252       0.00000000      -0.00310928       0.00391654      -0.00411431
C       -2.48162351       8.61031923       3.61016499       0.00000000      -0.00081440      -0.00695795      -0.01555007
C        4.90650584       0.06798959       3.79736650       0.00000000      -0.00173757      -0.00239558      -0.00290890
C        3.63515702       2.16214615       4.02900264       0.00000000       0.00080752       0.00702471       0.00152519
S        1.25324528       6.55107769       2.22155915       0.00000000      -0.00001803       0.00525011       0.00336282
C       -0.02325400       8.62803963       3.44276205       0.00000000      -0.00139307       0.00353843       0.00815075
C        7.37210941       0.07187005       3.77272076       0.00000000      -0.00033717      -0.00006457       0.00190604
C        6.13125670       2.21369260       4.01954231       0.00000000       0.00231774       0.00288510       0.00630160
C        4.95277333       4.41704985       4.24258545       0.00000000      -0.00199271       0.00227070      -0.00161342
N        3.73132312       6.50220488       3.88604921       0.00000000       0.00583778       0.00040331      -0.00721521
C        2.45030372       8.60728455       3.57509436       0.00000000       0.00273667      -0.00148404       0.01089674
C        9.83918363       0.06870867       3.70723213       0.00000000       0.00169147       0.00484313      -0.00957386
C        8.59845325       2.20966760       3.77078169       0.00000000       0.00427334      -0.00494813      -0.00819306
C        7.37314275       4.35264641       3.90516327       0.00000000      -0.00069701       0.00309170      -0.00891343
C        6.16043223       6.51140119       3.90197279       0.00000000      -0.00800704      -0.00530425      -0.00419211
C        4.90716635       8.60630487       3.74685550       0.00000000       0.00290029      -0.00457814       0.00490369
C       -0.03628600       1.48542297       3.44879678       0.00000000      -0.00582715       0.00225599       0.00595590
C       -1.31309849       3.61451902       3.29142707       0.00000000      -0.00859773      -0.00604941       0.00151803
C       -2.52092874       5.76640369       3.51111574       0.00000000      -0.00117637      -0.00274502      -0.00487108
C       -3.72277204       7.90340384       3.67205119       0.00000000      -0.00165897      -0.00032808      -0.00014968
C       -4.96560921      10.03361501       3.66340091       0.00000000       0.00537040       0.00794902       0.00887572
C        2.43144863       1.46943848       3.70107018       0.00000000       0.00218018       0.00419835       0.00463366
S        1.33431197       3.60103152       2.41741081       0.00000000      -0.00372777      -0.00418568       0.00181984
C       -0.18703901       5.75225241       2.85774598       0.00000000      -0.00932636      -0.00363523      -0.00396200
C       -1.26052036       7.91182397       3.41867416       0.00000000       0.00231978       0.00207891       0.00721614
C       -2.48763997      10.03257012       3.71521948       0.00000000       0.00598261      -0.01075205      -0.00260281
C        4.89305960       1.49576087       3.98247372       0.00000000      -0.00079711       0.00226177      -0.00379860
P        3.46300864       3.70811452       4.88768811       0.00000000       0.01135915       0.00820481      -0.00672929
C        1.22588218       7.98622937       3.22946796       0.00000000       0.00134728       0.00520980      -0.00014798
C       -0.02738428      10.04604787       3.69835665       0.00000000      -0.00294646       0.00098814       0.00275095
C        7.36335703       1.50187239       3.87526246       0.00000000       0.00510760      -0.00193783       0.01090606
C        6.13914398       3.64788531       4.08267589       0.00000000      -0.00084036       0.00636255      -0.00233501
C        4.93644613       5.83587072       4.04580916       0.00000000      -0.00458456      -0.00359861       0.00242994
C        3.69165226       7.87072978       3.71769248       0.00000000       0.00465885      -0.00302698       0.00039445
C        2.43985680      10.03956286       3.71629410       0.00000000       0.00228041       0.00233825       0.00078679
C        9.83796972       1.49777431       3.65020829       0.00000000       0.00476865       0.00221131       0.00479603
C        8.59197161       3.63401261       3.75214757       0.00000000      -0.00258632      -0.00619212      -0.00991457
C        7.37966616       5.77544773       3.84686266       0.00000000      -0.00388843       0.00223986      -0.00127534
C        6.14996691       7.91560226       3.78536970       0.00000000       0.00080431      -0.00560252       0.00380090
C        4.90041145      10.03495590       3.68834808       0.00000000      -0.00226031      -0.00219307       0.00222645
Fe       2.36513908       5.23114638       3.61945573       0.00000000       0.01764278       0.00057942      -0.00570840
O        3.27114760       2.53601206       9.20138186       1.00000000      -0.00094275      -0.00049057      -0.00057865
O        3.30285337       3.76661189       9.31561270       1.00000000      -0.00122824       0.00160635       0.00314340
