51
Lattice="12.336457 0.0 0.0 -6.168228499999997 10.683685154694365 0.0 0.0 0.0 15.0" Properties=species:S:1:pos:R:3:initial_magmoms:R:1:forces:R:3 energy=-438.2553977881365 free_energy=-438.2553977881365 stress="-0.005395776787560476 0.0012856531012843597 8.432186764809088e-06 0.0012856531012843597 -0.0053586170363237925 -9.311249475424762e-06 8.432186764809088e-06 -9.311249475424762e-06 8.796411626236023e-06" pbc="T T T"
C        0.04327640      -0.10732877       3.52711667       0.00000000      -0.00075153      -0.00168984       0.00774512
C       -1.17762544       2.04709947       3.45274454       0.00000000       0.00297468       0.00415906       0.00765357
C       -2.41684076       4.18432036       3.62508963       0.00000000      -0.00649372      -0.00014525      -0.00755816
C       -3.65578520       6.31722006       3.70130691       0.00000000      -0.00144310      -0.00672903       0.01309034
C       -4.89903525       8.44057508       3.59723674       0.00000000       0.00341119      -0.00416698       0.00115229
C        2.50804339      -0.12037767       3.70714704       0.00000000      -0.00292064       0.00182805      -0.00077656
C        1.30998093       1.97675540       3.35986547       0.00000000      -0.00021943       0.00005927       0.01205995
C       -0.02907311       4.24818559       3.19633857       0.00000000      -0.00779878      -0.00109902       0.00245571
C       -1.21836281       6.34700461       3.57257891       0.00000000      -0.00487989      -0.00347133      -0.01034191
C       -2.43220435       8.45331781       3.71176774       0.00000000       0.00131048       0.00830384      -0.01077001
C        4.98164991      -0.10277144       3.83724275       0.00000000      -0.00122540      -0.00039376      -0.01326458
C        3.72745204       1.97340466       4.07762864       0.00000000       0.00537317      -0.01303989      -0.00388021
N        1.18480248       6.36097880       3.42149067       0.00000000       0.00031598      -0.00125039      -0.00926708
C        0.03269303       8.45557265       3.62053351       0.00000000      -0.00523891       0.00028146      -0.00023359
C        7.45186141      -0.09887666       3.73251365       0.00000000      -0.00494936       0.00466603      -0.00697509
C        6.22850556       2.03229685       4.01617332       0.00000000      -0.00623329       0.00757458      -0.00509867
C        5.07568084       4.22125701       4.14083831       0.00000000       0.00668229       0.00092040       0.00181063
P        3.75503838       6.12319581       2.56741435       0.00000000       0.00580740      -0.00285894       0.00564530
C        2.49646687       8.44906686       3.41518996       0.00000000       0.00118070      -0.00332895       0.00998463
C        9.91464165      -0.09670699       3.55440636       0.00000000       0.00147471      -0.00432773      -0.00906184
C        8.69410472       2.03955017       3.73967030       0.00000000       0.00614849      -0.00058465       0.00346122
C        7.47802294       4.17458462       3.86262054       0.00000000       0.00421943      -0.00002669      -0.00028910
C        6.24025984       6.31318910       3.63541241       0.00000000      -0.00878413       0.00131580       0.00481304
C        4.97341129       8.44176967       3.40275857       0.00000000      -0.00114136       0.00206120       0.01154274
C        0.05432418       1.32716942       3.43953491       0.00000000       0.00240390       0.00132411      -0.00560023
C       -1.18495463       3.47716020       3.43074772       0.00000000      -0.01036671       0.00309582      -0.00406063
C       -2.42885222       5.60710455       3.64918151       0.00000000      -0.00290734      -0.00457950      -0.00636290
C       -3.66338470       7.73848626       3.67481807       0.00000000       0.00480626      -0.00346660       0.00536603
C       -4.89533571       9.86291961       3.59736685       0.00000000      -0.00178659      -0.00096594      -0.00016495
C        2.51548956       1.30686884       3.72139079       0.00000000       0.00197687      -0.00244598       0.00441291
S        1.39997814       3.48873237       2.49991275       0.00000000       0.01288987       0.00745932      -0.00282901
C       -0.01172835       5.66129782       3.37686354       0.00000000      -0.00216181      -0.00141245      -0.00622386
C       -1.20101398       7.75766563       3.65401554       0.00000000      -0.00516755      -0.00233852       0.00053806
C       -2.42274923       9.87044757       3.76804864       0.00000000      -0.00230690       0.00854497      -0.00025823
C        4.98213082       1.32276012       3.99767836       0.00000000       0.00155170      -0.00607379      -0.00287043
S        3.64967037       3.51475685       4.87398837       0.00000000      -0.00215572       0.01425310      -0.00365167
C        1.24482199       7.73225743       3.47366746       0.00000000      -0.00166400      -0.00074640       0.00840548
C        0.04757160       9.87573714       3.73953788       0.00000000      -0.00387214       0.00153506      -0.00256923
C        7.45433594       1.32667225       3.84445723       0.00000000      -0.00514558       0.00938787       0.00383464
C        6.25362960       3.45449322       4.04455639       0.00000000       0.00269928       0.00481173       0.00080235
C        5.03702793       5.55544322       3.67133172       0.00000000      -0.00034796      -0.00309450      -0.00186535
C        3.72828765       7.77437091       3.23215838       0.00000000       0.00421216      -0.00212405       0.01382399
C        2.50754012       9.87467915       3.57752243       0.00000000      -0.00212469      -0.00033690      -0.00106613
C        9.92927522       1.33502543       3.58853767       0.00000000       0.00967916      -0.00437750       0.00478062
C        8.70101537       3.46203228       3.75942184       0.00000000       0.00174906      -0.00184313      -0.00705240
C        7.46549351       5.59778425       3.75367717       0.00000000      -0.00381686      -0.00132348       0.00100297
C        6.21159779       7.73000172       3.50265157       0.00000000      -0.00260598       0.00137000       0.00319370
C        4.97500693       9.87113445       3.49659640       0.00000000       0.00102456      -0.00135137      -0.00706655
Fe       2.35283207       4.98912429       3.77351520       0.00000000       0.01675389      -0.00371525       0.00057577
O        1.64458269       6.93256536       9.24881872       1.00000000       0.00463850      -0.00450562      -0.00217659
O        0.86002946       7.73186341       9.77280095       1.00000000      -0.00477438       0.00486176       0.00318392
