51
Lattice="12.336457 0.0 0.0 -6.168228499999997 10.683685154694365 0.0 0.0 0.0 15.0" Properties=species:S:1:pos:R:3:initial_magmoms:R:1:forces:R:3 energy=-442.068582884741 free_energy=-442.068582884741 stress="-0.00313027922408512 -0.0026220008521511047 -8.997509267896715e-06 -0.0026220008521511047 0.003891042084487567 -1.827408524981374e-06 -8.997509267896715e-06 -1.827408524981374e-06 -2.4456343962464476e-05" pbc="T T T"
C       -0.00230794       0.03073120       3.80205994       0.00000000      -0.00218613       0.00764507      -0.00471468
C       -1.25462575       2.15749869       3.80130546       0.00000000      -0.00112030      -0.00272437       0.00034643
C       -2.46637375       4.29701119       3.80279373       0.00000000       0.00267088       0.00732261       0.00474273
C       -3.67093921       6.44470815       3.80763910       0.00000000       0.00247790      -0.00582724       0.00355745
C       -4.91005674       8.59807434       3.81414838       0.00000000       0.00270839       0.00270887       0.00017830
C        2.46505705       0.06035191       3.76405148       0.00000000       0.00263263      -0.00591285      -0.00377649
C        1.18486580       2.17001330       3.71451774       0.00000000       0.00337642      -0.00358541      -0.00177360
C       -0.03871207       4.30190381       3.78216970       0.00000000      -0.01444809      -0.00596419      -0.00619080
C       -1.21590422       6.42201019       3.81619302       0.00000000      -0.00538750       0.00105227       0.00904459
C       -2.44667251       8.57675751       3.81792573       0.00000000       0.00095537       0.00229526      -0.00781820
C        4.93495306       0.02610728       3.68974335       0.00000000       0.00698246       0.00397821      -0.00684754
C        3.68373232       2.13012484       3.34738838       0.00000000      -0.01300510       0.00219150      -0.00563764
O        1.16607519       6.43197437       3.82563699       0.00000000      -0.00646990       0.00849773      -0.00140649
C        0.01491450       8.54409630       3.79505893       0.00000000      -0.00487289      -0.01292723      -0.00483795
C        7.40212456      -0.00314090       3.72778666       0.00000000       0.00244291      -0.01228067      -0.00147469
C        6.16365001       2.16665315       3.56233136       0.00000000      -0.00194354       0.00402588       0.00378230
C        5.00855350       4.37334429       3.38821223       0.00000000      -0.00136829       0.00583786      -0.00343947
N        3.80899184       6.44669222       3.61731402       0.00000000      -0.00907150      -0.00203335       0.01406255
C        2.45787656       8.48922091       3.77496104       0.00000000       0.00142687       0.00211497       0.00493415
C        9.85365033      -0.00483051       3.78182986       0.00000000       0.00549645      -0.00047352      -0.00649683
C        8.62389293       2.15121928       3.74791808       0.00000000       0.00635138       0.00387034      -0.00713921
C        7.41668848       4.30479607       3.70709297       0.00000000       0.00568786      -0.00032249      -0.00816170
C        6.23607183       6.48101970       3.69313979       0.00000000      -0.00154612      -0.00163707       0.01765060
C        4.94330777       8.56251052       3.75555643       0.00000000      -0.00549342      -0.00202670      -0.00037375
C       -0.01221072       1.46240775       3.78681216       0.00000000       0.00219943       0.00601788      -0.00962011
C       -1.24155186       3.58394194       3.79943571       0.00000000      -0.01088970      -0.00673272       0.00134495
C       -2.44921211       5.71574210       3.81606127       0.00000000       0.00291138       0.00165140       0.00218844
C       -3.68005429       7.87308886       3.82426177       0.00000000       0.00243170      -0.00299044      -0.00767227
C       -4.92773713      10.02468848       3.81397051       0.00000000      -0.00266170       0.00506593      -0.00272726
C        2.44058891       1.49489459       3.63283897       0.00000000      -0.00401756      -0.01102699      -0.00434643
O        1.13692322       3.55619557       3.81772260       0.00000000       0.00017620       0.00019530      -0.00160579
C       -0.01838008       5.70601481       3.79676436       0.00000000      -0.00964984      -0.00089611      -0.00216017
C       -1.22291974       7.85062923       3.81678086       0.00000000      -0.00674493      -0.00382101      -0.00076131
C       -2.46601329      10.01359243       3.76601030       0.00000000       0.00926163       0.00368053      -0.00513307
C        4.92020884       1.45928608       3.52549385       0.00000000      -0.00744661       0.00910815      -0.00001199
S        3.62875089       3.70273809       2.56582599       0.00000000       0.01701645       0.00290335      -0.00044168
C        1.21464050       7.82012194       3.80644908       0.00000000      -0.00045209       0.00400695      -0.00219236
C        0.00522700       9.98164655       3.73837268       0.00000000       0.00093539      -0.01507153       0.00905742
C        7.38908967       1.44018428       3.68446928       0.00000000       0.00230605      -0.00448190      -0.00623712
C        6.18363829       3.59553246       3.56059314       0.00000000       0.00009663       0.00610140       0.00972018
C        5.01613824       5.80314425       3.55009995       0.00000000      -0.00604067       0.00262804       0.01167794
C        3.73153044       7.80813915       3.72793153       0.00000000      -0.00635502      -0.00124749       0.00323232
C        2.45799214       9.93599964       3.76641756       0.00000000       0.00795829      -0.00224054      -0.00488408
C        9.85951987       1.43480178       3.78510261       0.00000000       0.00370160      -0.00154188       0.00658370
C        8.63528725       3.57919806       3.76341440       0.00000000       0.00964813       0.00746649      -0.00730923
C        7.43983595       5.73433532       3.74219172       0.00000000       0.00204311      -0.00429578       0.00422940
C        6.20154451       7.89114012       3.76222833       0.00000000      -0.00152229       0.00170026       0.00077333
C        4.92995418       9.98746448       3.79016001       0.00000000       0.00053292      -0.00088901       0.00002667
Fe       3.08331171       4.88603685       4.62600294       0.00000000       0.00837986       0.00577915      -0.00781958
O        1.77143072       4.89582324       5.99299147       1.00000000       0.00746201       0.00913262       0.01380995
O        2.52995919       3.80365655       6.07044817       1.00000000       0.00242285      -0.00602758       0.01206810
