52
Lattice="12.336457 0.0 0.0 -6.168228499999997 10.683685154694365 0.0 0.0 0.0 15.0" Properties=species:S:1:pos:R:3:forces:R:3 energy=-443.6707971698553 free_energy=-443.6707971698553 stress="-0.002467274114043264 -0.001837360515596089 -5.0432825039128326e-05 -0.001837360515596089 -0.003853824447891122 1.7595114118926985e-05 -5.0432825039128326e-05 1.7595114118926985e-05 -2.917832293676986e-05" pbc="T T T"
C       -0.02724389       0.02593759       3.79211164      -0.00254147      -0.00073226      -0.00137428
C       -1.27102595       2.16413672       3.61652122      -0.00149369      -0.00373271      -0.00644854
C       -2.52079497       4.30626151       3.68942285      -0.00004803      -0.00081110      -0.00656719
C       -3.72524685       6.44858375       3.84298144       0.00755581      -0.00104211      -0.00279133
C       -4.94741200       8.58035144       3.87106451      -0.00411095       0.00297455       0.00299613
C        2.44547053       0.00362163       3.86606464       0.00119670       0.00174217       0.00049181
C        1.22372578       2.09556128       3.49777398       0.00088351       0.00141619       0.00528559
C       -0.17898743       4.31903001       3.04136166      -0.00709955       0.00560192      -0.00317853
C       -1.30023065       6.45924911       3.43189157       0.00588156       0.00171995      -0.00789770
C       -2.47329757       8.57271043       3.77161406      -0.00717877      -0.00107951      -0.00008482
C        4.91365488       0.02757433       3.98302369       0.00009611      -0.00208669       0.00306008
C        3.63016205       2.09091681       4.25396152       0.00621643      -0.01036480       0.00513855
S        1.23901445       6.54470218       2.34107897      -0.01123163      -0.00887970       0.00797500
C       -0.01533644       8.59293484       3.61719569      -0.00822046       0.00210274       0.00914249
C        7.37728387       0.03936745       3.95808211       0.00406136      -0.00028231       0.00087163
C        6.13501241       2.18151648       4.21397368      -0.00164209       0.00236986      -0.00216609
C        4.98099410       4.40832146       4.46820614       0.00090351       0.00333815       0.00420436
N        3.73564119       6.47381286       4.05103963      -0.00866890      -0.00545028      -0.00840266
C        2.45676450       8.57609790       3.74712353       0.00955584      -0.00233613      -0.00632233
C        9.84538729       0.03671479       3.88729400       0.00026119       0.00090321      -0.00859355
C        8.60393294       2.17702094       3.95317644      -0.00122812      -0.00278517      -0.01181603
C        7.38150938       4.32114944       4.07978877       0.00305331       0.00065922       0.00013813
C        6.17104244       6.48113675       4.05803476      -0.00666313      -0.00087643      -0.00022795
C        4.91608676       8.57536972       3.91489313       0.00313794       0.00308010      -0.00387187
C       -0.02977294       1.45184105       3.62258750       0.00014091      -0.00249599       0.00149243
C       -1.30653775       3.57947445       3.45717318      -0.00004485       0.00106635       0.00447468
C       -2.51386715       5.73131713       3.66816715       0.01297248      -0.00143997       0.00821149
C       -3.71492198       7.86771024       3.82714773      -0.00500501       0.00052369      -0.00291902
C       -4.95907175       9.99650317       3.82782628      -0.00006996       0.00307448       0.00188515
C        2.43642381       1.42532581       3.88331764       0.00473947       0.00171562       0.00495003
S        1.33799486       3.56293380       2.57956077      -0.01138650      -0.00067482      -0.00791408
C       -0.17652964       5.72015626       3.01939319       0.00424788       0.00481819      -0.00913112
C       -1.25100199       7.87576033       3.58436052      -0.00717680      -0.00355903       0.00905148
C       -2.47953472       9.99264565       3.88804753      -0.00062970       0.00003145      -0.00100550
C        4.89532583       1.45359383       4.18352029       0.00141513      -0.00382538      -0.00016700
P        3.43179952       3.68866765       4.98675358      -0.00730430       0.00432789      -0.00957161
C        1.23330326       7.95194680       3.39994381      -0.00360372       0.01148064      -0.00019421
C       -0.01956905      10.00946005       3.88138743      -0.00087636       0.00307052       0.00199058
C        7.36617367       1.47081320       4.06388241      -0.00099149       0.00034172       0.00561509
C        6.14441953       3.62342217       4.28069263      -0.00137990       0.00396607      -0.00066332
C        4.94360767       5.80426534       4.21479092      -0.00698750      -0.00190594       0.00018729
C        3.69902774       7.83965767       3.88773061       0.00903159      -0.00380335      -0.00031753
C        2.44555481      10.00834227       3.89570600       0.00592103      -0.00263860      -0.00027527
C        9.84380083       1.46543603       3.83233609      -0.00092578      -0.00087438      -0.00588893
C        8.59866428       3.60027566       3.92356501       0.00187004      -0.00298160       0.00128199
C        7.38672110       5.74292472       4.00694057       0.00267077       0.00134583       0.00717185
C        6.15830835       7.88318882       3.94233989      -0.00204948       0.00086602       0.00900979
C        4.90723464      10.00259533       3.86242208      -0.00229901       0.00309863      -0.00030936
Fe       2.27131516       5.26384344       3.81639057       0.00415850       0.00657045      -0.00546134
O        3.37187328       3.45702905       6.59835957       0.00120368       0.00300594       0.01045536
O        2.74368275       4.69537505       7.25839075       0.01146759       0.00668492       0.00581571
H        3.48215031       4.89760670       7.86435713       0.00821484      -0.01723820       0.00266443
