51
Lattice="12.336457 0.0 0.0 -6.168228499999997 10.683685154694365 0.0 0.0 0.0 15.0" Properties=species:S:1:pos:R:3:initial_magmoms:R:1:forces:R:3 energy=-441.21152357444043 free_energy=-441.21152357444043 stress="-0.0022972011947831033 -0.003218545878842274 -4.002394253806765e-07 -0.003218545878842274 -0.0014307556223148595 1.7583666624048786e-05 -4.002394253806765e-07 1.7583666624048786e-05 -3.404896599066965e-06" pbc="T T T"
C        0.07041285      -0.08734594       3.98008423       0.00000000      -0.00285751      -0.00461743       0.00206768
C       -1.19119481       2.03143041       4.06529615       0.00000000      -0.00010429      -0.00825970      -0.00264800
C       -2.41370722       4.18085513       4.05704567       0.00000000       0.00233413       0.00548236       0.00658832
C       -3.62038939       6.32696736       4.00184113       0.00000000       0.00096626      -0.00187282      -0.01361764
C       -4.84663137       8.47158713       3.96430036       0.00000000      -0.00660216      -0.00373692       0.01190388
C        2.52851309      -0.06575701       3.87927283       0.00000000      -0.00445414       0.00198518       0.00748136
C        1.24791687       2.03859648       3.85274300       0.00000000       0.00460200      -0.00110579       0.00999166
C        0.01891506       4.11493939       3.88033171       0.00000000       0.00067431       0.00269624       0.00058847
C       -1.15678960       6.29270224       3.83172564       0.00000000      -0.00251146      -0.00433340      -0.00004609
C       -2.37855875       8.45452988       3.87236747       0.00000000      -0.00171889      -0.00176676      -0.00093410
C        4.99911863      -0.08695521       3.76075553       0.00000000       0.00024479       0.01054352      -0.00679910
C        3.73257904       2.01431613       3.44602486       0.00000000      -0.00122178       0.00840466       0.00139112
P        1.26542845       6.21053757       2.70602187       0.00000000       0.00021579       0.00233838      -0.00532673
C        0.07473514       8.45035130       3.65168645       0.00000000      -0.00268078       0.00164252      -0.01128303
C        7.46478321      -0.09044166       3.79704029       0.00000000       0.00250306       0.00631084      -0.00037534
C        6.22069956       2.05912767       3.70197686       0.00000000      -0.00522756      -0.00342076      -0.00772585
C        5.08800986       4.25785630       3.36170917       0.00000000       0.00524840      -0.00378815       0.00030699
N        3.95453624       6.43457164       3.15015765       0.00000000      -0.00515702      -0.00756172      -0.00214661
C        2.55998618       8.46248113       3.56219762       0.00000000      -0.00219352       0.00747400      -0.00150793
C        9.92777496      -0.09590806       3.92157173       0.00000000       0.00262830      -0.01023415       0.00360333
C        8.68094061       2.04506065       3.97890673       0.00000000      -0.00189612       0.00065669      -0.00336278
C        7.46886190       4.19619812       3.91065799       0.00000000      -0.00246799      -0.00360571      -0.00636512
C        6.26484902       6.35664903       3.81116254       0.00000000       0.01090650       0.00257924      -0.00199630
C        5.02258969       8.46801938       3.79741018       0.00000000       0.00261635       0.00446395      -0.00195252
C        0.05407724       1.33770619       3.99657654       0.00000000       0.00389162      -0.00590247       0.00224395
C       -1.18741879       3.44600835       4.06633828       0.00000000       0.00180998      -0.00125482       0.00427785
C       -2.39113534       5.60329349       3.99581609       0.00000000      -0.00005033       0.00029030       0.00312315
C       -3.61419308       7.75265382       3.96460755       0.00000000      -0.00349008      -0.00360848      -0.00093294
C       -4.85906051       9.89892344       3.95917410       0.00000000      -0.00509168      -0.00505173       0.00991394
C        2.49559745       1.36051146       3.74065715       0.00000000       0.00108039       0.00337174      -0.00066739
O        1.21559152       3.41744924       3.85535183       0.00000000       0.00421105      -0.00356121       0.00145053
C        0.02897512       5.50525410       3.68755192       0.00000000       0.00057379       0.00509990       0.00447655
C       -1.14824934       7.72606857       3.75954624       0.00000000      -0.00081715      -0.00491455      -0.00363871
C       -2.40014264       9.88918762       3.83773545       0.00000000       0.00115498       0.00567503       0.01049461
C        4.98662128       1.34182521       3.63410878       0.00000000      -0.00690101       0.00925483       0.00231135
P        3.77290805       3.48558919       2.52442027       0.00000000       0.00251940      -0.00083936       0.00076868
C        1.31924336       7.78571753       3.43655128       0.00000000      -0.00037628       0.00424880      -0.00344637
C        0.06540081       9.87950862       3.74143757       0.00000000       0.00087336       0.00646161       0.01697231
C        7.44888399       1.33869620       3.84817541       0.00000000      -0.00286449       0.00336710      -0.00472865
C        6.24330121       3.49194450       3.68213781       0.00000000       0.00100293      -0.00891822      -0.00682635
C        5.08977080       5.69252107       3.45198571       0.00000000       0.00594583      -0.00071895       0.00373368
C        3.82831446       7.76686276       3.50799603       0.00000000      -0.00026164       0.00446924       0.00134077
C        2.53801193       9.87812621       3.78448766       0.00000000       0.00026977       0.00291032      -0.00099763
C        9.91886706       1.32884436       4.02148589       0.00000000      -0.00242440      -0.00979945      -0.00813942
C        8.68737031       3.47327297       4.01665816       0.00000000      -0.00072807       0.00427565       0.00091730
C        7.48457087       5.62056184       3.94571498       0.00000000       0.00427401      -0.00351731      -0.01553758
C        6.26020288       7.77030485       3.88014268       0.00000000      -0.00044856       0.00178284       0.00654932
C        5.00314208       9.88605943       3.92405311       0.00000000       0.00137417      -0.00202610       0.00824658
Fe       3.08961890       5.48919776       1.90034287       0.00000000       0.00029683       0.00390678      -0.00506491
O       -0.14852379       6.92072277       6.47454637       1.00000000       0.01734381      -0.00821881      -0.00505400
O        1.04694393       7.12620409       6.28505993       1.00000000      -0.01701489       0.00294307       0.00037771
