51
Lattice="12.336457 0.0 0.0 -6.168228499999997 10.683685154694365 0.0 0.0 0.0 15.0" Properties=species:S:1:pos:R:3:initial_magmoms:R:1:forces:R:3 energy=-444.3467236730126 free_energy=-444.3467236730126 stress="-0.0032778356566211236 0.0010128298976266156 3.7841717656270704e-06 0.0010128298976266156 -0.0006625076367274973 -6.596625149966398e-06 3.7841717656270704e-06 -6.596625149966398e-06 9.6056960069707e-06" pbc="T T T"
C        0.00156990      -0.02110116       3.60067674       0.00000000      -0.00037136       0.00150645      -0.00053509
C       -1.23268340       2.11760735       3.55884189       0.00000000       0.00087382       0.00435016      -0.00181495
C       -2.46905788       4.25864046       3.77288917       0.00000000      -0.00671951      -0.00996817      -0.00228446
C       -3.70946265       6.39324315       3.82331882       0.00000000       0.00031807       0.00625614      -0.00463927
C       -4.94206188       8.52817797       3.68898907       0.00000000      -0.00534284       0.00456547      -0.00389542
C        2.47108261      -0.00261957       3.67482455       0.00000000       0.00104685      -0.00352996      -0.00056304
C        1.24519481       2.07084747       3.26377062       0.00000000      -0.00112803      -0.00666513      -0.00075541
C       -0.06765174       4.31197917       3.34154327       0.00000000      -0.00119683       0.00656998       0.00256212
C       -1.25336023       6.41589512       3.76701400       0.00000000      -0.00225377      -0.00266507      -0.00472963
C       -2.47802262       8.54056223       3.81817898       0.00000000       0.00116195       0.00309537      -0.00875392
C        4.93556070      -0.01359352       3.77503879       0.00000000      -0.00736238       0.00712082       0.00318388
C        3.72765286       2.15683596       3.58826708       0.00000000       0.00545664       0.00587669       0.00186220
N        1.17027311       6.39390167       3.52832468       0.00000000       0.00631503      -0.01268945      -0.00498648
C       -0.00301310       8.51327731       3.74153397       0.00000000       0.00114683       0.00019815      -0.00748413
C        7.40833984      -0.03674213       3.77516037       0.00000000      -0.00326349       0.00345883      -0.00030104
C        6.18236263       2.10003957       3.79999135       0.00000000       0.00542108       0.00102809      -0.00529124
C        4.98162213       4.19662238       3.54073690       0.00000000       0.00292573       0.00431349       0.00226268
P        3.75350515       6.36482455       2.29786034       0.00000000       0.01036514      -0.00301096       0.01003107
C        2.45532625       8.50760867       3.51065161       0.00000000      -0.00310404      -0.01013823       0.00409312
C        9.86903989      -0.02942057       3.66402348       0.00000000       0.00307769       0.00373573      -0.00883050
C        8.64637795       2.10826885       3.79667883       0.00000000       0.00035982       0.00053510      -0.00416372
C        7.41456944       4.24585309       3.81227143       0.00000000      -0.00296291      -0.00137287      -0.01002489
C        6.17979933       6.37828065       3.56089689       0.00000000       0.00386326      -0.00525391       0.00466976
C        4.93397987       8.52567762       3.47293902       0.00000000       0.00538446      -0.00089429      -0.00665003
C        0.00244354       1.40372367       3.47627507       0.00000000      -0.00272513      -0.00263948       0.00144218
C       -1.24251171       3.55104315       3.57406635       0.00000000       0.00011284       0.00156557       0.00150790
C       -2.47722247       5.68396697       3.81739705       0.00000000      -0.00455178      -0.00644428      -0.00141237
C       -3.70953882       7.82072633       3.79246154       0.00000000      -0.00244441       0.00915580       0.00355780
C       -4.93192960       9.95841191       3.65927270       0.00000000      -0.00162180       0.00179484       0.00377674
C        2.48133607       1.42265544       3.50948649       0.00000000       0.00319781      -0.00321134      -0.00155161
P        1.18367801       3.57122245       2.31356561       0.00000000      -0.00951028       0.00267010      -0.00027555
C       -0.04300661       5.73253668       3.55821769       0.00000000       0.00008741       0.00094549      -0.00042561
C       -1.24584776       7.82942966       3.80494691       0.00000000       0.00118398       0.00121901      -0.00092957
C       -2.47122983       9.96598910       3.77055541       0.00000000      -0.00051881       0.00103641       0.00904874
C        4.93978374       1.41595658       3.73502363       0.00000000       0.00245298       0.00626265      -0.00071385
N        3.76781887       3.53611512       3.51632258       0.00000000       0.00645097       0.00337057       0.00272177
C        1.20926405       7.77337204       3.59528459       0.00000000       0.00032143      -0.01510317       0.00085635
C        0.00185613       9.94254889       3.77785526       0.00000000      -0.00726786       0.00668456       0.00376821
C        7.41452362       1.38873384       3.81965399       0.00000000       0.00328303       0.00228651      -0.00610219
C        6.19085050       3.51370763       3.75626822       0.00000000       0.00032942       0.00023578      -0.00396814
C        5.00585346       5.61748665       3.32260822       0.00000000       0.00266122       0.00007725       0.00746736
C        3.69079210       7.85930628       3.25976934       0.00000000       0.00419288       0.00111555      -0.00310684
C        2.46599215       9.93227137       3.67843405       0.00000000      -0.00150622      -0.00207938       0.00506264
C        9.87895769       1.40059450       3.69447758       0.00000000       0.00392016       0.00710585       0.00472546
C        8.64655917       3.53615189       3.82488026       0.00000000      -0.00742171      -0.00514317       0.00399270
C        7.40618643       5.67116112       3.76522093       0.00000000       0.00208684       0.00005688      -0.00012334
C        6.16950768       7.81169131       3.55088833       0.00000000      -0.00015993      -0.00511123       0.00060554
C        4.93522485       9.95005103       3.60076086       0.00000000       0.00368622       0.00116066       0.00755683
Fe       2.47513486       4.97060232       3.42126137       0.00000000      -0.01032028      -0.00351299       0.00859532
O        2.39666884       4.80364805       9.63273448       1.00000000       0.00010054       0.00921638      -0.00357586
O        2.40922013       5.95678268       9.18571400       1.00000000      -0.00003073      -0.00913725       0.00453780
