51
Lattice="12.336457 0.0 0.0 -6.168228499999997 10.683685154694365 0.0 0.0 0.0 15.0" Properties=species:S:1:pos:R:3:initial_magmoms:R:1:forces:R:3 energy=-435.58849428964396 free_energy=-435.58849428964396 stress="-0.0009080704325841023 -0.00342847205279315 -7.672849103269387e-06 -0.00342847205279315 -0.0023974900061663773 4.616174334686595e-06 -7.672849103269387e-06 4.616174334686595e-06 1.592183150887564e-05" pbc="T T T"
C       -0.02481824       0.00658662       3.62692829       0.00000000      -0.00138011       0.00317796      -0.00326464
C       -1.29120119       2.12438754       3.83442870       0.00000000       0.01022579       0.00215037      -0.00568781
C       -2.53286701       4.26633195       3.79667559       0.00000000       0.00192537      -0.00515976      -0.00224924
C       -3.71845151       6.41338952       3.62541051       0.00000000      -0.00029617       0.00215567       0.00037102
C       -4.94234352       8.55234583       3.55898768       0.00000000      -0.00494543      -0.00371202      -0.00491978
C        2.45577668      -0.02199557       3.60330496       0.00000000      -0.00617115       0.01138132       0.00812118
C        1.21489874       2.09033226       3.96463873       0.00000000       0.01061878       0.00248424       0.00410489
C       -0.19072654       4.23935316       4.51000514       0.00000000       0.00274602       0.00761476       0.00853259
C       -1.28405778       6.41505059       4.02912589       0.00000000       0.00296968      -0.01261335       0.00305342
C       -2.46102312       8.53465259       3.67009054       0.00000000       0.00245404      -0.00354754       0.00241231
C        4.91540026      -0.00369051       3.44340760       0.00000000      -0.00240868       0.00510740       0.00895733
C        3.62329030       2.07479339       3.22315744       0.00000000      -0.00300308       0.00296563      -0.00465436
S        1.34549502       6.44388255       4.85247915       0.00000000      -0.01534541       0.00331775      -0.00008953
C        0.00320161       8.54325542       3.74028294       0.00000000       0.00350975       0.00214688      -0.00144600
C        7.37424867       0.00362318       3.40248023       0.00000000       0.00145793       0.00248154      -0.00126337
C        6.11285291       2.16397856       3.23331332       0.00000000      -0.00439366      -0.00551552       0.00505106
C        4.94380809       4.39124641       3.02453237       0.00000000      -0.00373433       0.00537923      -0.00180932
O        3.78876031       6.51182452       3.16139238       0.00000000      -0.00581881       0.00451073      -0.00755827
C        2.47768371       8.53423966       3.52141063       0.00000000       0.00315820      -0.00060045      -0.00476201
C        9.84085818       0.00774130       3.47161944       0.00000000      -0.00590729      -0.00065319       0.00053348
C        8.58764421       2.14507833       3.47720626       0.00000000      -0.00179976      -0.00164639       0.00559528
C        7.36098451       4.29174337       3.40005174       0.00000000      -0.00305773       0.00170855      -0.00248616
C        6.17714820       6.45048593       3.36968242       0.00000000      -0.00168539      -0.00838886      -0.00481865
C        4.92980002       8.56626338       3.43075047       0.00000000       0.00942771      -0.00320648       0.00939395
C       -0.04145762       1.42142184       3.82327049       0.00000000       0.01084751       0.00133328      -0.00468313
C       -1.34047904       3.52755225       4.04110888       0.00000000       0.01161238       0.00288452      -0.00368267
C       -2.50984745       5.69373349       3.80995397       0.00000000      -0.00204795      -0.00510486       0.00667256
C       -3.70475314       7.83428770       3.62494306       0.00000000      -0.00199014      -0.00028792      -0.00429932
C       -4.95296945       9.97141096       3.61185998       0.00000000      -0.00316934      -0.00064516      -0.00254430
C        2.44368872       1.39906826       3.61927166       0.00000000      -0.00159600       0.00969048      -0.00573368
P        1.23906837       3.35278334       5.23134989       0.00000000      -0.00329228       0.00242451      -0.00211846
C       -0.17270779       5.68288503       4.47594820       0.00000000       0.01163935      -0.00229671      -0.01019870
C       -1.23392197       7.82902005       3.83328000       0.00000000       0.00713246      -0.01278898      -0.00176151
C       -2.47253112       9.95943685       3.55982236       0.00000000      -0.00470220       0.00513809       0.00422541
C        4.88999963       1.43044935       3.26991196       0.00000000      -0.00759557       0.00318695       0.00390227
S        3.45516905       3.64717538       2.49801684       0.00000000       0.00011146      -0.01394896       0.00943980
C        1.25324211       7.89573245       3.88136804       0.00000000       0.00272097       0.00446792       0.00319686
C       -0.01548614       9.96969496       3.49449746       0.00000000       0.00140990       0.00613450      -0.00161198
C        7.34950714       1.44377982       3.34611735       0.00000000      -0.00011159      -0.00414896      -0.00128878
C        6.11552011       3.60387454       3.20422196       0.00000000      -0.00358160      -0.00320789      -0.00007455
C        4.97256321       5.78520693       3.17947592       0.00000000      -0.00721667       0.00325796      -0.00424978
C        3.73376011       7.86562064       3.40566072       0.00000000       0.00726345       0.00289011      -0.00421969
C        2.44964343       9.96855451       3.42438830       0.00000000      -0.00323692      -0.00164494      -0.00294141
C        9.82436194       1.43039630       3.57955496       0.00000000       0.00082092       0.00325005       0.00270661
C        8.58398288       3.56652400       3.54611337       0.00000000      -0.00194777      -0.00073378      -0.00047741
C        7.38830192       5.70785285       3.46192504       0.00000000       0.00008842       0.00254103      -0.00970875
C        6.17181390       7.86250971       3.45328146       0.00000000       0.00126602      -0.01264947       0.00398145
C        4.91054039       9.99104743       3.50736825       0.00000000      -0.00386773       0.00057884       0.00516536
Fe       1.66692182       4.59814160       3.52020325       0.00000000       0.00166686       0.00265162       0.01241847
O        2.27432758       4.20251181       9.98915687       1.00000000       0.00424487       0.00074138      -0.00429106
O        3.28608517       4.91369096       9.99106927       1.00000000      -0.00501507      -0.00525210       0.00105907
