52
Lattice="12.336457 0.0 0.0 -6.168228499999997 10.683685154694365 0.0 0.0 0.0 15.0" Properties=species:S:1:pos:R:3:forces:R:3 energy=-441.5729585267572 free_energy=-441.5729585267572 stress="-0.0011579189953543152 -0.0032949933297487482 1.586984976734813e-05 -0.0032949933297487482 -0.0022552501506733916 -8.890548462018231e-06 1.586984976734813e-05 -8.890548462018231e-06 2.580493242030474e-05" pbc="T T T"
C       -0.03632397       0.03462384       3.79844402      -0.00165233       0.00013809       0.00542516
C       -1.30152150       2.15253263       3.57191240       0.00925480       0.00126545      -0.01026820
C       -2.54702434       4.29716876       3.61536216       0.00062404      -0.00515577       0.00805528
C       -3.72821045       6.44358625       3.80450020      -0.00413294       0.00544546      -0.00199475
C       -4.95151699       8.58175222       3.87047230      -0.00918329       0.00496158       0.00338507
C        2.44116800       0.00616292       3.77659657       0.00253693      -0.00106006       0.00119750
C        1.19163583       2.10317391       3.41039558      -0.00042538      -0.00209497       0.00081185
C       -0.24892537       4.26125082       2.82719361       0.00321826      -0.00681662      -0.00298865
C       -1.30553694       6.44503989       3.37632829       0.00451362      -0.00006706      -0.00312547
C       -2.47699765       8.56819188       3.72968439      -0.00623086      -0.00148514       0.00068836
C        4.90630405       0.02184395       3.94439607       0.00607589      -0.00127340       0.00233475
C        3.61003689       2.09296344       4.17191548      -0.00080670       0.00090484      -0.00423107
P        1.39929888       6.44751331       2.54754773      -0.00123901      -0.00108623       0.00373463
C       -0.00563813       8.57016694       3.66397261       0.00158494      -0.00134599      -0.00145619
C        7.36594346       0.02971680       4.01068590      -0.00263501      -0.00251929      -0.00783391
C        6.10865862       2.18904185       4.17969029       0.00434636       0.00214171      -0.00288580
C        4.94291928       4.43099547       4.43847251       0.00431690       0.00002432      -0.00692083
O        3.78039031       6.54184755       4.33722657       0.00352671       0.00639498       0.00296688
C        2.47092282       8.56155258       3.91964574      -0.00554623       0.00225014       0.00000373
C        9.83199399       0.03436309       3.95732343      -0.00331929       0.00683175      -0.00277068
C        8.57920696       2.17374139       3.94457507      -0.00501527      -0.00291217      -0.00999014
C        7.35520429       4.32157077       4.04555727       0.00156032       0.00410640      -0.00204583
C        6.17313270       6.48664988       4.10541183       0.00164524      -0.00628691      -0.00310549
C        4.92297460       8.59584240       4.02625560       0.00330878      -0.00435593      -0.00250953
C       -0.05547767       1.45072028       3.59418624       0.00481773      -0.00070294       0.00414385
C       -1.35424930       3.55425465       3.34578001       0.00712277      -0.00156879       0.00262357
C       -2.52068168       5.72483690       3.60112120      -0.00024473      -0.00071903       0.00643060
C       -3.71561556       7.86581325       3.79448690      -0.01118315       0.00610592       0.00794055
C       -4.96360072      10.00111643       3.79686014      -0.00157714       0.00402949       0.00404626
C        2.43167415       1.43059350       3.77088907      -0.00482082      -0.00168330       0.00940799
S        1.17717704       3.38415544       2.17030064      -0.00783032      -0.00156930       0.00756912
C       -0.17719942       5.70787751       2.91891696       0.00638621      -0.00688425       0.00468435
C       -1.24845262       7.85921681       3.57325057       0.00103874       0.00019188       0.00831849
C       -2.48526476       9.98902756       3.82537120       0.00431770      -0.00205815       0.00328608
C        4.87662137       1.45281480       4.12903668       0.00221453       0.00204925       0.00367473
P        3.38284727       3.70850325       4.91942184       0.00784949      -0.00109953      -0.00261059
C        1.25056066       7.90345947       3.56247120      -0.00098495       0.00036518      -0.00790224
C       -0.02646887       9.99611177       3.90329766       0.00290668      -0.00340780      -0.01021652
C        7.34407539       1.46753436       4.06977484      -0.00206981      -0.00525785      -0.00033233
C        6.11125162       3.63543919       4.23934462       0.00509744       0.00458002      -0.00441254
C        4.96877489       5.81869542       4.30042413       0.00026679      -0.00062607      -0.00332111
C        3.72426619       7.88911250       4.06361990      -0.00067972       0.00612481       0.00268336
C        2.44253684       9.99383122       4.00540738      -0.00552750       0.00315855       0.00505397
C        9.81830423       1.45989593       3.84100701       0.00368536       0.00922299      -0.00130854
C        8.57379844       3.59590151       3.88122214      -0.00391428      -0.00314314       0.00380748
C        7.38241229       5.74104547       3.99254710       0.00182262       0.00173037       0.00439171
C        6.16482278       7.89408697       4.00644575       0.00075762      -0.00850322      -0.00356253
C        4.90062206      10.01739430       3.93051741      -0.00297671      -0.00136662       0.00270897
Fe       1.58142698       4.68792479       3.94298783      -0.00049953       0.00595590      -0.00917378
O        3.51037850       3.50400508       6.54137457      -0.00071967       0.00117972      -0.00502977
O        2.29564141       4.14769539       7.21519293      -0.00569569      -0.01269155       0.00726198
H        2.78576582       4.77766147       7.77751428      -0.00588613       0.00858224      -0.00663978
