52
Lattice="12.336457 0.0 0.0 -6.168228499999997 10.683685154694365 0.0 0.0 0.0 15.0" Properties=species:S:1:pos:R:3:forces:R:3 energy=-444.4580699826552 free_energy=-444.4580699826552 stress="-0.0010199207972135236 -0.0019201361249283786 7.959711686724035e-06 -0.0019201361249283786 0.004222317571214544 9.299479457509212e-06 7.959711686724035e-06 9.299479457509212e-06 1.7370214798709562e-05" pbc="T T T"
C        0.02671750       0.03065615       3.88527098      -0.00543200       0.00558448      -0.00551469
C       -1.22252082       2.15727453       3.88365057      -0.00132126      -0.00517812       0.00284238
C       -2.44320314       4.29522787       3.87477011      -0.00159987       0.00746025      -0.00798623
C       -3.66127506       6.43603488       3.86516589       0.00170321       0.00259134      -0.00252462
C       -4.90005501       8.58324803       3.88455923       0.00284512       0.00049698      -0.00880005
C        2.49004379       0.04977705       3.82848277      -0.00770711      -0.00553417      -0.00693253
C        1.22576102       2.16332469       3.81443678       0.00676840       0.00432393       0.00433434
C       -0.01697706       4.30339934       3.93447321      -0.00585183       0.00120689      -0.00334884
C       -1.19860348       6.42127445       3.91494237       0.01183446       0.00227899      -0.00427382
C       -2.42546364       8.57070993       3.87187387      -0.00319402       0.00410636       0.01912807
C        4.96592746       0.01954401       3.74423415       0.00610056       0.00793986       0.00304917
C        3.71235746       2.13417893       3.41919670      -0.00473948      -0.00486022       0.00082759
O        1.18749499       6.43527640       4.00415559       0.00492545       0.00586621      -0.00267815
C        0.04565291       8.53831946       3.87336000      -0.01093958      -0.00036497       0.00394493
C        7.43401507      -0.00348361       3.79436585       0.00467630      -0.00194921      -0.00239075
C        6.19472211       2.16402723       3.60577629       0.00153640      -0.00386228      -0.00375967
C        5.00409323       4.37041711       3.39748352       0.00726630      -0.00730116       0.01223258
O        3.82002335       6.46804411       3.65461198       0.00583345      -0.00028222       0.00566741
C        2.49817028       8.48415744       3.87502542      -0.00742864       0.00208295       0.00301420
C        9.88416157      -0.00349465       3.86325985      -0.00243373      -0.00244848      -0.00558137
C        8.65347928       2.15054340       3.80262182      -0.00542533      -0.00040980      -0.00434161
C        7.43202295       4.30109284       3.73153268      -0.00266717      -0.00083086       0.00040933
C        6.22900110       6.46560776       3.74223297       0.00322714       0.00114151      -0.00680468
C        4.96155431       8.56014369       3.85542419       0.00465886      -0.00047174       0.00819253
C        0.02128639       1.46491242       3.87308233       0.00759744       0.00578466       0.00314122
C       -1.21155426       3.58424770       3.89737134      -0.00588392      -0.00239538       0.01869938
C       -2.43195231       5.71231725       3.89037170       0.00800655       0.00867867      -0.00651080
C       -3.66317732       7.86416252       3.88293253       0.00041271       0.00065704      -0.00424498
C       -4.90235134      10.01642732       3.88508838      -0.00995431      -0.00110353       0.00846362
C        2.46934943       1.48372636       3.70655971      -0.00027585      -0.00604555      -0.00152563
O        1.18267125       3.56170153       3.93491685      -0.00660812       0.00053089      -0.00571125
C       -0.00417463       5.70135453       3.95027153       0.01090271       0.00195513      -0.00715561
C       -1.20084418       7.84683035       3.88779828      -0.00710131       0.00091191       0.01563458
C       -2.43974495      10.00545774       3.82025847       0.00150293       0.00521779      -0.00054890
C        4.95399729       1.44926399       3.57945763       0.00002924       0.00677531      -0.00115426
P        3.65130387       3.65206559       2.51924513       0.00729711      -0.00423069       0.01342052
C        1.24027414       7.82773747       3.92230638      -0.00967449       0.00285856      -0.01696566
C        0.03349516       9.97859343       3.80233379       0.00444192      -0.00035775      -0.00029692
C        7.42244660       1.43810891       3.73789010      -0.00048572      -0.00475817      -0.00890412
C        6.20643761       3.59611967       3.57215883       0.00430269      -0.00804651      -0.00515978
C        5.04317632       5.77826967       3.55683139       0.00430650      -0.00458681      -0.00300721
C        3.76527805       7.86254248       3.83364599      -0.00090368       0.00315452       0.00545686
C        2.49147976       9.94239414       3.84682526       0.00075992      -0.00058145       0.00505267
C        9.89098311       1.43937324       3.85626098      -0.00579065      -0.00289351       0.00868802
C        8.65861828       3.57904891       3.80828021      -0.00371778       0.00295365       0.00099244
C        7.45031083       5.72482898       3.78543484      -0.00091317       0.00011081       0.00170115
C        6.21604268       7.87722441       3.84229824       0.00827398       0.00081570      -0.00962546
C        4.95848805       9.99243024       3.88308923      -0.00273322       0.00121044      -0.00672380
Fe       2.85277156       4.86259892       4.57142784      -0.00626685      -0.00849676       0.00795815
O        3.05704217       3.89503706       6.14674348       0.00148445       0.00499135      -0.01001278
O        1.74332693       4.56530894       6.41763838      -0.00842949      -0.01174935      -0.00716745
H        1.98756992       5.01934718       7.24387168       0.00678479      -0.00294750       0.00680045
