51
Lattice="12.336457 0.0 0.0 -6.168228499999997 10.683685154694365 0.0 0.0 0.0 15.0" Properties=species:S:1:pos:R:3:initial_magmoms:R:1:forces:R:3 energy=-436.5147883522986 free_energy=-436.5147883522986 stress="-0.0008170658856419197 -0.003317857153092439 -4.153318120009363e-06 -0.003317857153092439 -0.0022805272513528214 9.99017512817365e-06 -4.153318120009363e-06 9.99017512817365e-06 7.302304082473946e-06" pbc="T T T"
C        0.09531242      -0.06686228       3.62034441       0.00000000      -0.00618923       0.00929950       0.00240310
C       -1.16975342       2.05363629       3.39722706       0.00000000      -0.00087554      -0.00054642      -0.01970062
C       -2.41279462       4.19963397       3.47445791       0.00000000       0.00217775       0.00460667      -0.01177313
C       -3.59457514       6.34529999       3.68027073       0.00000000      -0.00390576      -0.00303034      -0.01090649
C       -4.81964115       8.48305508       3.73262328       0.00000000      -0.00696476       0.00372920      -0.01056737
C        2.57202399      -0.09123983       3.56583113       0.00000000      -0.00609388       0.00092950       0.00614549
C        1.31651507       1.98665960       3.16514204       0.00000000       0.01025575       0.00938866       0.01291652
C       -0.12308733       4.16465860       2.65968491       0.00000000       0.00107686       0.00092101      -0.00160222
C       -1.17280870       6.34613086       3.22948101       0.00000000       0.00611182      -0.01190984       0.00176325
C       -2.34526547       8.47055000       3.56871848       0.00000000       0.00594150       0.00348252      -0.00397177
C        5.03904703      -0.06981159       3.72214733       0.00000000      -0.00185315       0.01106213       0.01496534
C        3.74692658       2.02706038       3.86948942       0.00000000       0.00536751      -0.00601591      -0.00272317
P        1.52445026       6.35079976       2.37094735       0.00000000      -0.00628103      -0.00006421      -0.00055936
C        0.12709993       8.47396376       3.48469395       0.00000000       0.00222325      -0.00858744       0.00461492
C        7.49913028      -0.06587050       3.81404679       0.00000000      -0.01157645      -0.00274545      -0.00299645
C        6.23768100       2.09344995       3.96650227       0.00000000       0.00135464       0.00407233       0.01221592
C        5.05467963       4.32053184       4.22889205       0.00000000       0.01036334      -0.00077051      -0.00351750
O        3.90971314       6.44539489       4.16888430       0.00000000      -0.00326618      -0.00418334      -0.01057964
C        2.60239802       8.46476577       3.75070931       0.00000000       0.00894666       0.00164275      -0.01224364
C        9.96482705      -0.06322861       3.78406233       0.00000000      -0.00614925      -0.00673437       0.00353438
C        8.71176498       2.07576242       3.76987363       0.00000000      -0.00295432       0.00251900      -0.00403761
C        7.48540029       4.22287256       3.89200086       0.00000000       0.00232727      -0.00377369      -0.00261743
C        6.30292972       6.38702275       3.98831199       0.00000000      -0.00182431       0.00047152      -0.00398552
C        5.05569411       8.49917576       3.88643468       0.00000000      -0.00247590      -0.00012035      -0.00920515
C        0.07352274       1.34589028       3.39376758       0.00000000       0.00482169       0.00848010      -0.00886239
C       -1.22203792       3.45796816       3.18705884       0.00000000       0.00318980       0.00430496      -0.00010085
C       -2.38689564       5.62723233       3.46891924       0.00000000       0.00197247      -0.00101016      -0.00404639
C       -3.58313977       7.76743108       3.65835378       0.00000000       0.00068522       0.00254521       0.00826963
C       -4.83223430       9.90044903       3.62203602       0.00000000      -0.00993540       0.00673025       0.01516830
C        2.55820331       1.32750537       3.50991378       0.00000000       0.00165042      -0.00335949       0.01083121
S        1.28641799       3.29602366       1.96037147       0.00000000      -0.00414272       0.00499962       0.00901519
C       -0.05012799       5.61195505       2.75999711       0.00000000       0.00939834      -0.00236083       0.00247276
C       -1.11671018       7.76185791       3.41473443       0.00000000       0.00407328      -0.01248862      -0.00893057
C       -2.35273337       9.89292867       3.62504447       0.00000000       0.00037834       0.00988060       0.00765058
C        5.01275571       1.36309075       3.87943217       0.00000000       0.00403688       0.00736069       0.01017377
P        3.51086285       3.58202590       4.67018056       0.00000000       0.01197150      -0.00468776       0.00848403
C        1.38356231       7.80558654       3.38869541       0.00000000       0.00848362       0.00246553       0.00289326
C        0.10633271       9.90212400       3.70066577       0.00000000      -0.00979546      -0.00301624       0.00561307
C        7.47762558       1.36960066       3.87469046       0.00000000      -0.00626957       0.00159430       0.00182956
C        6.23959275       3.53340789       4.04865051       0.00000000       0.00591540      -0.00185559      -0.00300171
C        5.09442436       5.72202567       4.15611419       0.00000000      -0.00033826      -0.00051023      -0.00841016
C        3.85644602       7.79549731       3.90891623       0.00000000       0.00364792      -0.00383434      -0.01462348
C        2.57518553       9.89674695       3.82579268       0.00000000      -0.00754331      -0.00298345       0.01014082
C        9.95184823       1.36239195       3.66759658       0.00000000      -0.00167906      -0.00370518       0.00104611
C        8.70595579       3.49851489       3.72626179       0.00000000       0.00544137       0.00475641       0.00461116
C        7.51487623       5.64260169       3.86570669       0.00000000      -0.00389519      -0.00467676      -0.00369634
C        6.29705871       7.79562913       3.88261279       0.00000000      -0.00410067       0.00213437       0.00111466
C        5.03317133       9.91920058       3.76995237       0.00000000      -0.00387021      -0.00002992       0.00211960
Fe       1.74603027       4.58074799       3.72666405       0.00000000      -0.00945680      -0.01475484       0.00119682
O        0.33819542       5.99836632       9.17496934       1.00000000      -0.01315953       0.00788900       0.00761684
O       -0.64760552       6.57732102       9.64717650       1.00000000       0.01278335      -0.00751055      -0.00614733
