51
Lattice="12.336457 0.0 0.0 -6.168228499999997 10.683685154694365 0.0 0.0 0.0 15.0" Properties=species:S:1:pos:R:3:initial_magmoms:R:1:forces:R:3 energy=-435.7015200715295 free_energy=-435.7015200715295 stress="-0.0006139654728209975 0.003339684983335823 5.372943797316298e-06 0.003339684983335823 -0.00042189518155088065 5.2973331958378896e-06 5.372943797316298e-06 5.2973331958378896e-06 3.2216947860269363e-05" pbc="T T T"
C        0.08935387      -0.11731559       3.89002962       0.00000000      -0.00327500      -0.00239460      -0.01842063
C       -1.10989329       2.04795881       4.12125887       0.00000000      -0.00285753       0.00046815      -0.01045792
C       -2.35916578       4.17925058       3.97373711       0.00000000       0.00325098       0.00953321       0.00900831
C       -3.61261614       6.30524663       3.74110137       0.00000000      -0.00782645      -0.01158551       0.00689436
C       -4.86423644       8.42772263       3.67594010       0.00000000       0.00399941      -0.00491744       0.00460597
C        2.55264667      -0.12526276       3.72870903       0.00000000      -0.00656821      -0.00205416      -0.01386804
C        1.37951625       1.97383024       4.09630062       0.00000000       0.00439432       0.00389008       0.00619394
C        0.05204944       4.28096124       4.34713497       0.00000000       0.00492814       0.00341916       0.00415085
C       -1.17503249       6.34130292       4.01843965       0.00000000       0.00608820      -0.00408052      -0.00452268
C       -2.38792347       8.44348576       3.81028445       0.00000000      -0.00086387      -0.00388401       0.00622742
C        5.02874044      -0.10202595       3.75369831       0.00000000       0.00269312       0.00797906       0.00143071
C        3.80417309       1.97708816       3.34177942       0.00000000       0.00307259      -0.00416494       0.01398462
O        1.22284820       6.39062677       4.24388417       0.00000000      -0.00542157       0.00990573      -0.01116581
C        0.07289287       8.45217733       3.95412242       0.00000000       0.01379700      -0.00462344      -0.00354384
C        7.50000286      -0.10939078       3.90108538       0.00000000      -0.00115750       0.00426206      -0.01427924
C        6.29698039       2.01267803       3.52218632       0.00000000       0.00138687       0.00123092       0.00675947
C        5.25278023       4.11659137       2.74798174       0.00000000       0.00009667      -0.00445160       0.00848248
P        3.61270188       6.29824427       2.46916780       0.00000000      -0.01221124      -0.00160243       0.00842132
C        2.52662095       8.41380942       3.83765957       0.00000000       0.00108133       0.00578519       0.00443844
C        9.96661313      -0.11585570       3.95191349       0.00000000      -0.00385810      -0.00647244      -0.01708328
C        8.75329706       2.03057760       3.88822108       0.00000000      -0.00225931       0.00372796      -0.00216824
C        7.54243632       4.15676649       3.56190079       0.00000000      -0.00109517      -0.00305124       0.00033420
C        6.29933041       6.29949090       3.30978960       0.00000000       0.00191082       0.00563540       0.00636040
C        5.00193835       8.42496515       3.59811587       0.00000000      -0.00029714      -0.00234767       0.00118985
C        0.11589982       1.31813174       4.06566678       0.00000000       0.00135041      -0.00197957       0.00084016
C       -1.11604403       3.48787361       4.16497760       0.00000000       0.00373165       0.00522978      -0.00753497
C       -2.38398718       5.60016186       3.91491238       0.00000000      -0.00144947       0.00390383       0.00142523
C       -3.62452424       7.72766576       3.73793070       0.00000000       0.00005461      -0.01429559      -0.00206083
C       -4.85578780       9.85179463       3.77584364       0.00000000      -0.00259411      -0.00555323      -0.00747904
C        2.56509465       1.30303435       3.69485727       0.00000000       0.00024817      -0.00210716       0.00476396
S        1.54553321       3.54042250       4.84839947       0.00000000      -0.00535302       0.00026777       0.01008600
C        0.02983893       5.67641292       4.20769374       0.00000000       0.00638740       0.00390031       0.00206116
C       -1.16869061       7.75382694       3.93361110       0.00000000       0.00874869      -0.00501079      -0.01343992
C       -2.37818258       9.86507348       3.74957791       0.00000000      -0.00192889       0.00482641       0.00518603
C        5.04779316       1.31539287       3.54919027       0.00000000       0.00056710       0.00924441       0.01478190
S        3.88905361       3.19186368       2.01314525       0.00000000       0.00426194       0.00444539      -0.00261967
C        1.27105630       7.74507526       3.96633534       0.00000000       0.01031495      -0.00523525      -0.00053406
C        0.09214056       9.87530523       3.87401373       0.00000000       0.00297769       0.00232373      -0.00576718
C        7.51283039       1.31656889       3.79023763       0.00000000      -0.00238343       0.00329068       0.00182457
C        6.34987405       3.41455802       3.29070944       0.00000000       0.00422132      -0.00803178      -0.00177000
C        5.17756662       5.55991415       2.84218296       0.00000000       0.00201720       0.00205533       0.01009638
C        3.74807219       7.75425429       3.48187811       0.00000000      -0.00511282       0.00419644      -0.00304700
C        2.55457430       9.84797770       3.93869580       0.00000000      -0.00343577       0.00252594       0.00572400
C        9.99043315       1.32489240       4.01215470       0.00000000      -0.00670576      -0.00434753       0.00742636
C        8.75688813       3.45307611       3.82274617       0.00000000       0.00378480       0.00734148       0.00637757
C        7.51738284       5.58492589       3.54401700       0.00000000      -0.00554925      -0.00548185      -0.01033908
C        6.24515001       7.71545928       3.51155962       0.00000000       0.00298468       0.00611811       0.00592256
C        5.02155403       9.85059054       3.84422209       0.00000000      -0.00296092      -0.00550965      -0.00659113
Fe       3.30223608       4.43164196       3.73795244       0.00000000      -0.00695868       0.00402817       0.00000410
O       -0.26757720       7.05172444       6.73996089       1.00000000       0.00220509      -0.01244307      -0.00641708
O        0.79915308       7.66269957       6.80313720       1.00000000      -0.00843196       0.00609077      -0.00189269
