52
Lattice="12.336457 0.0 0.0 -6.168228499999997 10.683685154694365 0.0 0.0 0.0 15.0" Properties=species:S:1:pos:R:3:forces:R:3 energy=-439.9334505419353 free_energy=-439.9334505419353 stress="-0.0009380398154894325 0.0009126415022465011 2.639563809030043e-05 0.0009126415022465011 -0.006192694695768508 -2.063573063663213e-05 2.639563809030043e-05 -2.063573063663213e-05 -2.887844858988169e-05" pbc="T T T"
C        0.03307944      -0.02519016       3.62481718      -0.00322699      -0.00735681       0.00316174
C       -1.17854581       2.14777662       3.67245528       0.00320750      -0.00235957      -0.00005014
C       -2.39417685       4.27328183       3.85959636      -0.00546754       0.00460124       0.00900384
C       -3.65031364       6.39998768       3.80497675       0.00171207      -0.00434271       0.00979458
C       -4.91109315       8.51476642       3.65368889       0.00181301       0.00461850       0.00092868
C        2.49888435      -0.06321730       3.76834682       0.00077837       0.00245153      -0.00580674
C        1.29579895       2.04322147       3.42695298      -0.00095558      -0.01062335       0.00458966
C        0.08955056       4.33944717       3.78453942       0.01463859       0.00445875      -0.00986012
C       -1.19623085       6.42949311       4.02465087       0.00610964       0.00337850       0.00183674
C       -2.42968805       8.52868476       3.89347789      -0.01046441       0.00418249      -0.00374388
C        4.96926901      -0.00866293       3.94645198       0.01299725       0.00343564      -0.00107591
C        3.70651509       2.06546225       3.95027927      -0.00377300       0.00317078       0.00355971
O        1.23297267       6.50484232       4.03931605      -0.00407934      -0.00130859      -0.01387759
C        0.03650387       8.55007433       3.92048646      -0.00232983      -0.01105244       0.00579936
C        7.44206405       0.00165067       3.89956104       0.00074905       0.00543225       0.00197852
C        6.20919653       2.13995645       3.96469862      -0.00423254       0.00238514      -0.00239582
C        5.01442007       4.31517313       3.70337600       0.00531297      -0.00582964      -0.01448599
S        3.68583276       6.36544633       2.51415602      -0.00966740      -0.01252386      -0.00694463
C        2.47945368       8.53700010       3.65553873       0.00092313       0.00374845      -0.00490865
C        9.90514548      -0.00125600       3.71561967      -0.00137222      -0.00117110       0.01451013
C        8.68709718       2.13702498       3.85442307      -0.00261785      -0.00404478       0.00472962
C        7.46306990       4.26670895       3.80291120      -0.00424167      -0.00320117       0.00232898
C        6.24322420       6.40196907       3.45293754       0.00295094       0.00622861       0.00447155
C        4.95611992       8.53342422       3.47786233       0.00387607       0.00592655       0.00279376
C        0.04268708       1.40615315       3.56419738       0.00193707      -0.01276529       0.00028521
C       -1.15027459       3.57897130       3.77431125       0.00099813       0.00468070      -0.00062263
C       -2.41614742       5.69410193       3.91896133       0.00701162       0.00559830       0.00199826
C       -3.66692933       7.81687095       3.78657436      -0.00460379      -0.00434398      -0.00546983
C       -4.90951305       9.93288119       3.67517562      -0.00017464       0.00087074      -0.00152132
C        2.50312682       1.34367479       3.71194187       0.00189039      -0.00294370      -0.00895560
P        1.52317584       3.69375257       2.83473158       0.00277908      -0.00191062      -0.01185358
C        0.03261155       5.76765345       4.04755865       0.00478748      -0.00143020      -0.00413860
C       -1.20078214       7.83824748       3.97290561      -0.01008566       0.00246936       0.00216987
C       -2.42872718       9.94632905       3.88035360       0.00413772       0.00780802       0.00783884
C        4.96627787       1.42097152       3.97870201      -0.00198168       0.00674838       0.00962670
P        3.42895119       3.76811342       4.27704401      -0.00628118      -0.00172253      -0.00280600
C        1.23819309       7.86630450       3.82711704      -0.00064831      -0.00479940      -0.00119980
C        0.03983826       9.97974006       3.93071174       0.01028244      -0.01008109      -0.00970027
C        7.44374885       1.43113460       3.92257347      -0.00568221       0.00401433      -0.00377296
C        6.22055486       3.56200289       3.85242059       0.00157200      -0.00329420      -0.00583317
C        5.06914419       5.65449407       3.27165831       0.00198055       0.00042223       0.00176895
C        3.70860920       7.88866711       3.31656863       0.00448425       0.00260435      -0.00002723
C        2.49900748       9.96602430       3.77868503      -0.00234225       0.00480988      -0.00154544
C        9.92081407       1.43098281       3.75734822       0.00127189      -0.00227142       0.01199839
C        8.69775522       3.55831465       3.85129044      -0.00768076      -0.00346895       0.00449822
C        7.46505432       5.68629412       3.68974134      -0.00016215      -0.00341404       0.00083425
C        6.19988250       7.81613701       3.48323434       0.00650070       0.00854275      -0.00414042
C        4.96392439       9.96237721       3.62265270      -0.00445242       0.00203378       0.00255021
Fe       1.24348720       4.59870909       5.76668307       0.00780413       0.00483053       0.00047693
O        0.96430040       3.24077551       6.94164550      -0.00363544       0.00965937       0.00774743
O        1.21797767       4.43441815       7.85914103      -0.00256808       0.01127492      -0.00347937
H        1.96494500       4.06200018       8.35529818      -0.00977915      -0.01412662       0.00693558
