52
Lattice="12.336457 0.0 0.0 -6.168228499999997 10.683685154694365 0.0 0.0 0.0 15.0" Properties=species:S:1:pos:R:3:forces:R:3 energy=-439.0767474795358 free_energy=-439.0767474795358 stress="-0.0009004934313978401 0.0030083931179828056 3.528506818109697e-05 0.0030083931179828056 -0.0006726093327464456 -2.4804797086085153e-05 3.528506818109697e-05 -2.4804797086085153e-05 -3.623858507116617e-06" pbc="T T T"
C       -0.01439675      -0.04229893       3.93758860       0.00762761       0.00561711       0.00533463
C       -1.21420651       2.12273227       4.18797702      -0.00000739      -0.00658280      -0.00814736
C       -2.46012272       4.25464769       4.05751367      -0.00103120       0.00321332      -0.00359922
C       -3.71406025       6.37878743       3.83160297      -0.00066836       0.00821870      -0.00076803
C       -4.96411378       8.50292884       3.74439677      -0.00382328      -0.00531949      -0.00227291
C        2.45055259      -0.05006792       3.81468485      -0.00285937       0.00093162       0.00612775
C        1.26715324       2.04738793       4.17110698       0.00221036       0.00431375       0.00859089
C       -0.04006765       4.34652764       4.39651878       0.01004062       0.00495601       0.01179264
C       -1.27392307       6.41275631       4.10470159       0.00236754       0.00559746      -0.01003629
C       -2.48960066       8.51812154       3.91327161      -0.00175337      -0.00318935       0.00632280
C        4.92731670      -0.02620469       3.86688754       0.00478302      -0.00679328       0.00063758
C        3.70329177       2.05277963       3.46703479      -0.00370516       0.00805107       0.00141395
O        1.12768114       6.45533731       4.22745205      -0.00298332       0.00341750      -0.00056680
C       -0.02718188       8.52567393       4.04738429       0.00074026      -0.00312344      -0.00654132
C        7.39852835      -0.03491771       3.99174485      -0.00209362       0.00563242      -0.00408257
C        6.19318351       2.09034539       3.63437339      -0.00338565      -0.00197236      -0.00585242
C        5.14370971       4.18979247       2.85789680       0.00552335       0.00706262      -0.00000635
P        3.51117223       6.36840869       2.53251808      -0.00283368      -0.01095679      -0.00198051
C        2.42760284       8.48997782       3.88707898      -0.00674302       0.00526886      -0.00189987
C        9.86454443      -0.03992737       4.00701966      -0.00226060      -0.00108221      -0.00126346
C        8.65023600       2.10708953       3.97369893      -0.00079491      -0.00913851       0.00174281
C        7.43911591       4.23252303       3.65509268      -0.00134396      -0.00313132      -0.00050381
C        6.19988404       6.37503545       3.38160755       0.00367542      -0.00626331       0.00109501
C        4.90190516       8.50318026       3.64334497       0.00392372       0.00868681       0.00362282
C        0.00968136       1.39246373       4.12507732       0.00368794       0.00066999      -0.00388865
C       -1.21594540       3.56160361       4.23302657       0.00584885      -0.00053449      -0.00685748
C       -2.48655140       5.67271214       4.00842701      -0.00084211       0.00930124       0.00337160
C       -3.72533554       7.80163967       3.82576922      -0.00198594       0.00198623      -0.00486115
C       -4.95824123       9.92710176       3.83760400       0.00214560      -0.00635446       0.00757024
C        2.46206413       1.37823597       3.79884269      -0.00618075       0.00565862      -0.00358860
S        1.42003952       3.58214587       5.00464373      -0.00136903      -0.01634752      -0.00228737
C       -0.06432627       5.74039619       4.24238309       0.00150655       0.00362143       0.00095112
C       -1.26863908       7.82665905       4.03361845       0.00200955       0.00267721      -0.00210943
C       -2.47955020       9.94035028       3.85059427      -0.00100757      -0.00422227       0.01068536
C        4.94537319       1.39326587       3.67051671      -0.00233940      -0.00315322      -0.00621351
S        3.77028047       3.27417806       2.15996974       0.01043128      -0.00540171      -0.00191740
C        1.17403213       7.81602036       4.01998779      -0.00329647      -0.00189445       0.00495114
C       -0.00828392       9.95091443       3.97982665       0.00557879      -0.00722102      -0.00604199
C        7.41006023       1.39315489       3.88771699      -0.00110770      -0.00032715      -0.00502638
C        6.24374706       3.49051024       3.39433573      -0.00258443       0.00072867       0.00588417
C        5.07628756       5.63085589       2.92422050      -0.00181070       0.00037401      -0.00006357
C        3.64841607       7.83659929       3.52378080      -0.00163820       0.00730895      -0.00044090
C        2.45298061       9.92216161       4.00490584      -0.00593109       0.00560769      -0.00618031
C        9.88751189       1.39988662       4.08036446      -0.00375067      -0.00748704       0.00682108
C        8.65413376       3.52955445       3.91296165      -0.00181942      -0.00749749      -0.00612251
C        7.41548244       5.66012227       3.62773176       0.00141453      -0.00130244      -0.00370139
C        6.14638697       7.79262532       3.57042202      -0.00076121      -0.00738924       0.01065563
C        4.91903058       9.92763479       3.88754603       0.00488637       0.01260073       0.00515553
Fe       3.15306197       4.55591555       3.90666875       0.00850517      -0.01013631       0.00416601
O        2.55215362       5.56697643       6.23752991       0.01013264       0.00616803      -0.00764926
O        3.04138901       4.88767441       7.35881200      -0.01723672       0.00206749       0.00519544
H        3.97830193       5.17160647       7.39905318      -0.00709085       0.00708410       0.00238262
