52
Lattice="12.336457 0.0 0.0 -6.168228499999997 10.683685154694365 0.0 0.0 0.0 15.0" Properties=species:S:1:pos:R:3:initial_magmoms:R:1:forces:R:3 energy=-449.50886725144926 free_energy=-449.50886725144926 stress="-0.0061868206204353 2.0222992480551573e-05 1.4995662148065561e-05 2.0222992480551573e-05 -0.0037982501969240317 6.968342507792903e-06 1.4995662148065561e-05 6.968342507792903e-06 -2.9588903874767314e-06" pbc="T T T"
C       -0.00364825      -0.00555536       3.85618740       0.00000000       0.00252498      -0.00266828       0.00149277
C       -1.24459131       2.12254459       3.91054329       0.00000000      -0.00285400       0.00123585       0.01090435
C       -2.48164919       4.26731875       3.95646399       0.00000000      -0.00162103       0.00104483      -0.00592865
C       -3.70357279       6.41085732       3.93647375       0.00000000      -0.00031998       0.00299107      -0.00212682
C       -4.93662920       8.54835602       3.84042297       0.00000000       0.00694121      -0.00897053      -0.00097692
C        2.46525854       0.00748423       3.82942870       0.00000000      -0.00891575      -0.00193130       0.00264885
C        1.21553317       2.12088524       3.62696372       0.00000000      -0.00410885       0.00034349       0.00160793
C       -0.08715855       4.23865636       3.44748701       0.00000000       0.01141180      -0.00080842      -0.00220751
C       -1.27322874       6.40564733       3.59907930       0.00000000       0.00176034       0.00624229       0.00188754
C       -2.47013565       8.54778192       3.84241280       0.00000000      -0.01322119       0.00355821      -0.00362563
C        4.93273644      -0.00502351       3.85625909       0.00000000       0.00650357      -0.00268079       0.00375414
C        3.71500111       2.12139085       3.62603423       0.00000000      -0.00558405      -0.00119616      -0.00522521
P        2.46458161       4.30619793       2.55805079       0.00000000      -0.01071296       0.00133840       0.00761366
P        0.86761187       6.50640294       1.93930644       0.00000000       0.00490888      -0.00638025      -0.00003983
C       -0.02078105       8.55847535       3.52851492       0.00000000      -0.00093964      -0.00020796       0.00561106
C        7.39656056      -0.00504968       3.82974619       0.00000000       0.01055721      -0.00033635       0.00209587
C        6.17453804       2.12353872       3.90791391       0.00000000       0.00812417      -0.01075454       0.00991865
C        5.01723935       4.23902939       3.44204111       0.00000000      -0.00629800      -0.00344695       0.00364592
P        4.05634376       6.50581290       1.93857016       0.00000000       0.01747245      -0.00295561      -0.00471817
C        2.46436486       8.63941521       3.21908266       0.00000000      -0.00365965       0.00788764      -0.00246542
C        9.86870176      -0.00542159       3.82957354       0.00000000      -0.00417226      -0.00145673       0.00542326
C        8.63332050       2.12397813       4.02705613       0.00000000      -0.00555700      -0.00630566      -0.00098874
C        7.41190790       4.26756489       3.95243764       0.00000000      -0.00385169       0.00296396      -0.00052564
C        6.20242374       6.40597262       3.59565255       0.00000000       0.00163752       0.00790101       0.00056015
C        4.94944921       8.55808601       3.52711921       0.00000000       0.00501144       0.00277080       0.00666250
C       -0.01110949       1.41228545       3.82973143       0.00000000      -0.00039960       0.00289884       0.01162911
C       -1.26648025       3.54494868       3.82503197       0.00000000       0.00374786      -0.00082776      -0.00353536
C       -2.48057678       5.69416341       3.88613129       0.00000000      -0.00015610       0.00781006       0.00165443
C       -3.70345793       7.83757273       3.89537265       0.00000000      -0.00479360      -0.00300304      -0.01235505
C       -4.93513808       9.97322474       3.85420769       0.00000000       0.00082925      -0.00916181       0.00453245
C        2.46542463       1.42600463       3.68118918       0.00000000      -0.00750228       0.00363190      -0.00395163
C        1.12339425       3.50395120       3.33277644       0.00000000       0.00766085      -0.00243389      -0.00482982
C       -0.13977088       5.65571882       3.19669613       0.00000000       0.00450096      -0.00136731       0.00476564
C       -1.24647957       7.83699092       3.65261226       0.00000000      -0.01006353       0.00458177       0.00585571
C       -2.47147046       9.97280669       3.85510571       0.00000000      -0.00631727       0.00076261       0.00409273
C        4.94105952       1.41299891       3.82851871       0.00000000       0.00494560      -0.00135089       0.01341565
C        3.80705531       3.50374960       3.32871720       0.00000000      -0.00778818      -0.00226674       0.00176846
C        1.20100677       7.92585849       3.09380857       0.00000000       0.00119381       0.00415719      -0.00539763
C       -0.00375204       9.96569894       3.77686356       0.00000000       0.01337074       0.00052321      -0.00436967
C        7.40103497       1.41071118       3.97264019       0.00000000       0.00417243      -0.00318040      -0.01185375
C        6.19671132       3.54563962       3.81983451       0.00000000       0.00031271      -0.00715444       0.00010343
C        5.06889397       5.65608439       3.19327667       0.00000000       0.00007690       0.00255519      -0.00267125
C        3.72722016       7.92519955       3.09358400       0.00000000      -0.00416641       0.01098174      -0.00446057
C        2.46431731       9.98446487       3.65884169       0.00000000       0.00096894       0.00544089      -0.00824537
C        9.86523096       1.41014429       3.97378277       0.00000000      -0.00919992      -0.00132943      -0.01278241
C        8.63329777       3.55151876       4.03928546       0.00000000      -0.00350075      -0.00938642      -0.00531858
C        7.41007525       5.69448263       3.88301249       0.00000000      -0.00011788       0.00341642       0.00148236
C        6.17575497       7.83744150       3.65014703       0.00000000       0.01291943      -0.00172193       0.00457317
C        4.93232962       9.96514484       3.77648602       0.00000000       0.00033868       0.00255804      -0.00664745
Fe       2.46303735       6.39096455       3.37471766       0.00000000      -0.00607778       0.00587296      -0.00342670
O        2.46681171       6.48154598       9.50501063       1.00000000       0.00033463      -0.00952893      -0.00309828
O        2.50809629       5.30593895       9.12297174       1.00000000      -0.00032699       0.00934415       0.00407228
