53
Lattice="12.336457 0.0 0.0 -6.168228499999997 10.683685154694365 0.0 0.0 0.0 15.0" Properties=species:S:1:pos:R:3:forces:R:3 energy=-451.12503977885666 free_energy=-451.12503977885666 stress="-0.004068050458806854 0.00040321086952594423 3.831768165530635e-05 0.00040321086952594423 -0.003924641408164117 -6.548757419670474e-06 3.831768165530635e-05 -6.548757419670474e-06 2.848242884491508e-05" pbc="T T T"
C        0.03012197       0.03105624       4.01658124      -0.00305913       0.00320605      -0.00354293
C       -1.21043639       2.15770991       3.99096489       0.00253501       0.00449474      -0.00904204
C       -2.44175220       4.29478622       4.02515447       0.00393301      -0.00165113      -0.01247300
C       -3.66945981       6.43479253       4.07829089       0.00006018       0.00296793       0.00192895
C       -4.91678956       8.56760591       4.01251454      -0.00280159      -0.00818210       0.01116177
C        2.49098269       0.02947120       3.99012773      -0.00118970      -0.00263134       0.00036094
C        1.25130348       2.14799488       3.67649493      -0.00309002      -0.00310307      -0.01417602
C       -0.06497603       4.25965746       3.37399983      -0.00335538      -0.00574625      -0.00439578
C       -1.23767888       6.43779510       3.72456762       0.00224057      -0.00488955       0.00692969
C       -2.43807337       8.56813592       4.00162072       0.01031981      -0.00159410       0.00416333
C        4.95474075       0.02744191       4.05677216       0.00193123       0.00053679      -0.00135582
C        3.73661519       2.15155489       3.75205551       0.00614490       0.00366883      -0.00446343
P        2.59621976       3.87860079       2.02367755       0.01163950      -0.00199118       0.00839487
S        1.01447087       6.59999550       2.25818760      -0.00558962       0.01299102       0.00778436
C        0.01531157       8.58711485       3.76021490      -0.00268380      -0.00098468       0.01216623
C        7.42513969       0.02892642       4.07864766      -0.00431831       0.00055297      -0.00452747
C        6.20120051       2.15037801       4.09053222      -0.00090381       0.00011028       0.00385324
C        5.03125145       4.25487671       3.60781637       0.00379844       0.00549367      -0.00328588
S        3.78231078       6.42623890       2.72480813       0.01360741       0.00248364       0.01426445
C        2.48414066       8.62898973       3.58820075      -0.00457540      -0.00139753      -0.00199824
C        9.89835073       0.03032083       4.05628425      -0.00052636       0.00415061       0.00266404
C        8.66668367       2.15979741       4.18096107       0.00073872      -0.00322012      -0.01115830
C        7.44007928       4.29323703       4.10743496       0.00185336      -0.00166946      -0.00372193
C        6.22165084       6.43081895       3.84585133      -0.00366925      -0.00091005      -0.00698949
C        4.96572071       8.58454516       3.80418128      -0.00407854      -0.00355120       0.00596267
C        0.02779659       1.45463925       3.92892534      -0.00149929       0.00381371      -0.00114163
C       -1.23013168       3.57289883       3.83498172      -0.00024865      -0.00258000      -0.01219879
C       -2.44347197       5.71879830       3.98799373      -0.00043786       0.00027135      -0.00433270
C       -3.67583352       7.85709815       4.04518034       0.00511812       0.00222152      -0.00351158
C       -4.90898092       9.99828056       4.01668584      -0.00517657      -0.00441501      -0.00095895
C        2.48995330       1.45244537       3.80638416       0.00267300       0.00402059       0.00055518
C        1.19222967       3.52895689       3.22518208      -0.00314111       0.00099677       0.00240357
C       -0.13273029       5.68493843       3.24714692      -0.00304058      -0.00699404       0.00964150
C       -1.21424969       7.85866368       3.81683801       0.00406250      -0.00454681      -0.00577922
C       -2.44520525       9.99788708       4.03099950       0.00373266      -0.00130835      -0.00092882
C        4.95844403       1.45025009       4.01269371       0.00376131      -0.00088243      -0.00601764
C        3.80167226       3.53439915       3.36062327       0.00702142       0.00903653       0.00004990
C        1.23146696       7.97606089       3.37640446      -0.00827609       0.00594545       0.00176087
C        0.02101058      10.00357787       4.01082507      -0.00184659      -0.00016131       0.00423502
C        7.43140461       1.44746313       4.16963311      -0.00357014      -0.00029704       0.00335928
C        6.22150991       3.56661561       3.98850542      -0.00045017       0.00124536      -0.00182191
C        5.09577369       5.65683295       3.51294581      -0.00283406       0.00255967       0.00409517
C        3.73518440       7.97381947       3.48008634      -0.00367747      -0.00537670       0.00883178
C        2.49098474      10.01788169       3.95842458      -0.00253937      -0.00326249       0.01187037
C        9.89964604       1.45109511       4.12375045       0.00506196       0.00385794       0.00463396
C        8.66968103       3.58350759       4.15741110       0.00622763      -0.00413921      -0.00427564
C        7.44411812       5.71614554       4.05565914      -0.00245271       0.00089784      -0.00358874
C        6.19363100       7.85645931       3.87295751      -0.00445563      -0.00654392      -0.00796511
C        4.96455500      10.00833338       3.99275168      -0.00188975       0.00071778      -0.00193596
Fe       2.13573916       5.25279713       3.54594589       0.00427294      -0.00463272       0.00329012
O        1.55190813       4.56131202       6.20765128       0.00249034       0.00341853       0.00207755
O        1.72830948       5.33108057       7.32237618      -0.00683365       0.00613452      -0.00902237
H        2.68480603       5.23790101       7.52167299      -0.01101339       0.00086771       0.00817059
