52
Lattice="12.336457 0.0 0.0 -6.168228499999997 10.683685154694365 0.0 0.0 0.0 15.0" Properties=species:S:1:pos:R:3:forces:R:3 energy=-438.51513636336955 free_energy=-438.51513636336955 stress="-0.0044220589871475265 -0.0001345689937274267 -1.3244767474931569e-05 -0.0001345689937274267 -0.007173450101132106 -1.709861411419295e-05 -1.3244767474931569e-05 -1.709861411419295e-05 3.9755211181616365e-05" pbc="T T T"
C       -0.00690045      -0.00613728       3.67962222      -0.00202849       0.00600690       0.00141947
C       -1.23480581       2.14312387       3.75461728       0.00426035       0.00010384      -0.00782115
C       -2.47485506       4.28064775       3.64562878      -0.00042434       0.00701416      -0.00126434
C       -3.69650117       6.41384833       3.55161886       0.00089221       0.00658224       0.00152128
C       -4.94469307       8.53746448       3.62098064      -0.00748429      -0.00755216       0.01357915
C        2.46518340      -0.04016658       3.53816632      -0.00333918       0.00282930      -0.00687811
C        1.26513606       2.07129950       3.84992188       0.00886760       0.00073429      -0.00043326
C       -0.11441124       4.30056056       4.26036744       0.00346896      -0.00916005       0.00200952
C       -1.29296105       6.43898215       4.00872793       0.00105658      -0.00685188       0.00557581
C       -2.46929634       8.54433825       3.66821221       0.00965225      -0.00978495      -0.00468324
C        4.93387839      -0.00488258       3.46738176      -0.00694370       0.00038392       0.01181247
C        3.67134388       2.05606072       3.20607820       0.00028868       0.00617394      -0.00516870
P        1.08863099       6.52110183       5.37339756      -0.00225394       0.00416372      -0.00121692
C       -0.02661944       8.59776747       4.00335380       0.00495654       0.00338661      -0.00840412
C        7.39308423       0.02155623       3.59732558       0.00722811      -0.00408411       0.00387170
C        6.16752809       2.13388138       3.20278953      -0.00070377      -0.00275859      -0.00007843
C        5.00081691       4.31147908       3.07946937      -0.00944801      -0.00327380       0.00934665
P        3.73925429       6.23403053       4.53992070       0.00244191       0.00008429      -0.01514182
C        2.44873810       8.62764052       4.12233443      -0.00240543      -0.00083036       0.00698292
C        9.86443572       0.01769926       3.68777318      -0.00230575      -0.00028555       0.00520695
C        8.63894405       2.14386034       3.45287515       0.00385425       0.00808652       0.00303117
C        7.42155218       4.27857334       3.30178694      -0.00390575       0.00979673       0.00185555
C        6.19759640       6.42094527       3.53665729      -0.00085797      -0.00852023       0.00484039
C        4.93331561       8.55722533       3.84393439      -0.00896847      -0.00221887      -0.00339245
C       -0.00216611       1.41950240       3.77494660       0.00732273       0.00645859       0.00266786
C       -1.26013712       3.56178301       3.85825037      -0.00156177      -0.00115316       0.00036525
C       -2.48061491       5.70546773       3.69806459      -0.00232839       0.00450299       0.00344079
C       -3.70440360       7.83367314       3.60390270       0.00246066       0.00085897      -0.00615419
C       -4.94542291       9.95448766       3.62242529      -0.00522803      -0.00225703       0.00343653
C        2.47035789       1.37175107       3.53237290       0.00397668       0.00618327      -0.00667175
P        1.39820948       3.55006024       4.72534002       0.00385122      -0.01435374       0.00832974
C       -0.16505775       5.70415314       4.42595277       0.00934575      -0.00768064      -0.01350768
C       -1.25551601       7.86022863       3.91608703       0.01124392      -0.00861196      -0.00508499
C       -2.46367513       9.95763352       3.53668092      -0.00430853      -0.00614474       0.01073465
C        4.92991262       1.41776190       3.25199979      -0.00446675       0.00069251       0.00770768
S        3.46367755       3.67044379       2.64075182      -0.00057404      -0.00459611       0.00215251
C        1.19867744       7.98833935       4.38957442      -0.00214643       0.00317275      -0.00179873
C       -0.00912448       9.99114608       3.66311758       0.00063600       0.00586763       0.00141509
C        7.39606921       1.43448065       3.38280762       0.00667653      -0.00236443       0.00186644
C        6.18759625       3.55626112       3.13195543      -0.00606071       0.00184779       0.00645791
C        4.99583991       5.66631221       3.49528336       0.00032049      -0.00254738      -0.00353250
C        3.69471384       7.92001959       4.13230933      -0.00619397       0.00050862       0.00055475
C        2.45544631      10.01259251       3.77945698       0.00324357      -0.00801755       0.00201938
C        9.87137411       1.43839442       3.60831561       0.00202970       0.00104657      -0.00361477
C        8.64650260       3.56717959       3.43170131      -0.00044751       0.01227894      -0.00449596
C        7.42002739       5.70146143       3.41955006       0.00218893       0.00675262      -0.00197444
C        6.16115483       7.83270845       3.69672170      -0.01135324      -0.01029646      -0.00565893
C        4.92880965       9.98080442       3.73164556      -0.00410149       0.00236275      -0.00586312
Fe       2.59924728       4.98498522       5.85405844      -0.00245430       0.00481987      -0.00239909
O        3.48557299       4.28564710       8.09747536      -0.00009375       0.00596167       0.00085048
O        2.52843561       4.59920816       9.05132816       0.00899797       0.01319879       0.00362337
H        2.82710331       5.47879102       9.35862502      -0.00687359      -0.00851704      -0.01143675
