52
Lattice="12.336457 0.0 0.0 -6.168228499999997 10.683685154694365 0.0 0.0 0.0 15.0" Properties=species:S:1:pos:R:3:initial_magmoms:R:1:forces:R:3 energy=-446.62186974003004 free_energy=-446.62186974003004 stress="-0.0037524179818781275 -0.00024284267064959868 4.149421809436549e-07 -0.00024284267064959868 -0.0032371876178645172 1.2372550892140588e-05 4.149421809436549e-07 1.2372550892140588e-05 -1.7824476100077525e-06" pbc="T T T"
C       -0.00085160       0.00161915       4.03646713       0.00000000       0.00129186      -0.00858928      -0.00931747
C       -1.24349117       2.12887915       3.98799789       0.00000000       0.00385454       0.00267263       0.00769450
C       -2.47620601       4.26556747       4.00362973       0.00000000      -0.01070315       0.00043764       0.00990898
C       -3.70097555       6.40706515       4.06412753       0.00000000      -0.00322211      -0.00152775      -0.00224684
C       -4.94350778       8.54095152       4.02710738       0.00000000      -0.00481889      -0.00113245      -0.00512885
C        2.46356135       0.00237227       4.00286359       0.00000000      -0.00183086       0.00636406       0.00731490
C        1.21726006       2.11647983       3.69743142       0.00000000      -0.00814158      -0.00450851       0.00197715
C       -0.08094031       4.23299825       3.41071772       0.00000000      -0.00751726       0.00257906      -0.00282269
C       -1.26215424       6.40665232       3.71640602       0.00000000       0.00610357      -0.00506635       0.00218748
C       -2.46303554       8.53862557       4.01379218       0.00000000       0.00204069       0.00759279       0.00461465
C        4.92801221      -0.00234974       4.04894448       0.00000000       0.01004849      -0.00014680      -0.00778424
C        3.70909042       2.11817036       3.73401754       0.00000000       0.00174328      -0.00627066      -0.00395338
P        2.48816428       3.97734736       2.18348963       0.00000000      -0.00243048      -0.00246305      -0.00642438
S        0.94865986       6.58180202       2.19658308       0.00000000      -0.00805156       0.01505086       0.00439402
C       -0.01271785       8.55594654       3.75182182       0.00000000       0.00179164      -0.00215681      -0.00485279
C        7.39547160       0.00057246       4.04135079       0.00000000       0.00186419       0.00660376      -0.00142752
C        6.16820200       2.12855595       4.04638171       0.00000000      -0.00451383       0.00247610      -0.01006994
C        4.99939665       4.23826501       3.50875142       0.00000000       0.01602132      -0.00016265       0.01057977
S        3.94923940       6.53963168       2.31262503       0.00000000      -0.00798142       0.00773882      -0.00966641
C        2.46402175       8.61222708       3.50124018       0.00000000       0.00169802      -0.00901316       0.00081577
C        9.86758570       0.00262532       4.03341319       0.00000000       0.00057709      -0.00782621      -0.00626769
C        8.63206985       2.13264335       4.14768655       0.00000000       0.00206481      -0.00276277      -0.00733705
C        7.40451498       4.26725366       4.05299399       0.00000000       0.00372172      -0.00281123      -0.00223795
C        6.19004150       6.40835604       3.77894128       0.00000000      -0.00236860       0.00094639      -0.00651254
C        4.94219503       8.55873658       3.77433251       0.00000000       0.00110454       0.00204574       0.00403064
C       -0.00702491       1.42105814       3.94431440       0.00000000      -0.00108113      -0.00813236       0.00314485
C       -1.26385631       3.54422040       3.83238380       0.00000000      -0.00624318       0.00819458       0.01639567
C       -2.47421847       5.69128601       3.97259386       0.00000000      -0.00148716      -0.00221838       0.00052071
C       -3.70248497       7.82911679       4.05305099       0.00000000      -0.00155155       0.00265611      -0.00003447
C       -4.93794080       9.97124919       4.04010054       0.00000000       0.00054780      -0.00233148      -0.00621416
C        2.46274645       1.41868006       3.80985470       0.00000000      -0.00567961       0.00256189       0.00952332
C        1.14214184       3.48448213       3.28347457       0.00000000      -0.00791622      -0.00181681       0.00079291
C       -0.15261245       5.65706075       3.25031981       0.00000000       0.01202617       0.00513592       0.00140007
C       -1.23892329       7.82926889       3.82309590       0.00000000       0.00217493      -0.00337278      -0.00085141
C       -2.47092568       9.96854246       4.04012365       0.00000000       0.00449959       0.01081136      -0.00468507
C        4.93238898       1.41962026       3.98625362       0.00000000       0.00033563      -0.00341002       0.00001596
C        3.78248076       3.49241905       3.34208456       0.00000000       0.01401080      -0.00275158       0.00886214
C        1.20087706       7.94970407       3.33033936       0.00000000       0.00045379      -0.00538286       0.00111733
C       -0.00593206       9.97068419       3.99239336       0.00000000       0.00907169      -0.00204941       0.00279649
C        7.39777231       1.42066554       4.13244290       0.00000000      -0.00445415       0.00912966      -0.00902120
C        6.18625393       3.54665880       3.91771007       0.00000000       0.01202474      -0.00238532      -0.00443872
C        5.07233605       5.65547820       3.35199674       0.00000000      -0.00241890       0.00156048       0.00502868
C        3.72769309       7.95341741       3.36589450       0.00000000       0.00522102       0.00436500      -0.00334779
C        2.46299305       9.99104141       3.90512527       0.00000000      -0.00266517      -0.00919632       0.00816624
C        9.86568178       1.42278820       4.10598544       0.00000000       0.00619559      -0.00452206       0.00038915
C        8.63349086       3.55578251       4.12028482       0.00000000      -0.00393792      -0.00553399       0.00168773
C        7.40723687       5.69223585       4.01300577       0.00000000      -0.00319736      -0.00346551      -0.00255276
C        6.16835384       7.83226852       3.85430227       0.00000000      -0.00391511       0.00013852      -0.00163131
C        4.93351004       9.97607132       3.99090614       0.00000000       0.00163339      -0.00368300       0.00087485
Fe       2.39108268       5.69958907       3.59164185       0.00000000      -0.00668221       0.01051403       0.00497884
O        1.56389671       4.98036173       6.02952895       1.00000000      -0.00939669       0.00243274       0.01323577
O        2.63922833       5.49235870       5.50646892       1.00000000       0.00008520       0.00268141      -0.01362195
