51
Lattice="12.336457 0.0 0.0 -6.168228499999997 10.683685154694365 0.0 0.0 0.0 15.0" Properties=species:S:1:pos:R:3:initial_magmoms:R:1:forces:R:3 energy=-446.9418667168883 free_energy=-446.9418667168883 stress="-0.004158551818999028 -0.003053968894731524 4.470549711525943e-05 -0.003053968894731524 -0.00907214267112157 -2.0134901025111998e-05 4.470549711525943e-05 -2.0134901025111998e-05 -5.2996130594405275e-06" pbc="T T T"
C       -0.03561671      -0.03117254       3.69106864       0.00000000       0.00580864      -0.00158429       0.00157724
C       -1.29275628       2.10494029       3.88924525       0.00000000      -0.00239691      -0.00032785      -0.00360836
C       -2.51135128       4.25378390       3.70246903       0.00000000      -0.00312539      -0.00412920      -0.00523549
C       -3.70415964       6.39176965       3.49245822       0.00000000       0.00225952      -0.00028574      -0.00106305
C       -4.94328286       8.53157430       3.49913769       0.00000000       0.00058396      -0.00407675      -0.00178647
C        2.44039407      -0.06535754       3.74728284       0.00000000      -0.00032390      -0.00211918      -0.00967750
C        1.18430583       1.99126287       4.23447690       0.00000000       0.00015538       0.00383920      -0.00533613
C       -0.15338846       4.26508210       4.33425833       0.00000000       0.00073507       0.00083203      -0.00327886
C       -1.25674318       6.39026366       3.82891282       0.00000000      -0.00348860      -0.00073484       0.00482778
C       -2.47843003       8.51329588       3.62037306       0.00000000       0.00053087      -0.00138553       0.00260547
C        4.90425482      -0.02435999       3.62170676       0.00000000      -0.00382534      -0.00113161       0.00135099
C        3.62393772       2.03730212       3.64198176       0.00000000       0.00437537      -0.00115449       0.00390006
B        1.25520946       6.41899727       4.27986700       0.00000000       0.00437976      -0.00599795      -0.00049223
C       -0.02556864       8.53396229       3.77227080       0.00000000       0.00361917       0.00489395       0.00014818
C        7.36193345      -0.00205121       3.58294929       0.00000000      -0.00227762       0.00593492       0.00091941
C        6.11043565       2.13194684       3.43541470       0.00000000       0.00653751      -0.00607142       0.00316473
C        4.94670284       4.31822029       3.31281194       0.00000000       0.00756914      -0.00432144       0.00248254
C        3.74669174       6.45029715       3.72069789       0.00000000      -0.00250533      -0.00066845      -0.00103530
C        2.44570206       8.56163531       3.72970386       0.00000000      -0.00097276       0.00351948      -0.00373408
C        9.83351459      -0.00349113       3.59815059       0.00000000      -0.00104708      -0.00338923      -0.00118512
C        8.59089151       2.12810629       3.55168088       0.00000000       0.00117302       0.00033144       0.00502812
C        7.37850458       4.26633949       3.39508484       0.00000000       0.00020731       0.00295284      -0.00341714
C        6.18544676       6.43146234       3.33955256       0.00000000       0.00001221       0.00325912       0.00409504
C        4.92162850       8.55064528       3.49398326       0.00000000       0.00091926       0.00317838       0.00168828
C       -0.05638706       1.37082231       3.94773477       0.00000000      -0.00038850      -0.00026247       0.00153115
C       -1.31630506       3.52548109       3.97837666       0.00000000      -0.00316885      -0.00010805       0.00202307
C       -2.48634351       5.67824864       3.66040247       0.00000000      -0.00102389      -0.00507122      -0.00512480
C       -3.70945222       7.81268356       3.52291768       0.00000000       0.00149846      -0.00141439      -0.00544763
C       -4.96569497       9.93534390       3.64777327       0.00000000       0.00315439      -0.00527858       0.00022251
C        2.42405513       1.33296690       3.93606360       0.00000000       0.00040181      -0.00100877      -0.00502584
P        1.13027219       3.44835263       5.21028318       0.00000000      -0.00086602       0.00483877       0.00414122
C       -0.05739811       5.67554670       4.14970094       0.00000000      -0.00211555       0.00055664       0.00113250
C       -1.24633362       7.80614526       3.73533814       0.00000000       0.00244235       0.00156970       0.00431802
C       -2.48662529       9.93202128       3.65182120       0.00000000      -0.00241570      -0.00271559       0.00507572
C        4.88517343       1.40933431       3.55029808       0.00000000       0.00314595      -0.00360118       0.00206980
S        3.37104030       3.64314588       3.06926857       0.00000000      -0.00206580       0.00244795      -0.00440002
C        1.22260732       7.85819191       3.91785608       0.00000000       0.00210011      -0.00187904      -0.00586912
C       -0.03056640       9.95791493       3.64140345       0.00000000      -0.00144249       0.00678006      -0.00110756
C        7.34810019       1.42358644       3.49964821       0.00000000       0.00471016       0.00166774       0.00529578
C        6.13085723       3.55344575       3.34243498       0.00000000       0.00608945      -0.00587787      -0.00025354
C        4.93068628       5.74930227       3.41406259       0.00000000       0.00225475      -0.00126997      -0.00101242
C        3.68146807       7.83547802       3.63335240       0.00000000       0.00114176       0.00399585       0.00558799
C        2.43417788       9.97814822       3.60958266       0.00000000      -0.00508851       0.00303020      -0.00193099
C        9.82543454       1.41445586       3.66089936       0.00000000      -0.00179653      -0.00372527       0.00221500
C        8.59951671       3.54990916       3.52982459       0.00000000      -0.00354832      -0.00071433      -0.00230876
C        7.39734200       5.69128138       3.37497733       0.00000000       0.00035157       0.00439017       0.00869354
C        6.15963132       7.84275520       3.41452155       0.00000000      -0.00114958       0.00187462      -0.00013706
C        4.90320726       9.96201843       3.57452975       0.00000000       0.00420241       0.00130954       0.00214295
Hf       3.14888226       5.13218890       5.39005815       0.00000000      -0.00242622      -0.00145610      -0.01794592
O        3.18022010       5.92115196       7.12455293       1.00000000      -0.01324942       0.00812746      -0.00301323
O        4.29517004       4.86398295       6.90400195       1.00000000      -0.00965106       0.00243076       0.01718951
