53
Lattice="12.336457 0.0 0.0 -6.168228499999997 10.683685154694365 0.0 0.0 0.0 15.0" Properties=species:S:1:pos:R:3:forces:R:3 energy=-461.3022012088006 free_energy=-461.3022012088006 stress="-0.007563132177527327 0.002486666382181151 3.698016815007412e-05 0.002486666382181151 -0.006859704271783737 2.3246428125143787e-05 3.698016815007412e-05 2.3246428125143787e-05 4.668968152867771e-06" pbc="T T T"
C        0.03047935       0.02990044       3.78304395       0.00366015       0.00318316       0.00881675
C       -1.19593735       2.15883636       3.78688925      -0.00134298       0.00542381      -0.01155154
C       -2.43297970       4.30346712       3.78174254      -0.01248547       0.00075680       0.00831642
C       -3.68370599       6.44189170       3.81068145       0.00030450      -0.00125806       0.00869981
C       -4.92754422       8.56803108       3.76632557      -0.00251412       0.00507766       0.01091771
C        2.49517495       0.02735846       3.74013787       0.00977212       0.00111078      -0.00316358
C        1.27372001       2.16849461       3.58209326      -0.00941660       0.00243951      -0.00472798
C       -0.01364517       4.28554106       3.53705424      -0.01062555      -0.00046658      -0.00697160
C       -1.24937984       6.46356771       3.76848982       0.00196742      -0.00465943      -0.00057606
C       -2.44932380       8.57888787       3.90620729       0.00273357      -0.00078486       0.00771823
C        4.96931563       0.02259072       3.89031539       0.00802296      -0.00977980       0.00133738
C        3.76811145       2.12694024       3.53374317      -0.00477826      -0.00702476      -0.00297431
B        2.62503874       4.31020666       3.32146614       0.00632299       0.00502616      -0.00138434
O        0.84793274       6.26937127       2.61591989       0.00651687      -0.00368532      -0.00185596
C        0.02340471       8.59735667       4.23324888       0.00450943      -0.00902859      -0.00285108
C        7.43742063       0.04392769       4.07538999      -0.00267547       0.00240979       0.00564286
C        6.23122336       2.13664582       3.76694852      -0.00261794       0.00408539       0.01105300
C        5.05818656       4.24468932       3.44250738       0.00522161      -0.00102069       0.00229345
S        3.49039682       6.32259422       3.03302592      -0.00399953      -0.00459730       0.00045453
C        2.48147376       8.61479190       4.23629730       0.00130650      -0.00762859       0.00710708
C        9.91159640       0.03704428       3.98101620      -0.00709128      -0.00080595      -0.00195189
C        8.68575067       2.16409722       3.90185269       0.00322074       0.00359291      -0.00326218
C        7.46372524       4.29406364       3.75220772       0.00134605       0.00066470      -0.00350842
C        6.19302082       6.42857176       3.62588541       0.00791635      -0.00093590       0.00482400
C        4.94519714       8.56420277       3.82108990       0.00243307       0.01048865      -0.00085882
C        0.04138349       1.45589057       3.72229504      -0.00366429       0.00250972      -0.01040919
C       -1.22478458       3.57551873       3.71393940      -0.01392952       0.00286512      -0.00530429
C       -2.45341064       5.73045152       3.80107436      -0.00258316      -0.00063518      -0.01011298
C       -3.68443727       7.86456109       3.81840705      -0.00343247       0.00236496       0.00671805
C       -4.91074409       9.99787609       3.76089682       0.00877929       0.00783851       0.00037649
C        2.50582835       1.44816928       3.60899696      -0.00696193       0.00098424       0.00500243
C        1.26208931       3.61737097       3.47754905      -0.00493306       0.00674611       0.00423688
C       -0.13461290       5.70416279       3.24092279       0.00661548      -0.00007484       0.00235005
C       -1.21230038       7.87305770       3.99512080       0.00363627      -0.00469574      -0.01036719
C       -2.44353755      10.00111928       3.85532655       0.00965094      -0.00388275      -0.01035983
C        4.99271331       1.42579011       3.72222076      -0.00098376      -0.00652841       0.00936112
C        3.84557331       3.52918002       3.34400436       0.00450815      -0.00329530      -0.00205375
C        1.25050928       7.99207066       4.52058071       0.00064304      -0.00858451      -0.00702560
C        0.02659725      10.02008091       4.08605821       0.00674331      -0.01021652      -0.00530966
C        7.45274070       1.45098546       3.92781947      -0.00103829       0.00979442       0.00415590
C        6.26730199       3.55101339       3.65467193       0.00503667       0.00317026      -0.00376136
C        5.04192497       5.64944197       3.42894561       0.00897002       0.00023126       0.00116635
C        3.68348983       7.91354340       3.89430772       0.00282129       0.01170495      -0.00987360
C        2.50812758      10.04169213       4.13020454      -0.00681708      -0.00711038       0.00742129
C        9.91450769       1.45521397       3.90791096       0.00232843       0.00187997      -0.00053746
C        8.68601829       3.58439497       3.83100386      -0.00515332      -0.00280319      -0.00787198
C        7.43597530       5.71899321       3.73158672       0.00620132      -0.00629042       0.00794893
C        6.17427823       7.85417220       3.71159215       0.00093822       0.00140714      -0.00262215
C        4.96614918      10.00053536       3.88069564       0.00023702       0.00816733       0.00834430
Hf       1.59504210       5.88747467       4.68062766      -0.00823147       0.01336913       0.00191473
O        1.56099510       5.41541666       6.48261274      -0.01187903      -0.00318362      -0.01070671
O        1.49676623       4.98436162       7.80504857       0.00616264       0.00280399       0.01456436
H        2.10770783       5.59606781       8.26679831      -0.01137186      -0.01111976      -0.00878860
