52
Lattice="12.336457 0.0 0.0 -6.168228499999997 10.683685154694365 0.0 0.0 0.0 15.0" Properties=species:S:1:pos:R:3:forces:R:3 energy=-452.77803258878663 free_energy=-452.77803258878663 stress="-0.0036506102663181193 -0.0021205523393342594 -5.6103821516447305e-05 -0.0021205523393342594 -0.008917138069406248 -2.5631520636041067e-05 -5.6103821516447305e-05 -2.5631520636041067e-05 1.0359627476641002e-05" pbc="T T T"
C       -0.00769430      -0.03510764       3.51775299      -0.00417216      -0.00269956      -0.00269625
C       -1.24445532       2.10927871       3.68412979      -0.00405362       0.00338694      -0.00324693
C       -2.47331005       4.24318506       3.64564026       0.00032782      -0.00564296      -0.01113674
C       -3.70713898       6.37807488       3.47985430       0.00106155       0.00704423       0.00810096
C       -4.93706905       8.51038749       3.41499802       0.00278214      -0.00682582       0.00259174
C        2.46112382      -0.07729751       3.46493430       0.00112081      -0.00268091       0.00292368
C        1.23170876       2.04304023       3.80040702      -0.00767882       0.00266238      -0.00031313
C        0.00285055       4.23769555       3.95935725      -0.00106070       0.00456513      -0.00431619
C       -1.25515075       6.38380532       3.65691521      -0.00759394       0.00014413       0.00581525
C       -2.46142989       8.50433982       3.43772270      -0.00439747      -0.00649501       0.00081847
C        4.93095775      -0.03450407       3.54953191       0.00246937      -0.01621278       0.00484955
C        3.66683908       1.98993374       3.88019519       0.01075961       0.00494087      -0.00012629
B        1.09881141       6.49157773       4.23109051       0.01459897      -0.01063918       0.00449840
C       -0.00740545       8.53526038       3.64760500      -0.00569619       0.00554993       0.00840961
C        7.39744604      -0.01125554       3.62497106       0.00493018       0.01003035       0.01176489
C        6.14516356       2.12817742       3.71276324       0.00030844      -0.00009746       0.00817849
C        4.94247171       4.33833991       3.95999261      -0.00237471       0.00564307      -0.00389539
N        3.86312846       6.51410070       4.32811277      -0.00578276      -0.00187126       0.00542437
C        2.49717714       8.54579784       3.84710554      -0.00323760      -0.00325603       0.00230797
C        9.86701478      -0.01164659       3.62000956      -0.00410569       0.00671327      -0.00316116
C        8.62170727       2.12123246       3.62898280       0.00307665      -0.00510127       0.00538059
C        7.38291787       4.25764112       3.64235529       0.00432065       0.00103635      -0.00845449
C        6.17648545       6.41735032       3.64050481      -0.00634807      -0.00714982      -0.00816337
C        4.94601243       8.53149363       3.64736930       0.00718432       0.00311525      -0.00503501
C       -0.01197251       1.38507396       3.65497781      -0.00918481      -0.00567267       0.00813243
C       -1.23362073       3.52582890       3.76186150       0.00221384       0.00157295      -0.00176590
C       -2.48115806       5.66662247       3.56814172      -0.00701920       0.00017844       0.01662526
C       -3.69966122       7.79741774       3.41229300       0.00074833      -0.00229455       0.00801324
C       -4.94714067       9.92393218       3.43028029       0.00142285      -0.00888834       0.00051403
C        2.44375372       1.31083444       3.68741220       0.00152747       0.00565117      -0.00012957
B        1.35544722       3.50826287       4.16916054      -0.01270037      -0.00090405       0.00229585
C       -0.06886993       5.65554655       3.91972999      -0.00300848       0.00405504      -0.00723797
C       -1.22941601       7.80245852       3.57506792      -0.00372525       0.00115161      -0.01515156
C       -2.46246687       9.92215968       3.45458341      -0.00078661      -0.01074678      -0.00535456
C        4.92801601       1.38316675       3.70780700       0.00431112      -0.01020693      -0.00472981
P        3.37797543       3.60333970       4.40612418       0.01296361       0.01321758      -0.00753660
C        1.23969473       7.88082768       3.86488521      -0.00825210      -0.00363683       0.00197998
C       -0.00548007       9.95525821       3.57806795       0.00812567       0.00513959      -0.00459238
C        7.38267439       1.41549731       3.63793453       0.00230198       0.00352151       0.00668923
C        6.13906028       3.56139123       3.76238366      -0.00075698       0.00216979      -0.00308933
C        4.97063077       5.76579980       3.95998105      -0.01102092      -0.00132244      -0.01145841
C        3.74688403       7.83519977       3.94472179       0.00664124      -0.00205063      -0.00182017
C        2.47487894       9.96546589       3.67893692      -0.00004794       0.00344766      -0.00315006
C        9.85886125       1.40996625       3.62165839      -0.00002253       0.00537134       0.00847854
C        8.62185965       3.54345487       3.62509184       0.00498598      -0.00798739      -0.00530432
C        7.39254764       5.67745345       3.56364868       0.00097381       0.00498974       0.00294966
C        6.16933838       7.82105385       3.54705436       0.00219114      -0.00467638      -0.00535135
C        4.93079666       9.94969662       3.57117111      -0.00674133       0.00858091       0.00482461
Hf       2.49779209       5.46128445       5.68489233       0.00290675       0.00973192      -0.00048739
O        2.53374145       5.50676257       7.56241642      -0.01066450       0.00089421      -0.00798322
O        2.41267901       5.59032367       8.95114753       0.01296929       0.00038036       0.00278085
H        3.33758222       5.53452927       9.26904072       0.01320916       0.00217334       0.00133990
