52
Lattice="12.336457 0.0 0.0 -6.168228499999997 10.683685154694365 0.0 0.0 0.0 15.0" Properties=species:S:1:pos:R:3:forces:R:3 energy=-449.82134200169344 free_energy=-449.82134200169344 stress="-0.00039265546522053235 0.0010034968513127948 1.2604219895752518e-05 0.0010034968513127948 -0.00474560218574635 -2.826059167321362e-06 1.2604219895752518e-05 -2.826059167321362e-06 2.530451045475041e-05" pbc="T T T"
C        0.00103675      -0.05267341       3.61068221       0.00437834      -0.00154910       0.00595575
C       -1.22760932       2.10249532       3.71544982      -0.00271966      -0.00197569       0.00327076
C       -2.44726682       4.24615750       3.87395759      -0.00138370      -0.00337375       0.00061706
C       -3.68469925       6.37094581       3.83452650      -0.00439982      -0.00074892       0.00359920
C       -4.94815126       8.48841418       3.68134522      -0.00439177       0.01032122       0.00083862
C        2.46714090      -0.03375443       3.72514278       0.00255849      -0.00625424      -0.00018630
C        1.21136795       2.04845241       3.71514337       0.00206835      -0.00248704       0.00312034
C       -0.01557719       4.20192397       3.89301182       0.00287805       0.00773309      -0.00368243
C       -1.19323436       6.36881310       3.79773085       0.00484151      -0.00109896      -0.00589949
C       -2.46211509       8.50451411       3.72059974      -0.00594200      -0.00440268      -0.00353921
C        4.92652594      -0.01882003       3.73376584      -0.00517528       0.00639356       0.00070906
C        3.73095110       2.07984283       3.97594621      -0.00010815       0.00163927      -0.00157409
B        1.36820386       6.46376182       3.66852456      -0.01121863      -0.00381795      -0.01371537
C       -0.00783270       8.54941153       3.58554813       0.00299907      -0.00354881       0.00004297
C        7.39565176       0.00743667       3.61617510      -0.00140083       0.00364123       0.00389088
C        6.18537091       2.10011664       3.93460888       0.00526585       0.00297713      -0.00238152
C        5.01221910       4.19814561       4.20152174       0.00393472      -0.00117255      -0.00220032
S        3.38789974       6.12431125       3.14892229       0.00173277       0.00497162      -0.00572347
C        2.46264865       8.60201867       3.39730773       0.00744722      -0.00521478       0.01025809
C        9.88281486      -0.00637649       3.55099713       0.00001738       0.00576228      -0.00152179
C        8.65012421       2.11941635       3.78779444      -0.00335101       0.00354236       0.00271102
C        7.42551906       4.24364047       3.98004961      -0.00339454      -0.00965348      -0.00878118
C        6.14842980       6.35264849       3.82866925      -0.00161440      -0.00026885       0.00363457
C        4.91633552       8.48883638       3.50036258       0.00072766       0.00110454      -0.00139299
C        0.00177683       1.37856904       3.65156730       0.00041271      -0.00410760       0.01733834
C       -1.23285162       3.50869040       3.83804855       0.00285508       0.00067209      -0.00187487
C       -2.43166931       5.66707352       3.85511502       0.00254187      -0.00037049      -0.00356134
C       -3.69845479       7.78972113       3.74755749      -0.01009458       0.00253190       0.01214131
C       -4.93240077       9.92709511       3.65895234       0.00444942       0.00267667      -0.00366778
C        2.47474047       1.42174009       3.80327785      -0.00085018      -0.00955594       0.00335631
O        1.16687453       3.45342807       3.65215304       0.00614693      -0.00180685       0.00838072
C        0.08058810       5.62123444       3.84385487       0.00689314       0.00592282      -0.00814215
C       -1.22208030       7.79442153       3.70561218      -0.00042957      -0.00316413       0.00360589
C       -2.47118787       9.94085456       3.72133787      -0.00058224      -0.00416599       0.00305686
C        4.93729986       1.40531027       3.87409117       0.00142917       0.01023396       0.00008081
O        3.80910545       3.45002954       4.30326037       0.00536315       0.00490738      -0.00980438
C        1.24314206       7.90536623       3.46902154       0.00603515      -0.00352973       0.00476921
C       -0.01001310       9.97451867       3.63090580      -0.00529441       0.00198295       0.00003513
C        7.40492644       1.41424424       3.77618450       0.00326925       0.00248290       0.01300585
C        6.21253137       3.50207839       4.08859107      -0.00006664      -0.00331607      -0.00978473
C        4.94130829       5.57500769       3.95659219       0.00000022      -0.00205879      -0.00121051
C        3.66061354       7.86794459       3.36508408       0.00475511      -0.00854665      -0.00254548
C        2.46959772      10.01206108       3.49315228       0.00211911      -0.00072523       0.00654919
C        9.88477717       1.41041288       3.67808682      -0.00625178       0.00654092       0.00093481
C        8.65744494       3.53619053       3.89096051      -0.00288885      -0.00232729      -0.00419642
C        7.40514438       5.66110487       3.90485285      -0.00441535      -0.00742046       0.00766672
C        6.15000273       7.76812235       3.65052419      -0.00120788       0.00574175      -0.00748766
C        4.93308981       9.93271146       3.53772842       0.00074970       0.00369141       0.00347436
Hf       2.22709699       4.76185487       4.91779847      -0.00709350       0.00127809      -0.01337057
O        2.22251452       5.34474157       6.65409794       0.00378758      -0.00143220      -0.00812840
O        2.22722714       5.84636900       7.95733735      -0.00032065      -0.00240284      -0.00084441
H        2.62980315       5.12239411       8.48338792      -0.00506160       0.00374793       0.00217304
