52
Lattice="12.336457 0.0 0.0 -6.168228499999997 10.683685154694365 0.0 0.0 0.0 15.0" Properties=species:S:1:pos:R:3:initial_magmoms:R:1:forces:R:3 energy=-295348.0445488356 free_energy=-295348.0445488356 stress="95.81767431386359 -72.22476113964593 54.00584154278036 -72.22476113964593 173.81013861941017 -187.08179291941505 54.00584154278036 -187.08179291941505 205.8937108429775" pbc="T T T"
C       -4.02640210       1.95615738       4.93859185       0.00000000       6.68912408       3.50739386      -2.74975684
C       -3.18753170      11.80922747       9.59221190       0.00000000       1.99940933      -2.06954834      -0.15718908
C        2.48744168       5.08744800       2.00954876       0.00000000     -40.29144517     -13.79039014      -7.01045305
C       -4.87653672       5.47524347       4.23387325       0.00000000      -3.32620931      -0.73891100       0.63220899
C       -0.64056750      11.08739582       4.54057760       0.00000000      11.75579555      55.71607409     -31.25698629
C        3.42934203       5.43273215       2.17007710       0.00000000      44.20301639      10.05079695       2.31808821
C       10.57816166       4.14524884      11.48766194       0.00000000       4.51917700       7.12899365      -4.11366793
C       -2.95945042      10.36435612       1.68560394       0.00000000       0.04735404      -0.40547037       2.36521819
C       -2.36869174       2.54415877       4.07331716       0.00000000      -5.06021324      -1.06240325       2.65348629
C       -4.90715586      -0.92211977       4.54403397       0.00000000     -44.87349569      23.74415904     154.03348018
C        2.47363271      -1.46395980       4.87987990       0.00000000      -5.15042439      -3.15065635      -2.74920455
C        5.34360471       3.94600424      -5.61615341       0.00000000      88.99768863     -27.49902682      40.66645356
B        2.65948617       6.34997678       9.65929537       0.00000000   30150.76276814  -72715.98445533   55718.30155279
O        9.10114867       5.43068531       3.54740480       0.00000000       3.61861785      -0.53751867      -1.29117880
C      -10.53564043       7.70368427       5.18110900       0.00000000     -14.58689138    -369.12879576   -2208.43643117
C        6.24045385       4.86957682       3.62680767       0.00000000      15.15755951     -15.30789257      16.24859882
C        3.98507089       5.26257414      10.15183343       0.00000000    -582.69515140     845.86628347    -986.81296131
C        3.49062705      -0.95472555       3.29321550       0.00000000      -0.19902359       3.29360487       0.07325640
S       -7.11267534      -0.66871062       4.70860509       0.00000000     102.14459939     -97.63501572      22.50812163
C        6.12428075       8.48475373      -2.49558201       0.00000000      32.17430967       8.63018489      24.41578806
C       19.16598875      -4.77904999       3.45354929       0.00000000      -5.10611067      -6.86196700      -5.22918791
C       10.91210887       2.06324010       8.71780328       0.00000000       2.17428747      15.01885280       0.62891259
C       12.26618623       2.63597595       8.14593475       0.00000000      66.97659823      73.65971739      -0.30570950
C       -0.74185514       9.21438105      -1.76513274       0.00000000     -55.48816329      18.29968921      78.18380594
C        3.90353039       6.52403486       5.69458415       0.00000000      -1.22875791    -221.44101848     258.29726116
C        1.04704434       3.96469795       8.18665702       0.00000000      -5.16067257     595.06874025      82.40062177
C        2.08444325       4.90050868       7.44414714       0.00000000     158.67806686     143.22523275     248.19050324
C       -8.70606252       5.04109769       7.36354217       0.00000000    -262.51072489     641.22910461     414.92482034
C       -0.27874561      16.30925377       2.91422550       0.00000000      -6.22680231      14.07505598     -17.41370875
C       -4.47727305       9.85715806       3.60811758       0.00000000       4.50808041      -2.29071724       2.64629065
C        0.41228427       2.43657089       3.56254403       0.00000000       2.68543321      22.27415736      -9.13080439
C        4.09041062       1.32329682      -1.13125622       0.00000000      -4.03911828      -2.73667882       4.12546707
C       -5.78042706       9.47858982       0.37948524       0.00000000      -1.73388211       1.88424012       3.73228337
C        0.49285510       6.40815928      -1.35479022       0.00000000    -116.10587615     -91.39383506     303.64791730
C       -4.19570302       7.68311792       4.21907466       0.00000000       1.91777427       3.56388577       3.04661235
C       17.17640597      -1.99893585       5.84581388       0.00000000    -187.84394049     118.01021511    -188.79749005
C        3.72256503      -3.36322862       0.22097956       0.00000000      -1.16833192       0.20842211       1.00533571
C        0.71918930      14.27177402       8.86783951       0.00000000     -47.63447717      -2.73837132      17.12786399
C       -0.97986235      15.82139323       1.94143865       0.00000000      -6.78333879       1.04572143      -3.18193407
C       11.90540738      -1.20178810       2.74953812       0.00000000       9.08998915     -21.68134045      16.91933815
C        5.47403931     -11.06527740       2.12138440       0.00000000      -5.67957748      21.01233441     -20.72292011
C        1.17042805       7.56481387      -3.92033535       0.00000000    1140.31487741    5734.50354147  -12451.13960095
C        2.62110083       0.72907526       0.00178537       0.00000000       5.20754459      -0.35206940      -0.39272303
C        6.46166129      12.12844461       3.96752497       0.00000000      -2.70869945     -21.91982229       9.17028705
C        6.06654806      -1.22927762       5.00498249       0.00000000      65.41957720     134.75143211     103.04021151
C        5.79426059       4.43585608      -2.47394510       0.00000000      -9.38582500       3.81266482     -15.52647143
C       10.19541489       5.02231311       3.72720258       0.00000000      -1.15984108      -1.00068750       0.14622537
C        9.10463785       7.68120332      -8.54768702       0.00000000       2.24259515      15.51552284     -13.47703654
C       -2.79322138       9.68269344       6.41804512       0.00000000      -3.79725170     -17.12140801      -2.63936982
Hf       2.07649393       7.77607362       9.04975311       0.00000000 -1228001.21281531 2551490.93964733 -2513076.50610786
O        0.13811126       7.50239291       9.99036439       1.00000000   66656.32713618  -12054.61809310   -8333.07037503
O        2.00941849       7.95530154       8.88252087       1.00000000 1130843.54568101 -2474314.56957574 2479850.66125778
