52
Lattice="12.336457 0.0 0.0 -6.168228499999997 10.683685154694365 0.0 0.0 0.0 15.0" Properties=species:S:1:pos:R:3:forces:R:3 energy=-457.84516028205235 free_energy=-457.84516028205235 stress="-0.004141868181339535 -0.0001588871528228856 1.0502774142306754e-06 -0.0001588871528228856 -0.0020363039103210648 -3.110148052070263e-05 1.0502774142306754e-06 -3.110148052070263e-05 7.777834825030286e-06" pbc="T T T"
C       -0.00161951      -0.00713463       3.68190346      -0.00235669      -0.00164809      -0.00090623
C       -1.24365927       2.12069997       3.66981238      -0.00444981      -0.00520969      -0.00011813
C       -2.47344407       4.26365794       3.66321261      -0.00581571       0.00029765      -0.00195103
C       -3.70083247       6.40470291       3.66542266       0.00479110       0.00024561       0.00037095
C       -4.93185006       8.54722707       3.67980703       0.00447616      -0.00687800       0.00177090
C        2.46724408       0.01851449       3.70431356      -0.00076372       0.00527613       0.00500474
C        1.19894536       2.14958726       3.85347801       0.00302190       0.01344405       0.00758049
C       -0.04293079       4.21383721       3.93402085       0.00040657      -0.00169855       0.00616771
C       -1.23831966       6.39470381       3.82317980      -0.00408818      -0.00035140      -0.00021968
C       -2.46914594       8.54399483       3.70518733      -0.00372968      -0.01299079       0.00485007
C        4.92869007      -0.00496643       3.64685791       0.00077185      -0.00149219       0.00780357
C        3.72841738       2.09900616       3.74909211      -0.00303357       0.00638061       0.00418060
B        1.24347306       6.43012635       4.16405082      -0.00177422      -0.00357031      -0.00038368
C       -0.01292695       8.55192674       3.78772313       0.00345629       0.00273113      -0.00022859
C        7.40155553      -0.00849596       3.63922096       0.00280923       0.00671139       0.00579385
C        6.17554825       2.12408572       3.57385514       0.00583224       0.00005990       0.00420366
C        5.00218922       4.25578314       3.76384465      -0.00130778       0.00160098      -0.00364095
C        3.70681025       6.38534193       4.02303993      -0.00365589       0.00295092      -0.00233560
C        2.47460741       8.55256356       3.83091682      -0.00120481       0.00913798       0.00087633
C        9.87011187      -0.01158648       3.65622140      -0.00121863      -0.00170176      -0.00518579
C        8.63533003       2.12772351       3.57707572      -0.00143089      -0.00892975       0.00304381
C        7.41074116       4.27144958       3.59511108       0.00197550       0.00339288      -0.00186027
C        6.17367630       6.40304222       3.69735355       0.00444535      -0.00757014      -0.00481272
C        4.93466210       8.53046760       3.74490809       0.00472401      -0.00443586       0.00979084
C       -0.00744626       1.41979087       3.71048800       0.00407313      -0.00074177       0.01293037
C       -1.25723058       3.52969090       3.72264758      -0.00055838      -0.00088063      -0.00867885
C       -2.47256306       5.68969379       3.70867830      -0.00065393       0.00437565      -0.00029702
C       -3.70189722       7.83210020       3.68144152       0.00113221      -0.01518952      -0.00376474
C       -4.93057967       9.97594553       3.69007257       0.00425199      -0.00775789      -0.00135082
C        2.47306482       1.46402715       3.77580795      -0.00351455       0.01030248       0.00052679
N        1.11673816       3.49851514       4.10432127       0.00626922       0.00770924       0.01217222
C       -0.02298916       5.64813700       3.99058333      -0.00734201      -0.00359378      -0.00845536
C       -1.23848652       7.82579484       3.77950954       0.00268732       0.00095280      -0.00755561
C       -2.47378858       9.97846074       3.68309946      -0.00237748      -0.00724876      -0.00190056
C        4.93650466       1.42316208       3.62081964      -0.00038684       0.00745487       0.00253234
O        3.80744412       3.50249863       3.86690031      -0.01820221       0.00198432       0.00433322
C        1.23110507       7.87978856       3.90927796       0.00312747       0.00021076      -0.00444456
C       -0.00689980       9.97101829       3.67754661       0.00476456       0.00451621      -0.00656029
C        7.39722671       1.41644660       3.57419836       0.00296705      -0.00508787       0.00011257
C        6.18390681       3.54450138       3.59519962       0.00279355       0.00078093       0.00822056
C        4.92697880       5.67634653       3.82058563       0.00017553      -0.00134658      -0.00610505
C        3.69640524       7.79869002       3.86845684       0.00083959       0.00097089       0.00092616
C        2.47148177       9.96899860       3.69570656       0.00022230       0.00620691      -0.01765053
C        9.86517106       1.41053079       3.61285108      -0.00379641      -0.00146480       0.00119464
C        8.63450448       3.55373117       3.58943003      -0.00213463      -0.00514353      -0.00804182
C        7.39759693       5.69232333       3.64021039       0.00305546       0.00273686       0.00429138
C        6.17062999       7.82585987       3.70622011       0.00285606      -0.00314683      -0.00601331
C        4.93309681       9.95355621       3.68725999      -0.00741512       0.00142865       0.00408024
Hf       2.57093427       4.81118947       4.99490513       0.00706924      -0.00882879      -0.00790916
O        2.57078491       4.98830875       6.82587425      -0.00195710       0.00276801      -0.00225107
O        2.46302527       5.08528459       8.21917544       0.00382964       0.00804481      -0.00258508
H        3.37572823       4.90320397       8.52811795      -0.00365628       0.00423465       0.00244850
