52
Lattice="12.336457 0.0 0.0 -6.168228499999997 10.683685154694365 0.0 0.0 0.0 15.0" Properties=species:S:1:pos:R:3:forces:R:3 energy=-453.18297010306173 free_energy=-453.18297010306173 stress="-0.0030357720845966127 -0.0010424806577729474 -5.6999809355876604e-05 -0.0010424806577729474 -0.00760538769368199 -4.197889680334036e-05 -5.6999809355876604e-05 -4.197889680334036e-05 2.199854467305449e-05" pbc="T T T"
C       -0.01346271      -0.03136906       3.53340485       0.00458011       0.00207629      -0.00858412
C       -1.24809435       2.11475949       3.71291553      -0.00413504      -0.00140301       0.00125545
C       -2.49408086       4.25271174       3.65480647       0.00241402       0.00145963       0.01151551
C       -3.71932907       6.38485713       3.50098840      -0.00250387      -0.01298341      -0.01242680
C       -4.94608396       8.51436462       3.40408309      -0.00651982      -0.00172607      -0.00042494
C        2.46016350      -0.06867834       3.46537260       0.00242111      -0.00017363       0.00870912
C        1.24172492       2.00207260       3.87302630      -0.00014690       0.00522356       0.00293921
C       -0.06277448       4.28973038       3.96328468      -0.00599319       0.00751197      -0.00162055
C       -1.27576794       6.40704486       3.74251693      -0.00002870      -0.00188049       0.00068090
C       -2.47058898       8.51378142       3.48394478       0.00378789       0.00009617       0.01041568
C        4.93058469      -0.03073196       3.56349670       0.00003601       0.00835743      -0.00031513
C        3.67758941       2.05495896       3.74299853      -0.00356380      -0.00290818       0.00120624
B        1.14888251       6.45056704       4.42755465      -0.01092053       0.00772900      -0.00799599
C       -0.01201958       8.53533892       3.76753724       0.00414856      -0.01175153       0.00964032
C        7.39197173      -0.00944613       3.66775026      -0.00664472      -0.00679181       0.00965968
C        6.14539563       2.13148328       3.70707436       0.00512689      -0.00243699       0.00382459
C        4.88545659       4.30601572       3.96341795       0.00656586       0.00172461      -0.00235184
N        3.82741208       6.50254943       4.13012195      -0.00239914       0.00785632      -0.00465886
C        2.47691817       8.53995149       3.87201268      -0.00249516       0.00500206      -0.00213454
C        9.85737735      -0.01120426       3.62589643       0.00281271      -0.00445113       0.00247103
C        8.61615987       2.12466712       3.65095090      -0.00157483       0.01179293      -0.00523976
C        7.36445253       4.25953490       3.64956591      -0.00313111      -0.00299120       0.00325454
C        6.15776638       6.40857326       3.55520253      -0.00070331       0.00015981       0.00894052
C        4.93217681       8.53340314       3.56640067      -0.00833520      -0.00556885       0.00155498
C       -0.01632050       1.38356464       3.70629441      -0.00100882       0.00652333      -0.00512428
C       -1.25807097       3.53579200       3.76403400      -0.00303588       0.00043980       0.00550871
C       -2.49557037       5.67749704       3.61080994       0.00323137      -0.00687503      -0.00114993
C       -3.70904067       7.80463294       3.43388819      -0.00262218      -0.00265638      -0.00290623
C       -4.95114371       9.93108104       3.44001207       0.00065774       0.00407038      -0.00483748
C        2.46489994       1.32408329       3.65897994      -0.00094071       0.00011799       0.00182342
P        1.51188083       3.63353658       4.40471571       0.00095688       0.01015273       0.00540812
C       -0.08103975       5.70553231       4.01490980       0.00210530       0.00610965      -0.00653016
C       -1.24440638       7.81969595       3.66496371       0.00473265      -0.00731912      -0.00118261
C       -2.46579014       9.92798846       3.47065940       0.00341760       0.00314772      -0.00072225
C        4.92629883       1.39417912       3.65609968       0.00125512       0.00450152      -0.00721654
B        3.56425269       3.51127517       4.11309150       0.00917252      -0.00156142      -0.01254429
C        1.22923992       7.86291421       4.01359508       0.00762014      -0.00352305      -0.00211759
C       -0.00870257       9.95550351       3.64631045      -0.00580747      -0.01192490      -0.00392931
C        7.38116676       1.41758969       3.66017826       0.00363615       0.00031746      -0.00587459
C        6.12232461       3.56242527       3.77204184       0.00250182      -0.00296845       0.00464156
C        4.94825366       5.74495491       3.84606280      -0.00275930       0.00814109       0.00130428
C        3.73095401       7.83614672       3.84293571      -0.01270029       0.00705733      -0.00144515
C        2.46347633       9.96248952       3.70174860      -0.00314799      -0.00017955       0.00757946
C        9.85526978       1.41268750       3.64589635      -0.00576106      -0.00292467      -0.00122830
C        8.60528701       3.54741857       3.63688241      -0.00172489       0.01040052       0.00361529
C        7.38003404       5.67880700       3.54656914      -0.00311285      -0.00846724       0.00629980
C        6.15527273       7.81839058       3.47582998      -0.00690872      -0.00614991      -0.00065094
C        4.92093883       9.95456518       3.55111769       0.00841782      -0.00975911      -0.00183285
Hf       2.85906321       5.29859725       5.62312701       0.00373886      -0.01895632      -0.00229514
O        2.90813016       5.36482040       7.49315635       0.01750160       0.00337099       0.00181636
O        2.83750426       5.41958072       8.88302941       0.00635778       0.01084255      -0.00889798
H        3.77268634       5.34005874       9.16168525       0.00142899       0.00414860       0.00217337
