52
Lattice="12.336457 0.0 0.0 -6.168228499999997 10.683685154694365 0.0 0.0 0.0 15.0" Properties=species:S:1:pos:R:3:initial_magmoms:R:1:forces:R:3 energy=-465.454031376848 free_energy=-465.454031376848 stress="-0.0006063704662922762 0.00010576656453249591 -0.00011230979385003745 0.00010576656453249591 0.000990461486929265 9.099688933200356e-05 -0.00011230979385003745 9.099688933200356e-05 9.505339229556975e-05" pbc="T T T"
C       -0.04615345      -0.06038286       3.61089151       0.00000000      -0.00579328      -0.00134171       0.00444269
C       -1.28405605       2.07639726       3.69223694       0.00000000       0.01202527      -0.01087503       0.00171694
C       -2.50536710       4.21015801       3.64291627       0.00000000      -0.01920934       0.01395826      -0.00663635
C       -3.73485259       6.34445164       3.54354040       0.00000000       0.00016037       0.01057362       0.05904953
C       -4.97151468       8.49208412       3.51325767       0.00000000       0.01353803      -0.01029828       0.04809465
C        2.42253399      -0.04920907       3.72177357       0.00000000       0.01079796       0.00035352       0.01913039
C        1.16743550       2.07012667       3.94647446       0.00000000       0.01025796       0.01196422      -0.05346375
C       -0.03735005       4.22848743       3.93307452       0.00000000      -0.01103916      -0.00051137       0.03696727
C       -1.26647643       6.35026215       3.69343380       0.00000000      -0.00069100       0.01781388       0.01125360
C       -2.50419387       8.48899339       3.60325700       0.00000000      -0.02965076      -0.04458553       0.02051908
C        4.88927554      -0.05562534       3.71129552       0.00000000       0.01161611      -0.00685236       0.02980511
C        3.66354089       2.08233209       3.97944741       0.00000000      -0.02299963       0.00142347       0.01578234
B        2.37272209       4.03381425       4.78326158       0.00000000       0.01956887      -0.00254451       0.01736646
O        1.09440355       6.40065765       4.00982562       0.00000000      -0.01485050       0.02779701       0.03294299
C       -0.05552725       8.47947209       3.65188108       0.00000000       0.01803482       0.01397479      -0.02262724
C        7.35805432      -0.07425741       3.63613376       0.00000000       0.03779104      -0.00923999      -0.03769723
C        6.12311101       2.07637363       3.73544553       0.00000000       0.02783246      -0.00448993      -0.01147060
C        4.87651130       4.21649080       3.89572066       0.00000000      -0.03164134      -0.02409087       0.01318778
O        3.72912804       6.33031409       3.36197684       0.00000000       0.04456175       0.00449872      -0.03031567
C        2.41156713       8.42935837       3.55974610       0.00000000      -0.00525379       0.04568279      -0.00149614
C        9.81792875      -0.07526047       3.55915436       0.00000000      -0.02439844       0.01090426      -0.01418207
C        8.58780271       2.07123201       3.62449518       0.00000000       0.00338019      -0.02479171      -0.00077615
C        7.35170145       4.20741366       3.61196679       0.00000000       0.02603357       0.03546473       0.08019326
C        6.14212221       6.35599466       3.57697059       0.00000000      -0.02692034      -0.01760632       0.01488399
C        4.90316399       8.48267375       3.42862274       0.00000000      -0.01078519      -0.00613894       0.05052321
C       -0.05804165       1.35578874       3.73990630       0.00000000       0.03227374       0.01434147      -0.02722407
C       -1.27315296       3.50788663       3.73823391       0.00000000      -0.01788451      -0.01252094       0.02362644
C       -2.50244781       5.63056731       3.61849989       0.00000000      -0.00076962       0.02743430      -0.00423671
C       -3.73811501       7.77487260       3.54683594       0.00000000      -0.01568503      -0.02684735      -0.02176172
C       -4.97517623       9.91855607       3.60308545       0.00000000       0.01111046       0.00630942       0.01134873
C        2.42064329       1.36426455       3.91820037       0.00000000      -0.00939822       0.01335700      -0.01488954
C        1.13197105       3.46185554       4.14442924       0.00000000       0.00163744       0.01397457       0.00429089
C       -0.07639011       5.65277431       3.89833893       0.00000000       0.01222714       0.00032014      -0.01341710
C       -1.28334121       7.77384170       3.64057543       0.00000000      -0.00334859       0.00707908       0.02027823
C       -2.51228445       9.91920524       3.67709137       0.00000000       0.00009174      -0.03603892      -0.01316146
C        4.89236999       1.36538789       3.80520213       0.00000000      -0.00668214       0.01385935      -0.04828467
C        3.68646474       3.49058852       4.17995988       0.00000000      -0.03907513      -0.00868029      -0.02234067
C        1.14409458       7.77841799       3.71885461       0.00000000       0.00869651       0.00680548      -0.03360124
C       -0.04757070       9.91121515       3.65953147       0.00000000       0.04544637       0.00403953      -0.03878538
C        7.35544563       1.35880795       3.65949697       0.00000000       0.02101036      -0.02869234      -0.04008802
C        6.11816875       3.50234982       3.72733056       0.00000000       0.01335431       0.01119763      -0.02201406
C        4.94139067       5.64945921       3.77766484       0.00000000      -0.07378427      -0.00184557       0.01942977
C        3.68962489       7.78416498       3.41583420       0.00000000      -0.00531261      -0.00730927       0.02420788
C        2.41754151       9.88841400       3.56327779       0.00000000       0.00267859       0.00752943      -0.03686695
C        9.81972882       1.35779267       3.61547634       0.00000000      -0.00089044      -0.00710106      -0.00851640
C        8.58996213       3.49618819       3.61260380       0.00000000      -0.00547680      -0.01141525       0.00485162
C        7.36905327       5.62905944       3.56463846       0.00000000       0.00706659       0.02732174       0.00978123
C        6.14038735       7.77575541       3.47470511       0.00000000       0.01044269      -0.02315883      -0.00922066
C        4.89143372       9.91168603       3.51803185       0.00000000      -0.03781833       0.01167059      -0.04399785
Hf       3.13139549       6.47208536       5.40631083       0.00000000      -0.37700377       0.21117441       0.36629214
O        4.15865106       7.27042280       6.62031510       1.00000000      -0.00726197      -0.00250272       0.01531393
O        2.25045582       4.79979523       5.96042940       1.00000000       0.40198986      -0.24134431      -0.37820844
