52
Lattice="12.336457 0.0 0.0 -6.168228499999997 10.683685154694365 0.0 0.0 0.0 15.0" Properties=species:S:1:pos:R:3:forces:R:3 energy=-446.57557124704977 free_energy=-446.57557124704977 stress="0.00262443927257716 -3.042837526267125e-05 1.4295102224643648e-05 -3.042837526267125e-05 -0.010357960673137047 4.417805763891596e-05 1.4295102224643648e-05 4.417805763891596e-05 3.336828467588936e-05" pbc="T T T"
C        0.05510001      -0.03884310       3.37912225       0.00312581      -0.00423168       0.00318573
C       -1.14817191       2.14778278       3.62140687      -0.00175321      -0.00188489      -0.00308854
C       -2.36823570       4.26345361       3.87425087      -0.00123326       0.00229298      -0.00132280
C       -3.62294431       6.38352893       3.79022302      -0.00064415      -0.00110047       0.00574190
C       -4.89441521       8.48630155       3.54580066      -0.00921468      -0.00493959      -0.00634975
C        2.52909787      -0.11184079       3.34037369      -0.00095637      -0.00570930       0.00016280
C        1.32301542       2.01026792       3.53716349       0.00480614      -0.00158111       0.00058699
C        0.14296405       4.24042014       4.14910722      -0.01078542       0.00735542       0.00822757
C       -1.12919720       6.40636097       3.88590065       0.00216752      -0.00759969      -0.00406973
C       -2.39500671       8.48653148       3.51369913       0.00157427       0.00487656       0.00673981
C        4.98724265      -0.02530686       3.43795055       0.00030992       0.01481615       0.00014431
C        3.71023205       1.96812854       3.83086869       0.00061910      -0.00264428      -0.00033887
B        1.43135358       6.57230501       4.01458386       0.00203468       0.00089827      -0.00934935
C        0.06139804       8.56483973       3.46856655      -0.00010620      -0.00074208      -0.00186155
C        7.44546426       0.05530189       3.37489994      -0.00435113       0.00756133       0.00214952
C        6.20122650       2.14114049       3.72023231       0.00198300      -0.00187377       0.00416220
C        5.01187280       4.28508076       4.18222064       0.01617227       0.00643529      -0.00231324
S        3.46143425       6.46838208       4.60761155       0.00223407      -0.00639217      -0.00389652
C        2.52886429       8.66207068       3.49488712       0.00591183       0.00058162      -0.00919719
C        9.94008357       0.05140174       3.39210798       0.00042045      -0.00079200       0.00119606
C        8.69834881       2.16403653       3.60711549      -0.00238894       0.01149299       0.00844942
C        7.46153686       4.26613413       3.87422124      -0.00249535      -0.00710005      -0.00315701
C        6.20951363       6.40485405       3.93295673       0.00026566      -0.00278150      -0.00884467
C        4.97993687       8.55809498       3.65177147      -0.00029748      -0.00222294       0.00712820
C        0.06078900       1.38656275       3.46458854       0.00322623      -0.00368077       0.00633068
C       -1.12884470       3.54473119       3.88450845      -0.00441993       0.00104335      -0.00227198
C       -2.36809558       5.68747832       3.87531061       0.00112936      -0.00245590       0.00212349
C       -3.63760329       7.78712879       3.61172612      -0.00368573       0.00353271       0.01194636
C       -4.89087797       9.89617188       3.37445847      -0.00149998      -0.00559910       0.00565111
C        2.52861964       1.28954433       3.49387385       0.00369617      -0.00544325      -0.00817958
B        1.43033143       3.37682641       4.02145440       0.00287363       0.00793529      -0.01126961
C        0.14312734       5.70870360       4.14865585       0.00138497       0.00689359       0.00955105
C       -1.14795598       7.80353769       3.62489640       0.00027318      -0.00790429      -0.00158943
C       -2.39649459       9.89959222       3.39395844       0.00400577       0.00803527       0.00417906
C        4.97937230       1.39372304       3.64790325       0.00380005       0.00760475       0.00972263
S        3.46106579       3.48438960       4.60543296      -0.00512601      -0.00688952       0.00224553
C        1.32357608       7.94104345       3.53704882       0.00479247       0.00186691      -0.00742934
C        0.05540797       9.99010046       3.38303071      -0.00531665       0.00667897      -0.00496954
C        7.44112467       1.46569271       3.54087791       0.00026972       0.00833994      -0.00135533
C        6.20837863       3.54832581       3.92383613       0.00317224      -0.00573910       0.00448361
C        5.01340130       5.66740784       4.18842778      -0.00336519       0.00560253      -0.01042267
C        3.71051707       7.98452068       3.83363265       0.00118509      -0.00446548      -0.00119352
C        2.52904527      10.06350697       3.34064064      -0.00233599       0.00342279       0.00179595
C        9.94139327       1.46464865       3.50947431      -0.00528829       0.00166328       0.01177454
C        8.71314414       3.56786420       3.78612139      -0.00074643       0.00799188       0.00751922
C        7.46195812       5.68641466       3.87848063      -0.00211808      -0.00862470      -0.00766969
C        6.20233720       7.81175567       3.72781197      -0.00556997      -0.00565130       0.00059999
C        4.98733339       9.97620858       3.43676844       0.00251722      -0.00335468       0.00153041
Hf       1.70426892       4.98843414       5.71669944       0.00840093       0.00269168      -0.00738083
O        1.23054479       5.09465008       7.51853018       0.00143132      -0.00852553      -0.01054759
O        0.85812107       5.20487276       8.84886435      -0.01191673      -0.00892824      -0.00010669
H        1.70892870       5.11642359       9.32458633       0.00183208      -0.00075623       0.00084688
