51
Lattice="12.336457 0.0 0.0 -6.168228499999997 10.683685154694365 0.0 0.0 0.0 15.0" Properties=species:S:1:pos:R:3:initial_magmoms:R:1:forces:R:3 energy=-447.34545547341463 free_energy=-447.34545547341463 stress="-0.002681205768343445 0.0018628475583379212 -1.7546783865099502e-05 0.0018628475583379212 -0.00572286263671847 -9.5857228044361e-06 -1.7546783865099502e-05 -9.5857228044361e-06 1.6983230174252796e-05" pbc="T T T"
C       -0.01978456      -0.01921631       3.61196055       0.00000000      -0.00046915      -0.00239486       0.00631555
C       -1.24803860       2.12731034       3.61763414       0.00000000       0.00129276      -0.00160545       0.00084131
C       -2.47448073       4.27059298       3.63308851       0.00000000       0.00134808       0.00127558      -0.00363968
C       -3.71302532       6.39767081       3.65773479       0.00000000      -0.00136506       0.00262811      -0.00049606
C       -4.97116430       8.52202880       3.61366798       0.00000000      -0.00195219       0.00101683       0.00394178
C        2.44097550       0.00199122       3.72795516       0.00000000       0.00029586      -0.00227424       0.00070727
C        1.17671394       2.08985369       3.86444804       0.00000000      -0.00066990      -0.00089388      -0.00104312
C       -0.06007800       4.23692209       3.77933735       0.00000000      -0.00423276       0.00399780       0.00016933
C       -1.22993771       6.39105910       3.69143043       0.00000000       0.00146820      -0.00113756       0.00166195
C       -2.49115670       8.53360141       3.67215978       0.00000000      -0.00109358      -0.00126325       0.00151743
C        4.90438811      -0.00366580       3.71609636       0.00000000       0.00221654       0.00152197       0.00189056
C        3.71607507       2.09743982       3.92493926       0.00000000      -0.00184018       0.00133643       0.00571814
B        1.31536165       6.45969003       3.87958428       0.00000000      -0.00156061      -0.00148117       0.00143537
C       -0.02881519       8.56150550       3.68298428       0.00000000      -0.00198484      -0.00218723      -0.00171938
C        7.37525663       0.01842885       3.64207981       0.00000000       0.00107065      -0.00187555       0.00224072
C        6.16640150       2.11763031       3.78102203       0.00000000      -0.00102759       0.00109423      -0.00376115
C        5.01117305       4.21901059       3.97945165       0.00000000      -0.00117861       0.00152351      -0.00052399
S        3.33352394       6.16949087       3.15851663       0.00000000      -0.00494086       0.00443578      -0.00377279
C        2.43661580       8.60967944       3.57851013       0.00000000       0.00011080      -0.00418898      -0.00559846
C        9.86096766       0.01055714       3.56624161       0.00000000      -0.00229001      -0.00048358       0.00077682
C        8.62935969       2.13945353       3.63881127       0.00000000      -0.00134458      -0.00167717       0.00400183
C        7.40785294       4.26623346       3.73570014       0.00000000       0.00168631      -0.00279025      -0.00197261
C        6.13083266       6.37820715       3.66356434       0.00000000       0.00183123       0.00019123       0.00437750
C        4.89119215       8.51642592       3.50896655       0.00000000       0.00316285       0.00249750      -0.00120972
C       -0.01554916       1.41415803       3.67178959       0.00000000      -0.00020204      -0.00368374       0.00415119
C       -1.25269748       3.53866017       3.62831817       0.00000000      -0.00021396       0.00041322       0.00147417
C       -2.46844395       5.68889460       3.65844608       0.00000000       0.00039907       0.00211430      -0.00364437
C       -3.72573495       7.81954875       3.64633981       0.00000000      -0.00277636       0.00267643      -0.00028904
C       -4.95570500       9.96102501       3.64577572       0.00000000      -0.00075615      -0.00121739       0.00116132
C        2.44454894       1.45314663       3.85580049       0.00000000       0.00035806      -0.00170151       0.00196662
O        1.08726641       3.47807091       4.09056816       0.00000000      -0.00359842       0.00163978      -0.00153961
C        0.01705938       5.64387549       3.77401593       0.00000000       0.00247473       0.00322591       0.00274275
C       -1.25433249       7.82025905       3.68862558       0.00000000      -0.00160118      -0.00336995       0.00238567
C       -2.49871984       9.96885248       3.70434854       0.00000000       0.00198600      -0.00095799       0.00193979
C        4.91682729       1.42212557       3.79299401       0.00000000      -0.00051671       0.00253509       0.00149466
O        3.80874552       3.48665075       4.10905342       0.00000000      -0.00503855       0.00405689      -0.00701062
C        1.22210651       7.90852674       3.68416277       0.00000000      -0.00212444      -0.00257098      -0.00158004
C       -0.03037467       9.98814783       3.67166702       0.00000000       0.00112397      -0.00074412      -0.00001680
C        7.38647431       1.43113102       3.67789505       0.00000000      -0.00140166      -0.00130044       0.00449282
C        6.19919359       3.52388148       3.85337045       0.00000000      -0.00105413       0.00058664      -0.00505965
C        4.93544389       5.59534909       3.76797174       0.00000000       0.00158045       0.00109556      -0.00365599
C        3.63182704       7.88431107       3.45588151       0.00000000       0.00401430       0.00116659       0.00159129
C        2.44947908      10.02202875       3.58795943       0.00000000      -0.00050439      -0.00415266      -0.00642010
C        9.86613206       1.43209064       3.59203736       0.00000000      -0.00103815      -0.00057366       0.00182627
C        8.63568460       3.55811263       3.66140220       0.00000000       0.00228055      -0.00180331      -0.00229863
C        7.38351799       5.68348470       3.69308423       0.00000000       0.00141684      -0.00174315       0.00404910
C        6.12924706       7.80101249       3.57295703       0.00000000       0.00146316       0.00040564      -0.00439318
C        4.91216554       9.95905096       3.54967496       0.00000000      -0.00084764       0.00158423      -0.00115627
Hf       2.43534887       4.76653402       5.14777174       0.00000000       0.00745673      -0.00103776       0.01191735
O        1.90025241       5.46453587       6.82564459       1.00000000       0.00032950       0.00193612       0.00172700
O        3.30671818       4.89080071       6.83866570       1.00000000       0.00825706       0.00415448      -0.01771430
