51
Lattice="12.336457 0.0 0.0 -6.168228499999997 10.683685154694365 0.0 0.0 0.0 15.0" Properties=species:S:1:pos:R:3:initial_magmoms:R:1:forces:R:3 energy=-442.046812801551 free_energy=-442.046812801551 stress="0.0025415053533876285 4.199102966874728e-05 1.9430268916205536e-05 4.199102966874728e-05 -0.01075148686288041 2.8153594289552695e-05 1.9430268916205536e-05 2.8153594289552695e-05 1.2999525308032721e-05" pbc="T T T"
C        0.03753582      -0.03776219       3.34624758       0.00000000       0.00335285      -0.00095454       0.00084255
C       -1.16706061       2.14679962       3.58618773       0.00000000       0.00201050      -0.00504218       0.00201350
C       -2.38735731       4.26407951       3.81610093       0.00000000       0.00463310       0.00182433       0.00437040
C       -3.64158695       6.38247696       3.72356199       0.00000000      -0.00270464       0.00341582      -0.00286319
C       -4.91331843       8.48523659       3.49021030       0.00000000      -0.00045250       0.00426471      -0.00020323
C        2.51087755      -0.11001765       3.32881882       0.00000000       0.00476204      -0.00845412      -0.00303198
C        1.30555511       2.00910507       3.53668998       0.00000000       0.00657733      -0.00016633       0.00029387
C        0.12192138       4.24426645       4.09624900       0.00000000      -0.00176178      -0.00316956       0.00512941
C       -1.14616594       6.40487472       3.80280733       0.00000000       0.00337425       0.00365953      -0.00140271
C       -2.41322786       8.48736066       3.46323829       0.00000000      -0.00669864      -0.00058364      -0.00832618
C        4.96921182      -0.02412470       3.40709392       0.00000000      -0.00062949       0.00391227       0.00313179
C        3.69429047       1.96466108       3.83880211       0.00000000      -0.00167754       0.00091535      -0.01129269
B        1.41698508       6.56093970       3.88703477       0.00000000       0.00083376       0.00065641       0.00773891
C        0.04292898       8.56438506       3.38314840       0.00000000      -0.00381891       0.00097635      -0.00078176
C        7.42656141       0.05705360       3.31494116       0.00000000      -0.00224813      -0.00201509      -0.00374427
C        6.18471211       2.13846758       3.69030534       0.00000000       0.00429892      -0.00288693       0.00771240
C        4.99637322       4.28247485       4.13775956       0.00000000      -0.00899622       0.00181018      -0.00694967
S        3.42881926       6.46118071       4.47972044       0.00000000       0.00711975      -0.00883304      -0.00781898
C        2.50853785       8.66141603       3.38644872       0.00000000       0.00124110       0.00222376       0.00017710
C        9.92174960       0.05170903       3.33233584       0.00000000      -0.00409510       0.00900659       0.00584124
C        8.68033538       2.16343532       3.56184348       0.00000000      -0.00156097      -0.00095628       0.00515546
C        7.44354111       4.26536709       3.81799911       0.00000000       0.00141094      -0.00664401       0.00391028
C        6.18851933       6.40095172       3.84699768       0.00000000       0.00004332       0.00211296      -0.00127221
C        4.96071649       8.55614013       3.56893524       0.00000000       0.00029797       0.00356681      -0.00317572
C        0.04337473       1.38612473       3.44570060       0.00000000       0.00588254      -0.00137341      -0.00434618
C       -1.14851032       3.54581571       3.83752944       0.00000000       0.00163969      -0.00510815       0.00120772
C       -2.38639252       5.68722522       3.80578347       0.00000000       0.00244160       0.00526571      -0.00016745
C       -3.65597862       7.78694326       3.55544931       0.00000000      -0.00651110       0.00416036       0.00089183
C       -4.90891666       9.89742927       3.34354802       0.00000000       0.00368811      -0.00068181       0.00076084
C        2.51158091       1.28904750       3.49906111       0.00000000       0.00254993      -0.00794765      -0.00562392
B        1.40985986       3.37921364       4.00862437       0.00000000      -0.00387432       0.00304881       0.00196549
C        0.12784867       5.70900016       4.05792537       0.00000000       0.00305644      -0.00083375       0.01290436
C       -1.16570389       7.80277416       3.54969885       0.00000000      -0.00561330       0.00288156      -0.00482806
C       -2.41479285       9.90157066       3.36551640       0.00000000       0.00321859      -0.00274286       0.00040191
C        4.96163797       1.39201997       3.63491386       0.00000000       0.00138838       0.00262935       0.00430909
S        3.44990146       3.48923379       4.60085570       0.00000000       0.00199428       0.00169970      -0.00873795
C        1.30447564       7.93723216       3.42069142       0.00000000      -0.00005571      -0.00042570      -0.00255029
C        0.03646958       9.99196723       3.32247473       0.00000000      -0.00370883       0.00094259       0.00508846
C        7.42318990       1.46531447       3.49664878       0.00000000       0.00241017      -0.00536958       0.00590008
C        6.19252095       3.54599109       3.88427589       0.00000000      -0.00322004      -0.00209578       0.00470106
C        4.99170246       5.66324589       4.09662214       0.00000000      -0.00575291       0.00469613      -0.00086162
C        3.68914161       7.98144148       3.72297062       0.00000000       0.00195821      -0.00334979      -0.00600392
C        2.50990718      10.06570945       3.26264763       0.00000000      -0.00098983       0.00429425      -0.00206174
C        9.92323624       1.46372014       3.46557002       0.00000000      -0.00318748       0.00533326       0.00426168
C        8.69476938       3.56761440       3.73518120       0.00000000       0.00488572      -0.00196646       0.00227565
C        7.44280398       5.68495622       3.80688112       0.00000000      -0.00024828      -0.00406925       0.00126342
C        6.18186616       7.80854369       3.65031785       0.00000000       0.00232442       0.00347414      -0.00295934
C        4.96921016       9.97682533       3.37721507       0.00000000      -0.00236335       0.00644194       0.00100627
Hf       1.69479854       5.02499190       5.67087788       0.00000000       0.00322952       0.00700463      -0.00806834
O        0.94496744       5.22067527       8.74815433       1.00000000      -0.00595337      -0.00484773      -0.01259584
O        1.24455193       5.13620820       7.48464254       1.00000000      -0.00450099      -0.00969987       0.01641247
