52
Lattice="12.336457 0.0 0.0 -6.168228499999997 10.683685154694365 0.0 0.0 0.0 15.0" Properties=species:S:1:pos:R:3:forces:R:3 energy=-449.96475368004593 free_energy=-449.96475368004593 stress="-0.004176506818237542 0.003872197192446303 -7.587702437360692e-06 0.003872197192446303 -0.0020319672932324713 -9.238813243550513e-06 -7.587702437360692e-06 -9.238813243550513e-06 -4.072229116647915e-06" pbc="T T T"
C        0.08435560       0.05442237       3.73747560       0.00100734       0.00920897       0.00735507
C       -1.13602671       2.19826194       3.53174350       0.00491805      -0.00683807       0.00225094
C       -2.38538054       4.32760552       3.65256617      -0.00140662       0.00428053       0.01188092
C       -3.64240036       6.45735890       3.82918425      -0.01408963      -0.00305731       0.00191342
C       -4.87085807       8.59152188       3.88586756       0.00097338      -0.00483980       0.00370837
C        2.54803314       0.04890642       3.81085041      -0.00741621      -0.00031471       0.00883943
C        1.34928291       2.15836517       3.41346876      -0.00250341       0.00436339       0.00201716
C        0.03890727       4.40314625       3.31811812       0.01083275      -0.00657250      -0.00952699
C       -1.20959587       6.49671604       3.66533799       0.00073098       0.00026531       0.00502173
C       -2.40611129       8.60218740       3.82301700       0.00347080      -0.01141085      -0.00289197
C        5.01723069       0.04029260       3.81350532      -0.00029832      -0.00252103       0.00519892
C        3.82780794       2.14065964       3.86814351      -0.00380039       0.00209301      -0.00242819
O        1.22980699       6.50550620       3.69123227      -0.00216575       0.01016879      -0.00046932
C        0.06080375       8.58951057       3.76819490       0.00676943       0.00772605      -0.01026348
C        7.48945680       0.03127487       3.76863771       0.00073009       0.00176665       0.00008853
C        6.27842330       2.16208470       3.84572292       0.00336579      -0.00245714       0.00739281
C        5.08087316       4.26688698       4.07459548       0.00908263       0.00375199      -0.01159051
B        3.77872434       6.43940689       4.23493194      -0.00649026      -0.00373779       0.00666678
C        2.52040285       8.57218802       3.86141770      -0.00624973       0.00482612       0.01364874
C        9.95321888       0.04334241       3.74133623      -0.00432781      -0.00474260       0.00687453
C        8.73234628       2.17948563       3.71599203       0.00213175       0.00409384      -0.00083022
C        7.49556873       4.31096863       3.85463638      -0.00493506       0.00308957       0.01205977
C        6.24502312       6.44036241       3.99887210       0.00636481      -0.00773364       0.00727973
C        5.00682642       8.59264357       3.93757479       0.00676913      -0.00109597      -0.00886923
C        0.10057036       1.48242226       3.54967366       0.00589592      -0.00095464      -0.01017556
C       -1.16171054       3.61948017       3.48831716       0.00399539      -0.00679546      -0.00429455
C       -2.41650839       5.75076255       3.71363022      -0.01152577       0.00856097      -0.00158084
C       -3.64242955       7.88359105       3.85607126      -0.00293460      -0.00904475      -0.00919293
C       -4.85776563      10.02099408       3.81734918      -0.00537223      -0.00121670      -0.00183784
C        2.57661912       1.48794366       3.72935444      -0.00882160       0.00430377       0.00376005
S        1.40936405       3.64436055       2.40119882      -0.01060410       0.00321761       0.00781933
C       -0.01326262       5.80378169       3.53226835       0.00101455       0.00049810      -0.01161178
C       -1.18794040       7.90505440       3.75828360       0.01268108       0.00112273      -0.00350859
C       -2.39348171      10.02914930       3.83401995      -0.00355801      -0.00698996       0.00109309
C        5.03809128       1.46550755       3.84400557      -0.00312312       0.00167199       0.00080923
O        3.88548416       3.52682396       4.13100151       0.01248452       0.00173399      -0.00444413
C        1.27889510       7.90487243       3.79886950      -0.00116870       0.00492153       0.00670135
C        0.08290098      10.01241929       3.78835042       0.00439955       0.00456851      -0.00192148
C        7.49747977       1.46117341       3.77302092       0.00402075      -0.00051871      -0.00225624
C        6.27992033       3.57016631       3.92071647       0.00645778      -0.00363845       0.00453292
C        5.02792922       5.67671179       4.11697294       0.00502618       0.00246719      -0.00126632
C        3.76494308       7.88299404       4.01054543      -0.00225288       0.00117012      -0.01101696
C        2.54411131      10.00674376       3.77977401      -0.00575393      -0.00119074      -0.00108320
C        9.96865248       1.47323145       3.65647481       0.00006029      -0.00498406      -0.00150081
C        8.72453252       3.60394387       3.73807654      -0.00639892       0.00856505       0.00253480
C        7.47174395       5.73466627       3.89744642      -0.00610726      -0.00461070      -0.00245822
C        6.23207506       7.86733768       3.95418887       0.00696233      -0.00922529      -0.00838256
C        5.01845006      10.02112692       3.80411050       0.00247571       0.00597940      -0.00677384
Hf       2.13276341       4.73520141       4.53671135      -0.00235044      -0.00313689      -0.00026020
O        1.44870094       4.16496490       6.13682247       0.00351527      -0.00280436      -0.00751821
O        0.83245783       3.54688236       7.22947690      -0.00577859      -0.01174609       0.00356106
H        0.97404117       4.18256941       7.96516777       0.00329708       0.01776304       0.00494550
