51
Lattice="12.336457 0.0 0.0 -6.168228499999997 10.683685154694365 0.0 0.0 0.0 15.0" Properties=species:S:1:pos:R:3:initial_magmoms:R:1:forces:R:3 energy=-447.8757583312949 free_energy=-447.8757583312949 stress="-0.000550100096907754 0.0035439847258329996 -0.0004265898402296191 0.0035439847258329996 -0.010852217552623817 0.00016518197786970787 -0.0004265898402296191 0.00016518197786970787 -9.228233534859776e-05" pbc="T T T"
C       -0.05114993      -0.00241231       3.85590157       0.00000000       0.02574383      -0.09666041      -0.00376311
C       -1.25257740       2.15633152       3.74734958       0.00000000      -0.02139347       0.04797004       0.02627886
C       -2.52261522       4.26602150       3.69048800       0.00000000      -0.03868747       0.05268419       0.05299092
C       -3.79137134       6.38156474       3.73134260       0.00000000       0.03476708      -0.01747940      -0.09011378
C       -5.03514539       8.50039080       3.81386366       0.00000000       0.07068200       0.01119962      -0.01001370
C        2.40019305      -0.11007255       3.61599181       0.00000000       0.02329473      -0.05170561       0.05558861
C        1.23794568       2.02513610       3.47923890       0.00000000      -0.07859717       0.01476517       0.00244196
C       -0.07289128       4.35934160       3.78351435       0.00000000       0.08535181       0.00889416       0.02003435
C       -1.33472893       6.40141438       3.99838964       0.00000000       0.04624854      -0.02296149       0.06446838
C       -2.53981417       8.49556256       3.83616301       0.00000000      -0.09216709       0.06367953       0.02909372
C        4.88387584      -0.06810398       3.61904043       0.00000000       0.06474518       0.02376956      -0.03286607
C        3.64752625       1.95597022       3.20667274       0.00000000      -0.15899032       0.04020712      -0.03797537
B        1.07127921       6.46922636       4.73832565       0.00000000      -0.02216939       0.11350815      -0.16696273
C       -0.06906078       8.55236885       4.06930650       0.00000000      -0.04866759      -0.03458899      -0.05871150
C        7.34033609       0.01709514       3.85348479       0.00000000      -0.01064809       0.10317387       0.08403209
C        6.11841570       2.10317873       3.44059511       0.00000000       0.07372175      -0.08227811       0.01361989
C        4.83158367       4.23185932       3.28433722       0.00000000       0.02429542       0.01739044       0.01985060
S        3.37700580       6.45025107       3.08380156       0.00000000      -0.39381028      -0.20762469      -0.09801932
C        2.37996006       8.61686832       4.18698948       0.00000000      -0.13597386       0.07682337       0.04962809
C        9.82450409       0.03718519       4.01072280       0.00000000      -0.00860441       0.06567400      -0.02514601
C        8.58994044       2.14230507       3.71992783       0.00000000       0.01292090      -0.05254860      -0.11826901
C        7.33050209       4.25053712       3.49280270       0.00000000       0.00796255       0.00588494       0.06444040
C        6.07975201       6.40227708       3.56439582       0.00000000       0.01166975      -0.02464261      -0.00889955
C        4.85237401       8.55607799       3.92836782       0.00000000       0.18149138      -0.00285364      -0.01344253
C       -0.02137990       1.42971820       3.70820642       0.00000000      -0.01510508      -0.06263507       0.02673493
C       -1.26068170       3.57502026       3.71720907       0.00000000      -0.00513165       0.01838899      -0.08059476
C       -2.55181978       5.68056292       3.78047674       0.00000000      -0.00026965       0.04582579       0.06183511
C       -3.79189742       7.79501333       3.79405545       0.00000000       0.02053288      -0.02319330       0.05098433
C       -5.01403294       9.92562484       3.80196834       0.00000000       0.01586480      -0.12011034      -0.09855515
C        2.42331403       1.28195920       3.38753561       0.00000000       0.01414238      -0.06611661       0.01419311
S        1.57290030       3.73653224       3.31054556       0.00000000      -0.01092174       0.00568296      -0.00863275
C       -0.11710679       5.69876512       4.14095570       0.00000000      -0.11925640      -0.01900941      -0.01876860
C       -1.31303504       7.81766422       4.00081444       0.00000000      -0.08293001       0.03389919       0.01326216
C       -2.52410501       9.89867293       3.69370835       0.00000000       0.02980129       0.03359977      -0.03815014
C        4.90010981       1.33843006       3.37735837       0.00000000      -0.01952276       0.01061457       0.06876604
B        3.55304775       3.41649963       3.05834445       0.00000000       0.15626492       0.01302516       0.09807832
C        1.15413457       7.91515767       4.29102594       0.00000000      -0.01011168      -0.02699526       0.04990322
C       -0.05675883       9.96097956       3.82352548       0.00000000       0.01065981       0.09117975       0.15609371
C        7.35248505       1.42466372       3.65642361       0.00000000      -0.01681912      -0.01404432       0.08256175
C        6.10584173       3.52080527       3.37979256       0.00000000      -0.05195809       0.03814995      -0.04583271
C        4.88558195       5.66417439       3.36905503       0.00000000       0.19370070      -0.01172541       0.07548987
C        3.59384852       7.93688330       3.92021991       0.00000000       0.07407563       0.01100441       0.07047811
C        2.40525731      10.03333288       4.08222163       0.00000000       0.03193516       0.04975708      -0.12104262
C        9.84346325       1.45525088       3.85675674       0.00000000      -0.10008085      -0.01170677      -0.12825085
C        8.57788346       3.55236418       3.60301714       0.00000000      -0.04667380       0.03250691       0.08629500
C        7.31894175       5.67449675       3.57065883       0.00000000      -0.03249578      -0.00547203       0.12828636
C        6.06014819       7.80800695       3.77647915       0.00000000       0.05764662      -0.04436899      -0.09435077
C        4.88067372       9.99170571       4.00436142       0.00000000      -0.03111816       0.03988639      -0.12759003
Hf       3.21231012       4.63048957       5.24365135       0.00000000      -0.12268285       0.43922673      -0.51626133
O        1.82567237       5.95699420       5.77157630       1.00000000       0.20301260      -0.15140674       0.09318074
O        3.75771983       3.49915970       6.46983074       1.00000000       0.20425504      -0.35824401       0.38360176
