52
Lattice="12.336457 0.0 0.0 -6.168228499999997 10.683685154694365 0.0 0.0 0.0 15.0" Properties=species:S:1:pos:R:3:forces:R:3 energy=-446.5007182512517 free_energy=-446.5007182512517 stress="-0.0021376135132481363 0.0017111729588918682 2.8168671304434372e-05 0.0017111729588918682 -0.010343439599784532 2.1769820359576885e-05 2.8168671304434372e-05 2.1769820359576885e-05 2.3011327757841047e-05" pbc="T T T"
C        0.04181517       0.00686075       3.55143474      -0.00304381       0.00536766       0.00059489
C       -1.16813209       2.18193976       3.42458307       0.00082486      -0.00599453      -0.00272515
C       -2.41268702       4.29934063       3.69992696       0.00035031       0.00405126      -0.00426134
C       -3.66103505       6.41771236       3.85849014      -0.00073096       0.00971122       0.00051300
C       -4.91838629       8.53430724       3.79365047       0.00168648      -0.00534965      -0.00279254
C        2.50122970      -0.05590456       3.58227424      -0.00122648      -0.00512834      -0.01003561
C        1.30845227       2.07295618       3.34590360       0.00559723       0.01372045      -0.00244706
C        0.03977316       4.33876196       3.58543242      -0.00182954      -0.00039837      -0.00070884
C       -1.18486616       6.43361244       3.93117721      -0.00212336       0.00408444      -0.00396854
C       -2.42670868       8.53842543       3.75009444       0.00870358       0.00064590       0.00053914
C        4.97797957      -0.00118188       3.57241878       0.00676062       0.00186448       0.00452211
C        3.73008199       2.07294207       3.68651111      -0.00021211      -0.00007571      -0.00235492
B        1.38082045       6.54632655       4.16542401       0.00403705      -0.00013200      -0.00358358
C        0.03793224       8.59091585       3.72360606      -0.00699237      -0.00199325      -0.00961278
C        7.43916689       0.05762511       3.50535355       0.00104549      -0.00862208       0.00399455
C        6.20845161       2.16168060       3.61286930       0.00262423      -0.00191630       0.00266171
C        4.97972216       4.27666346       3.96386940      -0.00257235      -0.00160840       0.01241077
S        3.47701136       6.36148261       4.66040339       0.00380714      -0.00021508      -0.00545227
C        2.51110967       8.67308043       3.79222771      -0.00946889       0.00320440      -0.00189225
C        9.92694572       0.06121751       3.53074025      -0.00182888       0.00056671      -0.00042173
C        8.68573113       2.18323544       3.51426086      -0.00396925      -0.00404479       0.00802053
C        7.44528003       4.29402481       3.75798407      -0.00100904       0.00219581      -0.01361049
C        6.18770508       6.42839136       3.99217584       0.00036216      -0.00957307      -0.01724080
C        4.95868740       8.58625085       3.89592850       0.00482920      -0.00044217       0.00174325
C        0.04972163       1.43568572       3.39613397       0.00553919       0.00691483       0.00663705
C       -1.18179942       3.58898256       3.54073023      -0.00151122      -0.00461149      -0.01177563
C       -2.41263889       5.71587019       3.84728833      -0.00290659       0.00932383      -0.00129792
C       -3.66968147       7.83336619       3.81607019       0.00655817       0.00679113       0.00760562
C       -4.90845408       9.95037709       3.63603930      -0.00623250      -0.00320538      -0.00168378
C        2.51360087       1.36369068       3.53231303      -0.00062269       0.00033362       0.00162548
S        1.48048752       3.70934107       2.71532369       0.00598080      -0.00156240      -0.01105404
C        0.08557487       5.71364804       4.02290886      -0.00428868       0.00253713      -0.00504207
C       -1.18538557       7.84693698       3.82063983       0.00108253       0.00081422       0.01058611
C       -2.42200388       9.94800982       3.63023062       0.00704588      -0.00091089       0.00320064
C        4.98712192       1.42233753       3.60531718       0.00257051       0.00167298       0.00650352
B        3.71870248       3.48499793       4.08714952       0.00124605      -0.00237471       0.00057564
C        1.29812964       7.96022017       3.84030106      -0.01041231       0.00196504       0.01065178
C        0.04136883      10.00625341       3.57165639       0.00149984      -0.00320404       0.00925583
C        7.44588592       1.47148700       3.51074438      -0.00046298      -0.01000512       0.01005755
C        6.21635275       3.57034051       3.75178436      -0.00190665       0.00003019       0.00365871
C        4.99198948       5.66892582       4.12573695      -0.00114292      -0.00268641       0.01000850
C        3.69974525       7.98599830       4.07783945      -0.00216629       0.01224543      -0.00073033
C        2.51760534      10.06484618       3.55980336      -0.00065283       0.00191971       0.01185655
C        9.92912399       1.48108632       3.46071647      -0.00333113      -0.00241148       0.00514919
C        8.68341002       3.59510211       3.64402594      -0.00030097       0.00028215       0.00005262
C        7.43512027       5.71274304       3.87361097       0.00240052       0.00093146      -0.00656989
C        6.18080082       7.84457461       3.92554651       0.00564527      -0.01117139       0.00160595
C        4.97366406      10.00555620       3.64765991      -0.00099972       0.00211198      -0.00154671
Hf       1.82938441       4.46723506       5.21641658      -0.00122712       0.00395174      -0.00518533
O        1.35627678       4.13532852       6.98071646       0.00688802       0.00382019      -0.00181971
O        1.00741152       3.88513347       8.30083011       0.00042584      -0.00586704      -0.00310210
H        1.76160476       4.25393172       8.80566592      -0.01433934      -0.00755387      -0.00311528
