51
Lattice="12.336457 0.0 0.0 -6.168228499999997 10.683685154694365 0.0 0.0 0.0 15.0" Properties=species:S:1:pos:R:3:initial_magmoms:R:1:forces:R:3 energy=-453.2760438604332 free_energy=-453.2760438604332 stress="-0.0037229759620854845 -0.0001335388363712741 2.1566499387650044e-05 -0.0001335388363712741 -0.0017493148102351286 -3.614603664680097e-05 2.1566499387650044e-05 -3.614603664680097e-05 -2.4181525630469178e-05" pbc="T T T"
C       -0.00546580      -0.00619983       3.62378304       0.00000000       0.00910618      -0.00285193      -0.00042071
C       -1.24706106       2.12078780       3.62630247       0.00000000      -0.00299260      -0.00069017      -0.00616923
C       -2.47670603       4.26290788       3.60905618       0.00000000      -0.00134297       0.00013275       0.00384721
C       -3.70396455       6.40382924       3.59420311       0.00000000      -0.00378956       0.00326796      -0.00326018
C       -4.93545211       8.54692618       3.60248236       0.00000000       0.00086480       0.00417580       0.00968254
C        2.46273305       0.02011847       3.64415868       0.00000000       0.00392521      -0.00251636       0.00866462
C        1.19607357       2.15238772       3.81401844       0.00000000      -0.00993253      -0.00929544       0.00011881
C       -0.04515019       4.21476820       3.89441945       0.00000000      -0.00754955       0.00093675      -0.00387663
C       -1.24188606       6.39450845       3.76598090       0.00000000       0.00201530       0.00089115      -0.00372965
C       -2.47359640       8.54355219       3.63881132       0.00000000       0.00338177       0.00081206       0.00156271
C        4.92409101      -0.00450193       3.59109594       0.00000000      -0.00577789       0.00052408      -0.00495385
C        3.72346224       2.10112505       3.70018940       0.00000000       0.00085141      -0.00996017       0.00198704
B        1.24230328       6.42984871       4.11447377       0.00000000      -0.00918283       0.00309053      -0.00996019
C       -0.01714535       8.55138100       3.72513403       0.00000000       0.00103867       0.00209877      -0.00502640
C        7.39696653      -0.00853544       3.57581541       0.00000000       0.00154725       0.00184631       0.01298877
C        6.17102738       2.12415495       3.52194870       0.00000000       0.00071365       0.00644290      -0.00766145
C        4.99574244       4.25741377       3.69355281       0.00000000       0.00638978       0.00196028       0.00756523
C        3.70274356       6.38542922       3.95808550       0.00000000      -0.00791235      -0.00618037      -0.00183075
C        2.46985914       8.55289783       3.76348732       0.00000000       0.00778911      -0.01124064       0.00219491
C        9.86617479      -0.01220600       3.59446791       0.00000000       0.00018041       0.01138807      -0.00100497
C        8.63149248       2.12692387       3.52390431       0.00000000       0.00010745       0.00588968       0.00028274
C        7.40619192       4.27130179       3.53103444       0.00000000       0.00744244      -0.00774553      -0.00739239
C        6.16936671       6.40296514       3.61368188       0.00000000      -0.00544412      -0.00561057       0.01026346
C        4.93097327       8.52982013       3.67294185       0.00000000       0.00104701       0.00584920       0.00363071
C       -0.01003912       1.42118975       3.66653052       0.00000000      -0.00622564      -0.00976716       0.00624534
C       -1.25985023       3.52990199       3.67882034       0.00000000      -0.00480266      -0.00080583      -0.00187686
C       -2.47584361       5.68898250       3.64827379       0.00000000      -0.00167407       0.00284774      -0.00247745
C       -3.70566406       7.83108524       3.60676122       0.00000000       0.00031755       0.00595673       0.00527308
C       -4.93462005       9.97629839       3.62342137       0.00000000       0.00961554      -0.00048421       0.00275479
C        2.46889323       1.46609956       3.72617461       0.00000000      -0.00389000      -0.00822137       0.00614870
N        1.11501537       3.50060043       4.07440048       0.00000000      -0.00989003      -0.00630255      -0.00322821
C       -0.02635194       5.64915118       3.94063564       0.00000000       0.00042525       0.00248424      -0.00565377
C       -1.24285882       7.82567546       3.71730295       0.00000000       0.00377340      -0.00022323      -0.00581875
C       -2.47859838       9.97880694       3.62176740       0.00000000      -0.00087921      -0.00211706      -0.00209125
C        4.93140818       1.42427371       3.57074986       0.00000000       0.00139392      -0.00111993      -0.00171765
O        3.80077429       3.50524973       3.81842828       0.00000000       0.01120592      -0.00969894      -0.00177688
C        1.22695033       7.87862202       3.84674939       0.00000000       0.00049551       0.00022538      -0.00211664
C       -0.01126958       9.97089548       3.61438642       0.00000000      -0.00421539       0.00291687       0.00641172
C        7.39287273       1.41626150       3.51915928       0.00000000       0.00161729       0.00623120      -0.00629407
C        6.17844163       3.54477533       3.53439274       0.00000000       0.00447327       0.00506097      -0.00157618
C        4.92138082       5.67744560       3.74272821       0.00000000      -0.00839827      -0.00042467       0.00319552
C        3.69224614       7.79848525       3.80016875       0.00000000       0.00518593      -0.01023702      -0.00381757
C        2.46688402       9.96892144       3.62743641       0.00000000       0.00604762      -0.00635844      -0.00242276
C        9.86171599       1.41003675       3.56097717       0.00000000      -0.00354250       0.01106456      -0.00153877
C        8.63044697       3.55310365       3.53323229       0.00000000       0.00543879      -0.00247554      -0.00669094
C        7.39379000       5.69233832       3.56493576       0.00000000      -0.00209662      -0.00837225       0.00641903
C        6.16688147       7.82553848       3.62554623       0.00000000      -0.00198288       0.00106736       0.00015183
C        4.92924489       9.95326710       3.62359293       0.00000000       0.00292291       0.01110277      -0.00070039
Hf       2.57587440       4.81144094       4.96050017       0.00000000       0.01455177       0.00326663      -0.01226847
O        2.61906658       5.11397981       8.09236829       1.00000000      -0.00777995       0.01000978       0.01223141
O        2.60447113       4.99605845       6.78768803       1.00000000      -0.00456349       0.01115885       0.00573286
