51
Lattice="12.336457 0.0 0.0 -6.168228499999997 10.683685154694365 0.0 0.0 0.0 15.0" Properties=species:S:1:pos:R:3:initial_magmoms:R:1:forces:R:3 energy=-447.33049097023564 free_energy=-447.33049097023564 stress="-0.004164726493047963 0.0037450009511982864 1.5010887364789513e-06 0.0037450009511982864 -0.001472724231089292 -1.5740900341901187e-05 1.5010887364789513e-06 -1.5740900341901187e-05 -1.1671659168936666e-05" pbc="T T T"
C        0.03162109       0.02295747       3.67218054       0.00000000      -0.00054338      -0.00246963       0.00159835
C       -1.19170940       2.16380734       3.43607255       0.00000000       0.00129714       0.00186352       0.00044441
C       -2.45055524       4.29714621       3.51713737       0.00000000      -0.00137800       0.00179371       0.00308191
C       -3.69919157       6.42579181       3.70760199       0.00000000      -0.00058803       0.00204915       0.00547540
C       -4.92327412       8.56002361       3.80441566       0.00000000      -0.00050004      -0.00113201      -0.00168520
C        2.49622057       0.01908608       3.78185643       0.00000000       0.00025560       0.00023190       0.00093453
C        1.30006263       2.11997203       3.40492617       0.00000000      -0.00012275       0.00265105      -0.00411328
C       -0.04316699       4.38031177       3.21953254       0.00000000       0.00145619      -0.00080974      -0.00691373
C       -1.26325210       6.46467000       3.55372437       0.00000000      -0.00222874      -0.00160100       0.00195387
C       -2.45872027       8.56777781       3.74610446       0.00000000      -0.00072821      -0.00383793      -0.00249585
C        4.96452106       0.00406007       3.77577140       0.00000000       0.00016556      -0.00128686      -0.00388862
C        3.77731254       2.11216121       3.87410193       0.00000000      -0.00143353      -0.00027600       0.00051925
O        1.16322061       6.44573039       3.75308147       0.00000000       0.00196134      -0.00088650      -0.00240705
C        0.01128314       8.55017603       3.72319487       0.00000000       0.00225660       0.00152658       0.00332964
C        7.43491155      -0.00335808       3.71108267       0.00000000       0.00051177       0.00068756       0.00124587
C        6.22370222       2.12838056       3.78609281       0.00000000       0.00178298      -0.00366979       0.00152072
C        5.02969948       4.22978472       4.03186163       0.00000000       0.00129252       0.00077351       0.00152053
B        3.76804161       6.43702587       4.23457907       0.00000000      -0.00035393       0.00233230       0.00320796
C        2.46190922       8.53907262       3.83345852       0.00000000      -0.00100083       0.00069852       0.00165309
C        9.89865646       0.00891615       3.66787421       0.00000000      -0.00349008      -0.00031323      -0.00159637
C        8.67579092       2.14572957       3.61700216       0.00000000      -0.00074454       0.00003282      -0.00157319
C        7.43747715       4.27869062       3.74726751       0.00000000       0.00041392       0.00124643       0.00127058
C        6.19294335       6.40758712       3.91185266       0.00000000       0.00374244       0.00223215      -0.00004214
C        4.95736915       8.56485336       3.86867877       0.00000000      -0.00025779      -0.00173734      -0.00163388
C        0.04886919       1.45234198       3.48867241       0.00000000       0.00061021      -0.00064011      -0.00321886
C       -1.22170261       3.59011706       3.36293127       0.00000000       0.00038825       0.00259433       0.00120267
C       -2.47527472       5.71926919       3.57936507       0.00000000      -0.00333244       0.00187022      -0.00361934
C       -3.69610415       7.85093586       3.75844704       0.00000000      -0.00186128      -0.00073339       0.00059480
C       -4.91121935       9.99063803       3.75993345       0.00000000       0.00048977      -0.00225339      -0.00088330
C        2.52502261       1.45485872       3.73350692       0.00000000      -0.00071019       0.00159897      -0.00163721
S        1.42599611       3.67014246       2.55783723       0.00000000       0.00540479      -0.00510770       0.00645689
C       -0.07019454       5.77033387       3.45344800       0.00000000      -0.00276535      -0.00357600      -0.00022363
C       -1.24027674       7.87145249       3.67878791       0.00000000       0.00193039      -0.00108515       0.00095902
C       -2.44571327       9.99385334       3.79153149       0.00000000      -0.00016247      -0.00314256      -0.00365301
C        4.98226390       1.43152177       3.81480113       0.00000000      -0.00092546      -0.00077582      -0.00270717
O        3.84494090       3.48971949       4.17026180       0.00000000      -0.00370772       0.00163279      -0.00076314
C        1.22270538       7.85591456       3.79252592       0.00000000       0.00088737      -0.00114006       0.00372289
C        0.03081856       9.97524954       3.74093898       0.00000000       0.00179202       0.00181301       0.00180712
C        7.44213944       1.42756400       3.69810673       0.00000000       0.00177438      -0.00193989       0.00212306
C        6.22351205       3.53797452       3.84382442       0.00000000       0.00143379      -0.00253070       0.00261666
C        4.98394503       5.64418378       4.06562343       0.00000000       0.00259075       0.00279599       0.00224321
C        3.71580266       7.86019370       3.96931863       0.00000000      -0.00116186       0.00116206      -0.00091277
C        2.48864866       9.97013320       3.72438999       0.00000000      -0.00239543      -0.00041971      -0.00196294
C        9.91438135       1.43934490       3.56304855       0.00000000      -0.00086847       0.00089006      -0.00259102
C        8.66414096       3.57094288       3.61955327       0.00000000      -0.00108171       0.00067863       0.00008975
C        7.41622353       5.70209269       3.78450912       0.00000000       0.00227639       0.00218564       0.00311213
C        6.18038221       7.83613525       3.87212723       0.00000000       0.00111137       0.00021740      -0.00426450
C        4.96563597       9.99085165       3.73012245       0.00000000      -0.00285826      -0.00196625       0.00099280
Hf       2.13435241       4.74294573       4.81054184       0.00000000      -0.00251510      -0.00197779      -0.01627622
O        0.99676495       4.94158845       6.32645123       1.00000000       0.00076167       0.00526693       0.00224112
O        1.93685329       3.78218796       6.44698534       1.00000000       0.00112840       0.00448334       0.01314415
