51
Lattice="12.336457 0.0 0.0 -6.168228499999997 10.683685154694365 0.0 0.0 0.0 15.0" Properties=species:S:1:pos:R:3:initial_magmoms:R:1:forces:R:3 energy=-443.72023450442026 free_energy=-443.72023450442026 stress="-0.0063574122416095 0.0010319838411034 -4.925222976666999e-07 0.0010319838411034 -0.005517248701242691 3.419746558330101e-05 -4.925222976666999e-07 3.419746558330101e-05 1.2577727226656e-05" pbc="T T T"
C       -0.02520385      -0.05469861       3.78625885       0.00000000       0.00231085      -0.00500274       0.00765687
C       -1.25953124       2.09105133       3.99145797       0.00000000      -0.00224274       0.00535308       0.00582724
C       -2.48155306       4.23517870       3.71689807       0.00000000      -0.00646631      -0.00497805      -0.00358489
C       -3.70365439       6.37115562       3.41399394       0.00000000      -0.00022639       0.00272852       0.00072210
C       -4.96065215       8.50975671       3.43070817       0.00000000       0.00698012      -0.00636662       0.00542124
C        2.43588657      -0.06784520       3.75176816       0.00000000       0.00217391      -0.00012464       0.00556037
C        1.21046432       1.99485422       4.33070431       0.00000000      -0.00196883       0.00281420       0.00109583
C       -0.12351687       4.28967326       4.33351128       0.00000000      -0.00275621      -0.00097719       0.00865493
C       -1.28637491       6.39036565       3.78706987       0.00000000       0.00601335       0.00187080       0.00578516
C       -2.50101370       8.51106014       3.56035525       0.00000000       0.00124133       0.00156609      -0.00087366
C        4.91034826      -0.04294823       3.66447336       0.00000000      -0.00578272      -0.00390845      -0.00117768
C        3.68158105       2.01904743       3.95989603       0.00000000       0.00300131       0.00235454      -0.00564658
C        1.11470042       6.44588050       4.26934402       0.00000000       0.01112518      -0.00951142       0.00395814
C       -0.05181988       8.52246278       3.73300555       0.00000000      -0.00245322       0.01065299       0.00149522
C        7.37670166      -0.03278793       3.69867677       0.00000000       0.00113215       0.00802598      -0.01240194
C        6.15955204       2.09496081       3.58232112       0.00000000      -0.00297579       0.00112173       0.00036962
C        4.99853170       4.24419893       3.18084186       0.00000000      -0.00424793       0.00521281      -0.01610648
S        3.53368710       6.40361788       2.36555788       0.00000000       0.00447855       0.00896933       0.01172466
C        2.41682627       8.52497894       3.74130995       0.00000000      -0.00614926      -0.00702747       0.00260675
C        9.85002174      -0.04142052       3.74280263       0.00000000       0.00045772       0.00205621       0.00240433
C        8.62823695       2.09594812       3.66524864       0.00000000       0.00445326      -0.00940020      -0.00171420
C        7.42617478       4.22451377       3.34283455       0.00000000       0.00103676      -0.00113465       0.00299036
C        6.20188903       6.38898423       3.06464809       0.00000000      -0.00771961      -0.00194053      -0.00134929
C        4.92816906       8.50777063       3.46174122       0.00000000       0.00518972      -0.00247105      -0.00039752
C       -0.03014274       1.35698336       4.06254387       0.00000000      -0.00141547       0.00077240      -0.00618350
C       -1.27573330       3.52549445       4.01988177       0.00000000      -0.00722090       0.00307678       0.00624425
C       -2.48725841       5.66092913       3.62857944       0.00000000       0.00123147       0.00031399      -0.00296998
C       -3.72355349       7.79697995       3.44382666       0.00000000       0.00642295      -0.00046424      -0.00021108
C       -4.96639883       9.91778327       3.65421294       0.00000000       0.00593861      -0.00678851       0.00389358
C        2.43680925       1.32216218       4.03124029       0.00000000       0.00139246       0.00249312       0.00447158
P        1.25442899       3.56134195       5.17662389       0.00000000       0.00017296       0.00970026       0.00442524
C       -0.08075084       5.70662841       4.13528011       0.00000000       0.00634149      -0.00258737       0.01385619
C       -1.27560790       7.80514835       3.67464723       0.00000000       0.00184720       0.00600675      -0.00869910
C       -2.49469491       9.92736578       3.63672904       0.00000000      -0.00303975      -0.00218516      -0.00244782
C        4.92414342       1.37731369       3.71888355       0.00000000      -0.00243386      -0.00499742      -0.00095422
P        3.65247044       3.72421394       4.17430190       0.00000000       0.01307229       0.00607093      -0.00876892
C        1.17533126       7.80425205       3.90220106       0.00000000      -0.00798090      -0.00481677      -0.00052303
C       -0.02814394       9.93593418       3.67580887       0.00000000      -0.00089244       0.01111636      -0.01067584
C        7.38761126       1.38648434       3.63912151       0.00000000       0.00049648       0.00378667      -0.00222395
C        6.20479978       3.49775279       3.34963792       0.00000000      -0.00223491       0.00341469       0.00037354
C        5.03165937       5.63693834       2.86956305       0.00000000      -0.01107954       0.00532656       0.00192063
C        3.65803563       7.82170392       3.47518881       0.00000000       0.00341708      -0.00615893       0.00054681
C        2.44151901       9.94657593       3.72454379       0.00000000      -0.00114291      -0.00014412      -0.00019169
C        9.85640121       1.38547508       3.80116091       0.00000000       0.00563031       0.00155240      -0.00238797
C        8.64183974       3.51870690       3.56261345       0.00000000      -0.00190772      -0.01269645       0.00368413
C        7.42457102       5.65288968       3.24832178       0.00000000      -0.00395463       0.00276162      -0.00627106
C        6.14645784       7.80743749       3.27330739       0.00000000       0.00310174      -0.00380973       0.00416039
C        4.91444884       9.92078189       3.67769735       0.00000000      -0.00063830       0.00118000      -0.00683439
Hf       3.10197996       5.98646810       4.99027781       0.00000000      -0.01298650       0.00642771       0.00873152
O        3.57685859       6.36714747       8.09382461       1.00000000      -0.00141930      -0.01354279       0.00244606
O        3.38103524       6.23401921       6.80897150       1.00000000       0.00267690      -0.00569205      -0.01843198
