51
Lattice="12.336457 0.0 0.0 -6.168228499999997 10.683685154694365 0.0 0.0 0.0 15.0" Properties=species:S:1:pos:R:3:initial_magmoms:R:1:forces:R:3 energy=-453.4756638651614 free_energy=-453.4756638651614 stress="-0.006708408678100345 0.0019522030301179002 2.1092169326854713e-05 0.0019522030301179002 -0.0027144060482197675 1.2098687827810367e-05 2.1092169326854713e-05 1.2098687827810367e-05 -2.816290693218265e-06" pbc="T T T"
C       -0.02452973       0.00479454       3.73914657       0.00000000      -0.00261753       0.00019924       0.00266825
C       -1.25732158       2.13395495       3.84690796       0.00000000       0.00966706       0.00116669       0.00289030
C       -2.48097896       4.27438176       3.77459587       0.00000000       0.00303776      -0.00025125       0.00289547
C       -3.71812278       6.41316286       3.63691049       0.00000000       0.00626008      -0.00261931       0.00378719
C       -4.96078682       8.55463146       3.59680097       0.00000000      -0.00102427      -0.00060762      -0.00793144
C        2.43979642       0.01275308       3.75609420       0.00000000      -0.00250810       0.00346590      -0.00357828
C        1.20853743       2.16343510       3.94520610       0.00000000      -0.00075133       0.00083610       0.00242080
C       -0.02351880       4.28181628       4.01709644       0.00000000       0.00101807       0.00094252      -0.00254317
C       -1.27276307       6.42985029       3.82954598       0.00000000       0.00465521      -0.00179641       0.00533702
C       -2.50097946       8.55871902       3.72781314       0.00000000      -0.00003855      -0.00282588       0.00251499
C        4.91218868       0.00363244       3.73821926       0.00000000      -0.00005759      -0.00122105       0.00188320
C        3.68919704       2.14661212       3.70208873       0.00000000      -0.00107294       0.00406937      -0.00283974
N        1.12771264       6.45834668       4.01900474       0.00000000      -0.00539118       0.00300914       0.00350429
C       -0.04095792       8.54440660       3.78441002       0.00000000      -0.00538295      -0.00061855       0.00201492
C        7.38329699      -0.01260138       3.75424693       0.00000000      -0.00190192       0.00123112       0.00174690
C        6.17113018       2.11731082       3.64592103       0.00000000      -0.00392222      -0.00275612      -0.00296036
C        4.96749219       4.21904031       3.41767930       0.00000000      -0.00388160       0.00183597       0.00122988
P        3.56565823       6.34561096       2.44628475       0.00000000       0.00605650      -0.01317022      -0.00510257
C        2.42136830       8.53188283       3.63646796       0.00000000       0.00289796       0.00449619       0.00160189
C        9.84640273      -0.01216273       3.72668031       0.00000000       0.00134572       0.00642947      -0.00214953
C        8.62549736       2.12693219       3.73366472       0.00000000       0.00441721       0.00150868      -0.00144522
C        7.41359527       4.26368980       3.56444306       0.00000000      -0.00745366      -0.00121781      -0.00170136
C        6.18541117       6.41517325       3.36444579       0.00000000      -0.00036276      -0.00058945       0.00592119
C        4.91239488       8.55055741       3.46749322       0.00000000       0.00157313       0.00471109      -0.00094541
C       -0.02765423       1.42569828       3.85707019       0.00000000       0.00442868      -0.00127738      -0.00247230
C       -1.26346523       3.56058758       3.88319779       0.00000000       0.00407702       0.00011458       0.00375322
C       -2.49083935       5.70221732       3.75048255       0.00000000       0.00878451      -0.00108867       0.00096204
C       -3.72853363       7.84173490       3.65114881       0.00000000       0.00043805      -0.00248403      -0.00187207
C       -4.95904625       9.97841673       3.70255264       0.00000000      -0.00354062       0.00047132       0.00026926
C        2.44406223       1.43586055       3.81979027       0.00000000      -0.00074061       0.00551026      -0.00291064
C        1.17129500       3.56266495       4.13586206       0.00000000      -0.00346259      -0.00025964       0.00571706
C       -0.05046087       5.73942723       3.97034758       0.00000000       0.00261632      -0.00099795      -0.00530773
C       -1.27317255       7.84581430       3.78598051       0.00000000      -0.00084075      -0.00424266       0.00023659
C       -2.49628687       9.98233199       3.73738750       0.00000000      -0.00102470      -0.00012374      -0.00063203
C        4.92846095       1.41863361       3.69091928       0.00000000      -0.00321884      -0.00055395      -0.00357718
C        3.75207520       3.54154883       3.60321751       0.00000000      -0.00167206       0.00287780       0.00039967
C        1.17368508       7.82128476       3.79508733       0.00000000      -0.00399718       0.00312208      -0.00112982
C       -0.02565738       9.96783150       3.75707326       0.00000000      -0.00149566      -0.00221800      -0.00030851
C        7.39662611       1.40754449       3.71733203       0.00000000       0.00066706       0.00053307      -0.00320305
C        6.20352531       3.52798547       3.51835510       0.00000000      -0.00872847      -0.00192442      -0.00074973
C        4.98746923       5.65594381       3.22668840       0.00000000      -0.00290489       0.00115534       0.00549553
C        3.65338547       7.87123076       3.34530674       0.00000000       0.00340657      -0.00001174      -0.00239140
C        2.44030883       9.95675472       3.72707942       0.00000000       0.00074917       0.00600279       0.00633739
C        9.84978928       1.41242811       3.77855498       0.00000000       0.00878383       0.00480221       0.00044107
C        8.63319416       3.55486935       3.69227884       0.00000000      -0.00209914       0.00238781      -0.00302586
C        7.40470682       5.69544292       3.52033539       0.00000000       0.00099598      -0.00026271       0.00033673
C        6.15207478       7.83964749       3.44435856       0.00000000      -0.00000517      -0.00028914      -0.00135279
C        4.91294961       9.96715760       3.65634716       0.00000000      -0.00183996       0.00443879       0.00039657
Hf       2.64490284       5.05705826       4.67011524       0.00000000       0.01202172      -0.01142945      -0.01049158
O        3.25232996       4.92427175       7.77109869       1.00000000      -0.00466141      -0.00055026      -0.00617536
O        3.00942722       4.97752493       6.48007150       1.00000000      -0.01129895      -0.00993013       0.01203572
