51
Lattice="12.336457 0.0 0.0 -6.168228499999997 10.683685154694365 0.0 0.0 0.0 15.0" Properties=species:S:1:pos:R:3:initial_magmoms:R:1:forces:R:3 energy=-452.13232474368453 free_energy=-452.13232474368453 stress="-0.006093951533493558 -0.002886878048019729 -2.868400454258932e-05 -0.002886878048019729 -0.002450713619910662 2.7625216883158755e-05 -2.868400454258932e-05 2.7625216883158755e-05 7.101400933019994e-06" pbc="T T T"
C       -0.02668760       0.00146061       3.77265247       0.00000000      -0.00389125      -0.00279177       0.00172071
C       -1.28039566       2.12317551       3.81899109       0.00000000       0.01007683      -0.00044967       0.00523557
C       -2.49472411       4.26372430       3.75367764       0.00000000      -0.00055450       0.00324618      -0.00752890
C       -3.70122044       6.41374967       3.66414434       0.00000000      -0.00417794       0.00263552       0.00189977
C       -4.94327359       8.55921097       3.69855405       0.00000000      -0.00986829       0.00517708       0.00457176
C        2.44659600      -0.00120841       3.72958742       0.00000000      -0.00315511      -0.00377858       0.00252495
C        1.19373190       2.14644442       3.89890052       0.00000000      -0.00171007       0.00182906       0.00272589
C       -0.04026581       4.24358497       4.04236379       0.00000000       0.00094689      -0.00416053      -0.00014430
C       -1.27232734       6.41281705       3.83815253       0.00000000       0.00973376      -0.00353952       0.00563183
C       -2.48405065       8.55172660       3.71436235       0.00000000       0.00358518      -0.00794190       0.00215898
C        4.91204268       0.00070469       3.61734557       0.00000000      -0.00383524      -0.00132237      -0.00372574
C        3.64008474       2.08709244       3.39096005       0.00000000      -0.01010054      -0.00465113      -0.00485627
C        1.13352752       6.43044157       4.15921329       0.00000000      -0.00971640       0.00647880       0.00206186
C       -0.02097397       8.53888426       3.79347625       0.00000000       0.00546188       0.00670062      -0.00536262
C        7.37863768      -0.01493231       3.66189536       0.00000000       0.00248218       0.00036799      -0.00034525
C        6.13518251       2.14325700       3.45774978       0.00000000      -0.00037648      -0.00049610      -0.00681591
C        4.98069025       4.36109652       3.33391929       0.00000000       0.01007031      -0.00143777      -0.00630968
O        3.80307254       6.43949222       3.80012449       0.00000000      -0.00264134       0.00795602      -0.00776475
C        2.46784604       8.50898109       3.83173704       0.00000000       0.00237235      -0.01099284      -0.01038931
C        9.83733916      -0.01863389       3.72823101       0.00000000      -0.00646833       0.00457914       0.01309325
C        8.60197955       2.12725544       3.64384368       0.00000000       0.00053326       0.01232039      -0.00209317
C        7.39364570       4.27878001       3.54240188       0.00000000      -0.00025845       0.00362659      -0.00127832
C        6.20581488       6.45068110       3.56534839       0.00000000      -0.00376833      -0.00884116       0.01183848
C        4.92738986       8.54603650       3.72169491       0.00000000       0.00507551       0.00190076      -0.00182918
C       -0.04030022       1.42051235       3.83979011       0.00000000       0.00617765      -0.00474242       0.00400538
C       -1.28270821       3.54212784       3.86923372       0.00000000       0.00022193      -0.00099265       0.00100261
C       -2.48385721       5.69331227       3.74784379       0.00000000       0.00250834       0.00323284      -0.00374792
C       -3.70749872       7.83976633       3.68981077       0.00000000      -0.00790705       0.00466253       0.00831349
C       -4.95382530       9.97948661       3.75333800       0.00000000      -0.00561580       0.00393290      -0.00675663
C        2.43198086       1.42095878       3.70718934       0.00000000      -0.00896366      -0.00382822      -0.00305455
C        1.14610001       3.51237752       4.16522219       0.00000000       0.00378980       0.00374869       0.00342700
C       -0.04034871       5.70398327       4.02421307       0.00000000       0.00323763      -0.00726833       0.00932171
C       -1.25679750       7.83377667       3.77650441       0.00000000       0.01181991      -0.00272058       0.00283055
C       -2.48552130       9.97565878       3.68375258       0.00000000      -0.00166178      -0.00735657       0.00367057
C        4.90116176       1.42924576       3.47191971       0.00000000      -0.00609398      -0.00118521      -0.00241671
S        3.48852900       3.69259161       2.72264292       0.00000000      -0.00038937       0.00830321      -0.00798646
C        1.20768410       7.79551975       3.92577509       0.00000000      -0.00235031       0.00233631       0.01691871
C       -0.02186315       9.96129853       3.68345271       0.00000000       0.00077528       0.00623823      -0.00421618
C        7.36369173       1.41811133       3.57793915       0.00000000       0.00185944       0.00488642       0.00033022
C        6.16078736       3.57132037       3.42029200       0.00000000       0.00567561       0.00039940       0.00664793
C        5.01811025       5.75028135       3.53144877       0.00000000      -0.00462956      -0.00144488      -0.00844250
C        3.71821842       7.85405877       3.80616628       0.00000000       0.00545785       0.00181261      -0.00743340
C        2.44580816       9.94332778       3.73314753       0.00000000      -0.00130217      -0.01012227      -0.00607750
C        9.82760773       1.40965962       3.72741977       0.00000000       0.00285018       0.01065475      -0.00331168
C        8.61525282       3.55387694       3.63980538       0.00000000      -0.00366637       0.00946840       0.00207988
C        7.41586210       5.70182810       3.57564674       0.00000000      -0.00304955      -0.00239605       0.00315656
C        6.17656024       7.86195497       3.66257329       0.00000000      -0.00200475      -0.00630478      -0.00347009
C        4.90813296       9.97002685       3.74287776       0.00000000      -0.00519332       0.00137650       0.00421236
Hf       2.65884525       4.96237944       4.94360717       0.00000000       0.00274653      -0.00596543       0.01448033
O        2.38867566       5.11074523       6.83399061       1.00000000       0.01336688      -0.01407295      -0.00183849
O        3.67856165       4.43204760       6.48466208       1.00000000       0.00252477       0.00093270      -0.01666483
