51
Lattice="12.336457 0.0 0.0 -6.168228499999997 10.683685154694365 0.0 0.0 0.0 15.0" Properties=species:S:1:pos:R:3:initial_magmoms:R:1:forces:R:3 energy=-453.4016159315416 free_energy=-453.4016159315416 stress="-0.004848202995524234 -0.0006536351220980116 1.880209182724333e-05 -0.0006536351220980116 0.0014464648710149216 -2.7054359455602953e-05 1.880209182724333e-05 -2.7054359455602953e-05 -1.1044442147978393e-05" pbc="T T T"
C        0.00490704      -0.00616658       3.63105044       0.00000000       0.00512425       0.00819485      -0.00004526
C       -1.24642092       2.11630837       3.61592276       0.00000000      -0.00661248      -0.00076375      -0.00440185
C       -2.47591161       4.26463986       3.57689084       0.00000000      -0.00286467      -0.00396277       0.00096020
C       -3.69720397       6.40998548       3.56341043       0.00000000       0.00349819      -0.00730080      -0.00660004
C       -4.92368649       8.55434867       3.60296616       0.00000000       0.00149077      -0.00880992       0.00360373
C        2.47254495       0.03033584       3.63933806       0.00000000       0.00161214       0.00607510       0.00517654
C        1.19860989       2.11677769       3.73957139       0.00000000       0.00277534      -0.00559654       0.00733340
C       -0.07092564       4.25203117       3.76285451       0.00000000      -0.00456418      -0.00321422      -0.00547376
C       -1.25601317       6.40444139       3.62207055       0.00000000      -0.00656959      -0.00062760      -0.00112578
C       -2.46730709       8.55377207       3.58930999       0.00000000      -0.00067531       0.00747091      -0.00018495
C        4.93840725      -0.00327306       3.63306133       0.00000000       0.00242424      -0.00658229       0.00255501
C        3.74071583       2.12175752       3.76264276       0.00000000       0.00115989       0.00089024      -0.00099197
C        1.18202887       6.39736433       3.90003790       0.00000000       0.00266272       0.00385205      -0.00300349
C       -0.00013674       8.53250190       3.67262277       0.00000000      -0.00459497       0.00336534      -0.00741356
C        7.41178611      -0.03031115       3.64613251       0.00000000       0.00469710       0.00615683       0.00902228
C        6.18516291       2.12206261       3.64442890       0.00000000      -0.01015251      -0.00947748      -0.00523610
C        5.01514174       4.27386578       3.82542846       0.00000000       0.00704992       0.00769656      -0.00107571
N        3.80446196       6.42650283       4.02559329       0.00000000      -0.01001973      -0.00313411      -0.00220946
C        2.48576031       8.49872690       3.78388375       0.00000000       0.00709374       0.00425885      -0.00780091
C        9.87027498      -0.03119064       3.64615607       0.00000000       0.00574847      -0.00389923       0.00697051
C        8.63778153       2.11834378       3.59194436       0.00000000       0.00535146      -0.00262339       0.00713686
C        7.41246844       4.27050524       3.59953998       0.00000000       0.00367946      -0.00399013      -0.01009868
C        6.19268374       6.41402350       3.66500623       0.00000000      -0.00268977       0.00310739      -0.00000676
C        4.95166352       8.52553827       3.70786747       0.00000000       0.00067098       0.00833115      -0.00388014
C       -0.00009544       1.42693639       3.64473733       0.00000000      -0.00141044       0.00503835       0.00906876
C       -1.25378812       3.53447784       3.62119142       0.00000000      -0.00745795      -0.00169341      -0.00160897
C       -2.46936248       5.68961751       3.57316756       0.00000000      -0.00097702      -0.00705031       0.00087847
C       -3.69466691       7.83843734       3.57450222       0.00000000       0.00638743      -0.00690113       0.00137679
C       -4.92192101       9.98936416       3.62120721       0.00000000       0.00329699      -0.00275014       0.00274324
C        2.47083616       1.48737027       3.71779557       0.00000000       0.00638534       0.00424390      -0.00554530
O        1.12529673       3.51791986       3.90941521       0.00000000      -0.00663126      -0.01115416       0.00988469
C       -0.01796641       5.67313863       3.76214167       0.00000000       0.00033981       0.00207126      -0.00995166
C       -1.23859421       7.83013891       3.61778390       0.00000000      -0.00764193       0.00168819       0.01110908
C       -2.46883062       9.98817993       3.61707187       0.00000000      -0.00051832       0.00773520       0.00202526
C        4.94101339       1.43155124       3.66679743       0.00000000      -0.00590981      -0.01236181       0.00918459
O        3.81448503       3.52312147       3.95451006       0.00000000      -0.00569064      -0.00245832      -0.00519746
C        1.23498179       7.79018279       3.78375437       0.00000000       0.00019406       0.00942406      -0.00001598
C        0.00436789       9.95354009       3.64597319       0.00000000       0.00456013       0.00174701       0.00057490
C        7.40358226       1.40271863       3.61672193       0.00000000      -0.00008507       0.00346461      -0.00232983
C        6.18846779       3.54659415       3.66562873       0.00000000       0.00085881      -0.00520308      -0.00668098
C        4.97809306       5.70134586       3.83433505       0.00000000      -0.00430652       0.00650478      -0.01379914
C        3.73729085       7.78955738       3.84016922       0.00000000       0.00470085       0.00012165      -0.00289457
C        2.47660984       9.92860873       3.68377650       0.00000000       0.00580013       0.00226581       0.00978736
C        9.87187139       1.40137380       3.60385760       0.00000000       0.00108964      -0.00697858       0.00788783
C        8.63650965       3.54873096       3.57429846       0.00000000       0.00409518      -0.00484974      -0.01051800
C        7.40998835       5.69252703       3.59316264       0.00000000      -0.00146968      -0.00077036       0.00504617
C        6.18515125       7.83347295       3.65465041       0.00000000      -0.00606784       0.00183363      -0.00624530
C        4.93910477       9.95030435       3.65489898       0.00000000       0.00645049       0.00906956       0.00519248
Hf       2.44335290       4.97558950       4.75710703       0.00000000       0.00405280      -0.00942242      -0.00338390
O        2.23061375       5.22562559       7.85653220       1.00000000      -0.01432252       0.00863682       0.00189554
O        2.30746504       5.13062209       6.54943016       1.00000000       0.00798188       0.00833158       0.00830585
