52
Lattice="12.336457 0.0 0.0 -6.168228499999997 10.683685154694365 0.0 0.0 0.0 15.0" Properties=species:S:1:pos:R:3:forces:R:3 energy=-447.97464693129655 free_energy=-447.97464693129655 stress="-0.005396532056950913 -0.001024310805968215 -2.187076772426389e-05 -0.001024310805968215 -0.007007276099240982 -8.14550851397419e-06 -2.187076772426389e-05 -8.14550851397419e-06 3.78817905732715e-05" pbc="T T T"
C       -0.02211506      -0.04847290       3.60977974       0.00382882      -0.00042641      -0.00550942
C       -1.25928810       2.08623301       3.70856971       0.01001605       0.00427611      -0.00028663
C       -2.50217909       4.22826491       3.42087447      -0.00448432       0.00032503       0.00015258
C       -3.73802017       6.37123372       3.27972199      -0.00083930      -0.00346317       0.00462872
C       -4.95849682       8.50894369       3.39069133      -0.00328362      -0.00639753      -0.00586052
C        2.44096298      -0.05886749       3.59900021      -0.00529884      -0.00685667       0.00088977
C        1.19012424       1.96921799       4.24935698      -0.00695884       0.00513757       0.00071022
C       -0.19684068       4.25123744       4.16427590       0.00486285       0.00585100      -0.00054471
C       -1.30354435       6.38016710       3.52498477       0.00630710       0.00044658      -0.00423183
C       -2.49360963       8.50973470       3.32151647      -0.00008310       0.00080041       0.00603894
C        4.91280529      -0.04504171       3.44194770       0.01066163       0.00572965      -0.00806029
C        3.71034053       1.95012376       4.11608466      -0.00870148      -0.00217622      -0.00828504
P        1.16110645       6.46085397       4.70526008       0.00411477      -0.00862420      -0.00313352
C       -0.03680032       8.52945662       3.49768693      -0.00694933      -0.00441551       0.00707743
C        7.38897767      -0.03952321       3.41418865      -0.00461251       0.00397890       0.00354553
C        6.15579684       2.09138790       3.57522111       0.00296388       0.00452358       0.00203498
C        5.05976487       4.27789233       4.05913019       0.00969933      -0.00791596       0.00379698
C        3.81267928       6.44523182       4.39684372       0.00206419      -0.00416106      -0.00593148
C        2.46925746       8.53846257       3.75787527       0.00115288       0.00847045      -0.00262036
C        9.85715333      -0.03736471       3.51704132       0.00008060       0.00061873      -0.00383794
C        8.62013711       2.09554801       3.39814240       0.00193975      -0.00291652      -0.00244384
C        7.38608927       4.23721119       3.39903860      -0.01209000      -0.00294466      -0.00145214
C        6.16240599       6.38806354       3.57970710      -0.00673255      -0.00103443      -0.00181800
C        4.92071919       8.50355015       3.65848829       0.00405020       0.00340395      -0.01570208
C       -0.02791598       1.36520703       3.84240633      -0.00256532       0.00194120       0.00743190
C       -1.30144158       3.50274764       3.72492100       0.00239614       0.00651791       0.01076360
C       -2.51154332       5.65460226       3.35074297       0.00287885      -0.00278197       0.00492150
C       -3.73146943       7.79750613       3.29603770      -0.00373951       0.00455577       0.00071077
C       -4.95828959       9.92555897       3.51086167      -0.00519186      -0.00356639      -0.00318060
C        2.43798784       1.31214332       4.00713331      -0.00901088       0.00209715      -0.01121764
S        1.03593097       3.48307661       5.12121335      -0.00295565      -0.00188576      -0.01010848
C       -0.17605042       5.64190460       3.98020617      -0.00314246       0.00673008       0.01086562
C       -1.26594681       7.80178659       3.42442140      -0.00370581      -0.00604312       0.00939731
C       -2.49381646       9.93083541       3.42030146       0.00560034       0.00078872       0.00657456
C        4.92907968       1.35669279       3.68125262       0.00488199       0.00195567      -0.00274458
P        3.89770947       3.40838827       5.00644204       0.01014045       0.01336339      -0.00339249
C        1.20307704       7.90955332       3.80752638      -0.00287624       0.00682915       0.00043921
C       -0.02051982       9.94139031       3.38971637       0.00267132      -0.00352915      -0.00515964
C        7.38288085       1.38520674       3.41511467      -0.00029204       0.00693624       0.00120315
C        6.18367230       3.52002646       3.63282491      -0.00359320      -0.00254022      -0.00460219
C        4.97329336       5.71073379       4.01731312      -0.00057275      -0.00920458      -0.00234076
C        3.70243611       7.79263307       3.94783527       0.00298372       0.00567532       0.00122128
C        2.45943294       9.93899027       3.51367267      -0.00617925       0.00770035       0.00621697
C        9.86031418       1.38670406       3.49741369       0.00630986      -0.00625229       0.00199479
C        8.61091171       3.51809453       3.34893376      -0.01295838      -0.00405618       0.00349823
C        7.36953311       5.66283372       3.38045890      -0.00007960      -0.00269723       0.01677435
C        6.14933554       7.80025600       3.52085601       0.00317262      -0.00446433       0.00648507
C        4.91477913       9.92324157       3.56768437       0.00729867      -0.00237403      -0.00058909
Hf       2.75353863       5.28795746       6.11812805       0.00171577      -0.01132221       0.00324955
O        3.01277059       5.74957175       7.91768773       0.00222887      -0.00508991      -0.00111533
O        3.14626010       6.15967358       9.24624333       0.01276563      -0.00007465      -0.00148609
H        3.72327680       5.47320115       9.64172880      -0.00988945       0.00856149      -0.00496832
