52
Lattice="12.336457 0.0 0.0 -6.168228499999997 10.683685154694365 0.0 0.0 0.0 15.0" Properties=species:S:1:pos:R:3:forces:R:3 energy=-457.914080857927 free_energy=-457.914080857927 stress="-0.005261947350810626 0.0005995784741542057 -3.5669512532403264e-05 0.0005995784741542057 0.001171857524886549 -4.264978102159619e-06 -3.5669512532403264e-05 -4.264978102159619e-06 2.2835192935431924e-05" pbc="T T T"
C       -0.00510808      -0.00192674       3.70900362       0.00462860      -0.00446780       0.00160464
C       -1.25086535       2.12480005       3.67354180      -0.00328169      -0.00368966       0.00243854
C       -2.48032186       4.27045204       3.60935641      -0.00884989      -0.00607160       0.00025077
C       -3.70972765       6.40992615       3.61340828       0.00243746       0.00081275       0.00091389
C       -4.93647004       8.55531440       3.67203943       0.00345938       0.00222302       0.00909064
C        2.45917430       0.03268798       3.73056000       0.00453790      -0.00520746       0.00597328
C        1.20189613       2.11614275       3.83487038      -0.00439864       0.00271893       0.00724053
C       -0.07784128       4.27777827       3.81016285      -0.00378087       0.00286053       0.00446719
C       -1.26658514       6.41612290       3.67006549      -0.00050476       0.00149237      -0.00429432
C       -2.47563921       8.55502550       3.66203634      -0.00509911      -0.00593960      -0.00447497
C        4.92779294       0.00301296       3.70487652      -0.00494057       0.00299469       0.00648996
C        3.73073014       2.16229736       3.85037982      -0.00951292       0.00704937       0.00453788
O        1.11395563       6.44265013       4.04451186       0.00857898      -0.00937479       0.00687160
C       -0.01634837       8.52967800       3.74064468       0.00281864      -0.00013990       0.00231527
C        7.39947158      -0.02956023       3.69689631      -0.00307729       0.00437446       0.01576696
C        6.17623011       2.12155531       3.68899436       0.00712153      -0.00157779       0.00095957
C        4.97382893       4.23375705       3.85762472       0.00318914      -0.00250623       0.00062945
C        3.75671285       6.39540026       3.97215642      -0.00029839       0.00005548      -0.00120721
C        2.44206959       8.49767672       3.82964451      -0.00084900       0.00065127      -0.00714117
C        9.85720836      -0.02802433       3.70394745      -0.00826331       0.00336284      -0.00746243
C        8.63173760       2.11891485       3.63066142      -0.00034611       0.00132636       0.00956744
C        7.40513541       4.26187624       3.63505830      -0.00181065      -0.00053907      -0.00212303
C        6.18787262       6.40538490       3.71601903       0.00631225      -0.00037495      -0.00075277
C        4.93056094       8.53214545       3.74884641       0.00293782       0.00322429       0.00535978
C       -0.00894576       1.43045425       3.72674115      -0.00375168      -0.00321999       0.00705510
C       -1.26075942       3.54708645       3.66463278      -0.00320625      -0.00339395      -0.01662951
C       -2.48368349       5.69039273       3.61040696      -0.00142727      -0.00262657       0.00371702
C       -3.71006535       7.83919540       3.64066073      -0.00418825       0.00034092       0.00122744
C       -4.93592265       9.98926675       3.70392882       0.00614656      -0.00033207      -0.00929603
C        2.45698618       1.47970261       3.81632178      -0.00736850      -0.00032718      -0.00423665
O        1.13191428       3.52539516       3.97203049       0.00574548       0.00788937       0.01365523
C       -0.08353450       5.68928981       3.82411518      -0.00027769       0.00090570      -0.00505204
C       -1.25767415       7.83778513       3.68336412      -0.00167479       0.00084953      -0.00668415
C       -2.48146025       9.99061688       3.69957628      -0.00049913      -0.00825376      -0.00310608
C        4.93543403       1.43147707       3.73524788      -0.00322863       0.00756004      -0.00173911
N        3.80006260       3.52978480       4.01658239      -0.00245228       0.00615927       0.00054728
C        1.19413533       7.84182428       3.86502048       0.00294395      -0.00483629       0.01409301
C       -0.00575806       9.95929293       3.70648266      -0.00247389       0.00506783       0.00304639
C        7.40237557       1.40282485       3.65790356       0.00595714       0.00150324       0.00257985
C        6.18583045       3.53599587       3.69618986       0.00369853      -0.00417903       0.00773142
C        4.95442286       5.68040201       3.86064396       0.00298853      -0.00180755      -0.00443787
C        3.70344685       7.79242471       3.84778938       0.00028376       0.00139950      -0.01144401
C        2.45561373       9.93350763       3.73624805      -0.00706604       0.00276316      -0.00949048
C        9.86700039       1.40503629       3.65800710      -0.00432370      -0.00125493      -0.00891628
C        8.63094675       3.54755886       3.60678361      -0.00891104      -0.00378855      -0.00679941
C        7.40201747       5.69055184       3.64265758       0.00811050      -0.00017141      -0.00206939
C        6.17230039       7.83155385       3.70659247       0.00673689       0.00182725       0.00074661
C        4.92875579       9.95555457       3.71503273      -0.00103550       0.00246097       0.00692300
Hf       2.49763775       4.96033751       4.80250750       0.00384040       0.00120599      -0.01688458
O        2.67730976       5.03674006       6.62176768       0.00112623       0.00042233      -0.01229416
O        2.66119303       5.07176691       8.03353076       0.00540347      -0.00017547       0.00420728
H        3.61124300       5.02492627       8.27717512       0.00789469       0.00075414      -0.00347133
