52
Lattice="12.336457 0.0 0.0 -6.168228499999997 10.683685154694365 0.0 0.0 0.0 15.0" Properties=species:S:1:pos:R:3:forces:R:3 energy=-448.40108174863644 free_energy=-448.40108174863644 stress="-0.006539829205196677 -0.0029414008650997313 1.6591426228795772e-05 -0.0029414008650997313 -0.01057440158572728 1.5835666039553974e-05 1.6591426228795772e-05 1.5835666039553974e-05 4.955018102055071e-05" pbc="T T T"
C       -0.08052670      -0.02656963       3.58405059      -0.00691207      -0.00121387       0.00765730
C       -1.33255670       2.10831569       3.83846098       0.00096298      -0.00300274      -0.00042493
C       -2.56699773       4.25509015       3.81547546       0.00823592      -0.00253444      -0.01018158
C       -3.75880589       6.39430464       3.62381515       0.01153134      -0.00823742      -0.00352296
C       -4.99116324       8.52853444       3.50967373       0.00603670       0.00492989       0.00791748
C        2.39795514      -0.06664474       3.56068650      -0.01099284      -0.00553875       0.00941187
C        1.15905461       2.00427147       3.99555587       0.01135518      -0.00225963       0.00484496
C       -0.22951932       4.23912874       4.47522216      -0.00335881      -0.00018673       0.00311291
C       -1.34715508       6.40297524       4.08991775       0.01374614       0.00917998      -0.00115249
C       -2.52198925       8.51299366       3.69048233      -0.00944608       0.00314921      -0.00874976
C        4.86220064      -0.02763435       3.55189668      -0.00778266       0.00583296       0.00315507
C        3.58768532       2.03639204       3.39521438       0.00892133       0.00142136       0.00985216
P        1.31429887       6.38805886       4.98112626      -0.01440569      -0.01231667      -0.00209710
C       -0.07689616       8.55754377       3.95677005      -0.00872959       0.00039557      -0.00407765
C        7.31729429       0.00116229       3.59982115       0.00052629      -0.00449205       0.00050948
C        6.07444368       2.13356824       3.40545485       0.00353522       0.00160453       0.00253023
C        4.89505562       4.31334125       3.45416253      -0.00430538      -0.00612194      -0.00960791
C        3.72532572       6.46686362       3.92383462       0.00368144       0.00672024       0.00742953
C        2.40139852       8.58508084       3.86846520       0.00123059       0.00281993       0.00392669
C        9.78894047      -0.00025646       3.58139081       0.00677586       0.00269801      -0.00583265
C        8.54850642       2.12984492       3.56490366      -0.00522762      -0.00414231       0.00225638
C        7.32957547       4.26524592       3.49936770      -0.00277738       0.00137675       0.00437424
C        6.14422941       6.43200547       3.47066177      -0.00648137       0.00906357      -0.00513097
C        4.86973025       8.55030622       3.55999818       0.00144928      -0.00136329      -0.01810915
C       -0.09634434       1.38010238       3.80310667       0.00283916      -0.00148789       0.01260783
C       -1.36842821       3.51885911       4.03848781      -0.00021043      -0.00431711       0.00509559
C       -2.55205969       5.68133368       3.83367187       0.01897328      -0.00169884       0.00514837
C       -3.75752551       7.81337518       3.59671770       0.00096181      -0.00382648      -0.00402047
C       -5.01133158       9.93721658       3.54114359      -0.01197401       0.00230539       0.00170666
C        2.37988284       1.33942970       3.65236900       0.01081850      -0.00657815       0.00613993
P        1.22593523       3.40883875       5.02834524      -0.01290075       0.00207490       0.01166848
C       -0.20935809       5.65480783       4.49576078       0.00901510      -0.00039315      -0.01589111
C       -1.30455629       7.82014877       3.93358930      -0.00749096       0.00383488      -0.01607633
C       -2.52750779       9.92824034       3.57729039      -0.01223223       0.00261553       0.00545658
C        4.84649059       1.40344058       3.41371582       0.00727179       0.00459105       0.00194008
S        3.37454333       3.67215259       2.86093181       0.00796998      -0.00363255       0.00626484
C        1.18027128       7.93938550       4.20089722      -0.00582836      -0.00318602      -0.00735933
C       -0.07541381       9.96247611       3.68391845      -0.00690742       0.00228180       0.00446171
C        7.30973757       1.42398369       3.49229384      -0.00333843      -0.00468450       0.00254923
C        6.09420170       3.55039614       3.41674599      -0.00361238       0.00025382       0.01045740
C        4.90027587       5.75315666       3.58385892      -0.00628683      -0.00185116      -0.00421500
C        3.63912144       7.85138442       3.76967814       0.00351613       0.00270253       0.00712194
C        2.38783078       9.98414696       3.64935558       0.00765619       0.00440770      -0.00452148
C        9.78407599       1.41686097       3.63530645      -0.00114184      -0.00045694      -0.00365328
C        8.55283019       3.55039420       3.60198196      -0.00106574      -0.00325689       0.00234885
C        7.34815774       5.69157570       3.50282892      -0.00077479       0.00438170      -0.00355469
C        6.10936647       7.84119537       3.49027055       0.00668156       0.00923458       0.00015793
C        4.85586556       9.96427370       3.55143914       0.00047828      -0.00520086       0.00286250
Hf       3.33039425       4.85768646       5.33100579       0.00397845       0.01484839      -0.00448644
O        4.07490244       5.15017289       6.99746741      -0.00565318      -0.00501516      -0.01193917
O        4.59185263       5.43540168       8.25912392       0.00037574       0.00276278       0.00936188
H        5.27386884       4.74393629       8.38673785       0.00131262      -0.00849151      -0.01772361
