53
Lattice="12.336457 0.0 0.0 -6.168228499999997 10.683685154694365 0.0 0.0 0.0 15.0" Properties=species:S:1:pos:R:3:forces:R:3 energy=-461.5385458423498 free_energy=-461.5385458423498 stress="-0.004149559544601311 0.0006079267905225868 1.0724347615674112e-05 0.0006079267905225868 -0.005888395643220406 -2.4636043601684044e-05 1.0724347615674112e-05 -2.4636043601684044e-05 3.6089603416107614e-05" pbc="T T T"
C        0.01090545      -0.03771344       3.82886271       0.00621772      -0.00751214       0.00574289
C       -1.22165523       2.09623770       3.92700961       0.00319600      -0.00179769      -0.00601872
C       -2.45205423       4.23873503       3.96537457      -0.00691381      -0.00199940       0.00007722
C       -3.68751840       6.37663106       3.91534415       0.00230707       0.00767273      -0.00430350
C       -4.93317361       8.50534795       3.79880668       0.00143324       0.00228791       0.00152943
C        2.47515327      -0.04820654       3.93191990       0.00460155       0.00096386       0.00157540
C        1.24635251       2.07539231       3.98267883      -0.00095816      -0.00066351      -0.00603892
C        0.01359923       4.21542600       3.87671227       0.00489948      -0.00205861       0.00124947
C       -1.23234136       6.39139253       3.80124804      -0.00109033      -0.00510322      -0.00689741
C       -2.46022010       8.51264004       3.84699546      -0.00361639      -0.00928706      -0.00078544
C        4.94275732      -0.03322728       3.89069658      -0.00327516       0.00088942      -0.00225734
C        3.71149871       2.08521714       4.00592265       0.00171736       0.00129454       0.00195762
C        2.48291424       4.20384274       4.11944479       0.00391959       0.00718582      -0.00387615
S        0.95783697       6.32393869       2.24425985       0.00338764      -0.00250723      -0.00280622
C       -0.01309628       8.53681366       3.56072356      -0.00809831       0.00856420       0.00027798
C        7.41069431      -0.01507378       3.72900886       0.00488452      -0.00312684      -0.00193970
C        6.18421804       2.09747123       3.97010044       0.00653403      -0.00056460      -0.00444743
C        4.95622635       4.21977523       3.87041278      -0.00311528       0.00178537      -0.00335211
S        3.81343681       6.27032405       2.44080991      -0.00081158       0.00089938       0.01058506
C        2.47132719       8.59444651       3.18961258       0.00025229      -0.01049348      -0.00092075
C        9.88376659      -0.01869988       3.69281715      -0.00699788       0.00679479       0.00487577
C        8.65095204       2.10509767       3.92196110       0.00263613      -0.00393741       0.00198012
C        7.42020491       4.23729930       3.95703192      -0.00038319      -0.00213635       0.00576639
C        6.19559595       6.37411157       3.69968085       0.00322726      -0.00074949       0.00500314
C        4.96414821       8.52824170       3.49663539      -0.00178376       0.00422834       0.00572620
C        0.01211612       1.38215687       3.91800829       0.00096128      -0.00953196      -0.00151261
C       -1.22591469       3.51836455       3.94639250       0.00152966       0.00284049      -0.00103898
C       -2.45133627       5.66616404       3.93612496      -0.00381268      -0.00082753      -0.01064277
C       -3.69382131       7.79764595       3.86673897      -0.00195750       0.00175099      -0.00748320
C       -4.92820602       9.93047397       3.85485641       0.00812855      -0.00355587      -0.00191114
C        2.47817052       1.37254598       3.98913559      -0.00150381       0.00149756       0.00342255
C        1.25997586       3.51286132       3.99587905       0.00612880      -0.00120495       0.00632062
C       -0.00763109       5.64418175       3.64828613       0.00279099      -0.00080320       0.00266626
C       -1.22473126       7.80334042       3.72120272      -0.00380517      -0.00382173      -0.01322969
C       -2.45796954       9.93429282       3.89638626      -0.00138854      -0.00690603      -0.01361086
C        4.94566223       1.38606016       3.96531579       0.00237665       0.00184726       0.00740608
C        3.70275492       3.52174029       3.99867408       0.00193232      -0.00133249       0.00214152
C        1.19788303       7.89676968       3.12321998      -0.00577372       0.00864645       0.01022691
C        0.00638596       9.95278720       3.74233036      -0.00258981       0.00832965      -0.00525971
C        7.41531586       1.39592465       3.89450027       0.00860070      -0.00577404      -0.00191574
C        6.19404581       3.51795005       3.96619460      -0.00380409       0.00005218      -0.00396459
C        5.01176613       5.60597992       3.54788316      -0.00401128       0.00407276       0.00213767
C        3.72446960       7.88431854       3.18022022      -0.00057712      -0.01293823       0.00887363
C        2.47552324       9.98789105       3.53525516       0.00075013      -0.00775241       0.00894104
C        9.88388710       1.39330068       3.86461826       0.00169411       0.00606828      -0.00330859
C        8.65320439       3.52682141       3.97541519      -0.00646428      -0.00404014      -0.00015047
C        7.41917999       5.66111088       3.89034751       0.00597819       0.00303575       0.00673222
C        6.17515573       7.79635873       3.63773607      -0.00111140       0.00515305      -0.00205072
C        4.94916434       9.94564851       3.67525776      -0.00490255       0.00577535       0.01243347
Hf       2.22174717       6.34565713       4.53203882      -0.00816659       0.00980662       0.00101166
O        2.10712448       6.63021247       6.34923777       0.00462874       0.00230585       0.00322922
O        1.99644910       6.85509711       7.72162044       0.00554864      -0.00245521      -0.00821593
H        2.83364056       6.49068974       8.07780393      -0.01335025       0.00913226      -0.00395082
