53
Lattice="12.336457 0.0 0.0 -6.168228499999997 10.683685154694365 0.0 0.0 0.0 15.0" Properties=species:S:1:pos:R:3:forces:R:3 energy=-464.6420673735627 free_energy=-464.6420673735627 stress="-0.006406169001881451 4.409517072862234e-05 3.835883271113833e-06 4.409517072862234e-05 -0.009914467572641014 1.606947859436979e-05 3.835883271113833e-06 1.606947859436979e-05 1.2741750535307943e-05" pbc="T T T"
C        0.01462291       0.00829942       3.88046894       0.00657880       0.00081535       0.00323141
C       -1.21836239       2.14548808       3.85314462       0.00830352       0.00320104      -0.00771865
C       -2.45285717       4.29166450       3.84049583      -0.00664575      -0.00618560      -0.00142192
C       -3.68876834       6.42714169       3.88490307      -0.00009655      -0.00301871      -0.00062171
C       -4.92243671       8.55762463       3.86363972       0.00095522      -0.00122091       0.00387603
C        2.48509827      -0.00022749       3.84914136       0.00418297       0.00313095       0.00040355
C        1.24802950       2.11318938       3.67410472      -0.00681047      -0.00502929      -0.00513723
C       -0.01267725       4.24877111       3.62537788      -0.00188358      -0.00022822      -0.00222954
C       -1.24085290       6.43622766       3.82771513      -0.00077578      -0.00061352      -0.00239757
C       -2.45043931       8.55777015       3.97942993      -0.00083683      -0.00360139       0.00201038
C        4.94597873       0.02488416       3.93460667       0.00011377      -0.00226204      -0.00361893
C        3.72426012       2.12123790       3.62324098      -0.00139319       0.00151313      -0.00009330
C        2.49634810       4.19026882       3.39705961       0.00328945       0.00114421       0.00025369
O        0.79923631       6.20834749       2.55596946      -0.00316432       0.00828477       0.00035741
C        0.00786617       8.60209232       4.19513733       0.00311906      -0.00314424      -0.00075395
C        7.41174740       0.05410005       4.03567614      -0.00305322       0.00453697       0.00177106
C        6.18535497       2.15826629       3.79637490      -0.00045557       0.00030187       0.00152637
C        4.98038019       4.26486283       3.43717380       0.00275208       0.00305570       0.00079003
P        3.73343012       6.56625372       2.48588916      -0.00231888       0.00708461       0.01129732
C        2.46210663       8.63245957       4.07078487      -0.00030326      -0.00328636      -0.00284775
C        9.89116439       0.03842296       3.96810936      -0.00027355       0.00369062       0.00684432
C        8.65332270       2.16611154       3.91198457       0.00291367      -0.00296985      -0.00208645
C        7.42141147       4.29132853       3.77282312      -0.00122607      -0.00171150      -0.00176892
C        6.20246287       6.42873550       3.61978141      -0.00384690      -0.00217291       0.00294302
C        4.95401330       8.57338544       3.81133516       0.00291630       0.00321966      -0.00433759
C        0.01478004       1.42783021       3.81323498       0.00017942      -0.00363022      -0.00389083
C       -1.23297691       3.56432778       3.79028733      -0.00392761      -0.00072386      -0.00081044
C       -2.45337074       5.71574974       3.86959783      -0.00138389      -0.00200073      -0.00531017
C       -3.68574530       7.84792697       3.91097660      -0.00406195      -0.00151671       0.00727142
C       -4.91964027       9.97916573       3.87454070       0.00647039       0.00392156       0.00522693
C        2.48830064       1.41465655       3.71210731      -0.00311544       0.00483450      -0.00104023
C        1.25476107       3.53650990       3.53874698      -0.00033692      -0.00205451      -0.00155100
C       -0.10859231       5.66726527       3.33294438       0.00012063       0.00080492      -0.00099626
C       -1.21545334       7.85041029       4.02220691       0.00120327      -0.00229352      -0.00145432
C       -2.45127118       9.98297075       3.93385225       0.00111084      -0.00429297      -0.00090845
C        4.95158169       1.43712053       3.78030221      -0.00064384      -0.00259713       0.00143383
C        3.72894771       3.54004697       3.43371717       0.00569692       0.00327104       0.00245349
C        1.24846952       8.01961656       4.39941188       0.00042230      -0.00223047      -0.00183648
C        0.00590099      10.02307213       4.07169635       0.00173337      -0.00117469      -0.00409869
C        7.41458680       1.46511617       3.92620704      -0.00195799       0.00545810       0.00931868
C        6.19686684       3.57174876       3.67200824       0.00075642       0.00165520      -0.00097940
C        5.02785069       5.68469972       3.31458032      -0.00469953       0.00446366       0.00073418
C        3.68280873       7.89903634       3.72569465       0.00094555      -0.00213780       0.00167570
C        2.48433876      10.04914441       4.04067141      -0.00313180      -0.00127318       0.00325298
C        9.88798462       1.45321010       3.93123397       0.00883741       0.00265050      -0.00874506
C        8.65231174       3.58460700       3.85777905      -0.00167314      -0.00795863      -0.00173513
C        7.42221513       5.71439575       3.77337296       0.00012285      -0.00326401       0.00084346
C        6.18274615       7.85251714       3.74755233       0.00267823      -0.00416201      -0.00349169
C        4.95163152       9.99192207       3.92065135       0.00438928       0.00295656       0.00419694
Hf       1.98581366       6.03027267       4.32763835      -0.00583150       0.00838299       0.00134338
O        2.09617612       5.60504319       6.14083167      -0.00874626      -0.00051891      -0.00002292
O        2.06614170       5.19375753       7.47556004       0.01356865       0.00632217       0.01218745
H        2.70781229       5.79839911       7.90372934      -0.01076660      -0.00742618      -0.01333846
