51
Lattice="12.336457 0.0 0.0 -6.168228499999997 10.683685154694365 0.0 0.0 0.0 15.0" Properties=species:S:1:pos:R:3:initial_magmoms:R:1:forces:R:3 energy=-455.28527051684085 free_energy=-455.28527051684085 stress="-0.004093260519097224 0.00044000814189039064 7.882969343407549e-06 0.00044000814189039064 0.00298501936228797 3.6459042153245195e-07 7.882969343407549e-06 3.6459042153245195e-07 -1.963377761629385e-06" pbc="T T T"
C       -0.00127771       0.00975579       3.65882383       0.00000000      -0.00521230      -0.00007454      -0.00300145
C       -1.24816807       2.12946208       3.61790163       0.00000000       0.00201458      -0.00030255       0.00035560
C       -2.47134030       4.27111173       3.53743625       0.00000000      -0.00644420       0.00468884      -0.00406421
C       -3.70100886       6.41584237       3.53261029       0.00000000      -0.00050771      -0.00285576      -0.01167719
C       -4.92965355       8.56597300       3.60212969       0.00000000       0.00776856       0.00096389      -0.00112358
C        2.46544992       0.04774127       3.70059960       0.00000000      -0.00315425       0.00045809      -0.00575409
C        1.19576736       2.18916335       3.82895468       0.00000000       0.00499661       0.00754834       0.00231445
C       -0.03816710       4.26387429       3.79314966       0.00000000      -0.00740662      -0.00419371       0.01098294
C       -1.25398922       6.41636047       3.64197994       0.00000000       0.00503041       0.00133612      -0.00230835
C       -2.47067457       8.56024875       3.62173122       0.00000000      -0.00004666      -0.00030449      -0.00065882
C        4.92922129       0.00374533       3.68481027       0.00000000       0.00375016      -0.00630432       0.00682800
C        3.73138137       2.12735664       3.82530507       0.00000000       0.00137526      -0.00196958       0.00820454
O        1.10657294       6.43212202       4.04031426       0.00000000      -0.00576990      -0.00095721      -0.00042060
C       -0.01196689       8.53081336       3.73979503       0.00000000       0.00090063      -0.00476419      -0.00126870
C        7.40157221      -0.02866796       3.67710700       0.00000000      -0.00056118      -0.00180317       0.00061669
C        6.18071575       2.12291838       3.63546157       0.00000000      -0.00138630      -0.00778874      -0.00516067
C        5.00560710       4.25848547       3.77491300       0.00000000       0.00765665       0.00161129       0.00975376
C        3.78520930       6.40995478       4.00224232       0.00000000      -0.00965037      -0.00092028       0.00185798
C        2.44243521       8.49457246       3.83113697       0.00000000       0.00468992       0.00797649      -0.00947350
C        9.85783832      -0.02717186       3.66028268       0.00000000       0.00281078      -0.00072150      -0.00360248
C        8.63235697       2.12152475       3.56893093       0.00000000       0.00065350      -0.00109494      -0.00494876
C        7.41314881       4.27019982       3.54188365       0.00000000      -0.00722197       0.00399739      -0.00170400
C        6.19411826       6.41249328       3.61418787       0.00000000      -0.00366466       0.00913536       0.00366999
C        4.93673367       8.53858520       3.70054955       0.00000000       0.00589023      -0.00417294      -0.00377527
C       -0.00806825       1.43867877       3.68560775       0.00000000       0.00432189       0.00409409       0.00539295
C       -1.25502540       3.55037696       3.60970472       0.00000000      -0.00777738      -0.00043263       0.00525426
C       -2.47868985       5.69381433       3.54727039       0.00000000       0.00361738       0.00388794       0.00352714
C       -3.70453182       7.84611305       3.57331496       0.00000000       0.00335709      -0.00454267       0.00474437
C       -4.93011445       9.99777235       3.65295031       0.00000000      -0.00384334       0.00035015       0.00186609
C        2.47277075       1.49170461       3.80248178       0.00000000      -0.00047261       0.00220383      -0.00718192
N        1.12592922       3.54847820       4.01319733       0.00000000       0.00474713       0.00867803      -0.00172164
C       -0.07949240       5.69391157       3.81542992       0.00000000      -0.00132171      -0.00423545       0.00467830
C       -1.25254574       7.84357454       3.66063801       0.00000000      -0.00033825      -0.00047298      -0.00228326
C       -2.47787583       9.99966453       3.67096845       0.00000000      -0.00047914       0.00021527       0.00031030
C        4.93654213       1.43454934       3.70415513       0.00000000      -0.00102026      -0.00667857       0.00285639
O        3.81423818       3.53227017       3.95427131       0.00000000       0.00713970      -0.00061505      -0.00693470
C        1.19361256       7.83448968       3.87658394       0.00000000       0.00254251       0.00266842       0.00580208
C       -0.00274412       9.96162306       3.69708391       0.00000000       0.00318032      -0.00747971      -0.00350783
C        7.39810208       1.40774003       3.61325882       0.00000000       0.00039432      -0.00385262       0.00255392
C        6.18751073       3.54390217       3.61571946       0.00000000       0.00099748      -0.00614005      -0.00097333
C        4.95871021       5.68506160       3.78463947       0.00000000      -0.00251131       0.00554129       0.00611367
C        3.71297474       7.78649656       3.84190620       0.00000000       0.00137938       0.00167142      -0.00922772
C        2.45654462       9.92841581       3.71530096       0.00000000       0.00198486       0.00678414      -0.00382504
C        9.86040220       1.40288795       3.59932674       0.00000000       0.00373530      -0.00179092       0.00483012
C        8.63383854       3.55080048       3.52620394       0.00000000      -0.00707818       0.00344455      -0.00014146
C        7.40602451       5.69617396       3.54022163       0.00000000      -0.00733825       0.00568543       0.00227279
C        6.17874278       7.83839370       3.62553329       0.00000000       0.00863432       0.00534432       0.00458137
C        4.93190400       9.96137071       3.66573421       0.00000000      -0.00113616      -0.00629729       0.00150464
Hf       2.48975192       4.95724207       4.98540915       0.00000000      -0.00556265      -0.01131601      -0.01265935
O        2.02411448       5.45807157       6.76468834       1.00000000      -0.00089813      -0.00290834      -0.00485647
O        3.12040306       4.43411675       6.70725112       1.00000000      -0.00276549       0.00670550       0.01138207
