52
Lattice="12.336457 0.0 0.0 -6.168228499999997 10.683685154694365 0.0 0.0 0.0 15.0" Properties=species:S:1:pos:R:3:forces:R:3 energy=-458.0136404109214 free_energy=-458.0136404109214 stress="-0.004827040771098874 -0.0005141802539632884 1.5952479070258763e-05 -0.0005141802539632884 -0.0014651306877637876 1.8371848973385615e-05 1.5952479070258763e-05 1.8371848973385615e-05 1.5862065338611137e-05" pbc="T T T"
C        0.06887266      -0.03295228       3.70391232       0.00066334       0.00708654       0.01368561
C       -1.17400679       2.08437365       3.66581456      -0.00092470      -0.00338631       0.00795861
C       -2.41163151       4.21897099       3.50928553      -0.00371730       0.00320449      -0.00365452
C       -3.64934546       6.36643240       3.46729256       0.00911692       0.00105578       0.00843723
C       -4.86841595       8.51281011       3.57453424       0.00560887       0.00558070      -0.00402943
C        2.53022820      -0.04137072       3.72653881       0.00484219       0.00851680      -0.00528152
C        1.29332533       2.12500979       3.98312190       0.01410907      -0.00569955       0.00576899
C        0.04885862       4.21088946       3.75006629      -0.00481773      -0.00488969       0.01375072
C       -1.20558201       6.37105449       3.41643550      -0.00495851      -0.00342378      -0.00396377
C       -2.41133683       8.51119360       3.47140639       0.00356031       0.00219760       0.00125370
C        5.00620156      -0.05923601       3.67339268       0.00011553       0.00003506      -0.00194585
C        3.78799110       1.96460106       4.25276564      -0.00325251       0.00336500       0.00529605
C        1.21532366       6.38345963       3.62446174      -0.00438442       0.01236111      -0.00983533
C        0.06131860       8.49869430       3.48752786      -0.00200720      -0.00106429       0.00170743
C        7.47453687      -0.06292144       3.63628547       0.00651569      -0.00049645       0.00716426
C        6.24811707       2.08011662       3.86747517      -0.00708040      -0.00550418      -0.00400715
C        5.11498843       4.28697854       4.28202905       0.00164880      -0.00192364      -0.00028853
N        3.89167776       6.43412802       4.29908136      -0.01423810      -0.00551066       0.00459875
C        2.55584730       8.47120899       3.73331362      -0.00304487      -0.00223890       0.00830464
C        9.93646378      -0.05754659       3.67522729      -0.00533240      -0.00465327      -0.01222760
C        8.70050128       2.08088417       3.62200346       0.00207434       0.00764546       0.01038820
C        7.47309662       4.22818189       3.66689746       0.00527290      -0.00070992       0.00271019
C        6.24995792       6.38708861       3.75673152       0.00624740      -0.00387064       0.01111772
C        5.01620189       8.49992741       3.75131149      -0.00475545      -0.00276141       0.00432291
C        0.06640169       1.39117137       3.77666604       0.01025277       0.00386130       0.00184333
C       -1.18711156       3.50116380       3.60222307      -0.00939443      -0.00313499      -0.00161380
C       -2.42347654       5.64979254       3.43850566      -0.00085147      -0.00167335      -0.00312099
C       -3.64205115       7.79545339       3.47905431       0.00785409       0.00070623       0.00810811
C       -4.86847134       9.93543212       3.65308807       0.00405349       0.00915200      -0.00891775
C        2.52713342       1.35928481       3.99994619       0.00864843       0.00188814      -0.00543712
C        1.22956076       3.53598366       4.12901573      -0.00483084      -0.01128701       0.00731987
C        0.02712614       5.65785965       3.57219834      -0.00090082       0.00157200      -0.00052535
C       -1.17889063       7.79437826       3.42575457      -0.00241722      -0.00379424      -0.00504085
C       -2.40511705       9.92942564       3.61095328       0.00159404       0.00498402      -0.00819170
C        5.02420368       1.34198957       3.92600255      -0.01098849       0.00011921      -0.00089844
P        3.86086566       3.43689154       5.18849955      -0.00787050      -0.00475955      -0.00478631
C        1.30178791       7.76875221       3.58832195      -0.00227498       0.00700378      -0.00224645
C        0.06934252       9.91424066       3.57778908       0.00458837      -0.00114537       0.00437186
C        7.46789329       1.36617080       3.69174955       0.00241221       0.00191432      -0.00452336
C        6.26451447       3.51796376       3.92443696       0.00216250      -0.00476095       0.00018176
C        5.05724666       5.71743610       4.11132459      -0.00408094      -0.00145845       0.00837665
C        3.80537023       7.76556055       3.92423937      -0.00899512      -0.00540917      -0.00284745
C        2.54267536       9.90089218       3.66679537       0.00006612      -0.00786062      -0.00906118
C        9.93028893       1.36637893       3.63422406      -0.00293478      -0.00074726      -0.00611781
C        8.69629268       3.50930147       3.57382330       0.00193311       0.00651007      -0.01514011
C        7.46431900       5.65487491       3.60728659       0.01043353      -0.00245267       0.00300441
C        6.24327194       7.79971602       3.67957783       0.00207651      -0.00064036      -0.00238969
C        5.00541820       9.92391688       3.69519207      -0.00436725       0.00191612      -0.00514765
Hf       2.17518708       5.31280740       5.14292268       0.00324476       0.01130876       0.00143205
O        1.48333279       5.76657636       6.79050125       0.00511572       0.00412980      -0.00218127
O        0.90327522       6.16859600       8.00353668      -0.00351288      -0.01588997      -0.00439413
H        1.62197497       6.01035097       8.65082495      -0.00227768       0.00503236      -0.00328794
