52
Lattice="12.336457 0.0 0.0 -6.168228499999997 10.683685154694365 0.0 0.0 0.0 15.0" Properties=species:S:1:pos:R:3:forces:R:3 energy=-457.9429143254753 free_energy=-457.9429143254753 stress="-0.004912119778888299 0.0011438256426726124 -1.8215397592627374e-05 0.0011438256426726124 0.0013691753574997289 -2.5069977876795143e-05 -1.8215397592627374e-05 -2.5069977876795143e-05 2.4167356185130765e-05" pbc="T T T"
C        0.00186623       0.00719786       3.69796744       0.00269577      -0.01125819       0.00886402
C       -1.23994211       2.12996843       3.69592448      -0.00060115       0.00039566       0.00129866
C       -2.46634366       4.26944674       3.63453278      -0.00621801       0.00092014       0.00427999
C       -3.70096545       6.41053061       3.60482910      -0.00387784       0.00196236      -0.00231746
C       -4.93013996       8.55906951       3.64275565       0.00475512      -0.00110974       0.00930739
C        2.46687683       0.03669640       3.74438348       0.00148699      -0.01180306      -0.00683467
C        1.20679814       2.17796008       3.85376299      -0.00604305      -0.00608661      -0.00780559
C       -0.03796171       4.26892055       3.86976155      -0.00467097      -0.00940596       0.00128186
C       -1.25690905       6.41707235       3.73701253       0.00058332       0.00845317      -0.00093071
C       -2.47028830       8.55538890       3.69227082      -0.00569544       0.00111765      -0.00837470
C        4.93294158      -0.00120284       3.73793132      -0.00198719      -0.00737308      -0.00201432
C        3.73578252       2.11050466       3.86055243       0.00175221      -0.00285772      -0.00798570
O        1.10380180       6.44898499       4.13183285      -0.00126518      -0.00347499      -0.00114318
C       -0.01242792       8.53107559       3.79616102      -0.00219986       0.00807109      -0.00296566
C        7.40547748      -0.02853077       3.72676335       0.00489637      -0.01160474      -0.00828426
C        6.18568345       2.11800551       3.68340573       0.01229400      -0.00457329      -0.00128455
C        5.01261443       4.25269076       3.77221205      -0.00779468      -0.00871901      -0.00339378
C        3.74818331       6.38778383       3.85235769      -0.00979027      -0.00839469       0.01064972
C        2.44593528       8.49687955       3.82837191       0.00334622       0.00947084      -0.00917491
C        9.86320178      -0.02575702       3.69921481      -0.00685002       0.01108932      -0.00050212
C        8.63889137       2.12061435       3.64105581      -0.00185090      -0.00002670      -0.00056355
C        7.41800516       4.26562795       3.59692273       0.00038312       0.00122882      -0.00008067
C        6.19375305       6.40667494       3.62262764       0.00533245       0.01218865       0.00181211
C        4.93600743       8.53561473       3.69307583      -0.00131810       0.00856201      -0.00180328
C       -0.00044931       1.43772445       3.73953881      -0.00913255       0.00096363      -0.00081604
C       -1.24924810       3.54919452       3.70583173      -0.00686052      -0.00627092      -0.01420363
C       -2.47805015       5.69119843       3.64148799      -0.00249454       0.00141824      -0.00064119
C       -3.70412612       7.84014747       3.63692847      -0.00796015       0.01468489       0.00625585
C       -4.92902400       9.99094386       3.69248523      -0.00455603       0.00355892       0.00628907
C        2.47606737       1.48317712       3.83387256       0.00293658      -0.00109561      -0.01117183
N        1.15078812       3.54926393       4.00196989       0.00911847       0.00496593       0.00053500
C       -0.08572670       5.69497633       3.91171717      -0.00603898      -0.00128785      -0.00068897
C       -1.25251322       7.84178440       3.73880596      -0.00648417       0.00728200       0.00702576
C       -2.47578472       9.99392475       3.72793020      -0.00412110      -0.01096762      -0.00679894
C        4.94262219       1.42857945       3.74812196       0.01003863      -0.00964448       0.00941297
O        3.81847700       3.51901502       3.98256161       0.00901855       0.01282086       0.00250361
C        1.19650273       7.84619648       3.91233782      -0.00009490       0.01066884      -0.00375170
C       -0.00026912       9.96027847       3.74699662       0.00464671       0.00288518       0.01140704
C        7.40365117       1.40614434       3.67308820       0.00696625      -0.00406268      -0.00506697
C        6.19455338       3.53608840       3.64718201       0.00584734      -0.00613607       0.00507155
C        4.95673079       5.67271380       3.73606390       0.00180570      -0.00451266       0.00772964
C        3.70697814       7.78787946       3.78135816      -0.00586213       0.00894367       0.00522056
C        2.46147870       9.93388352       3.74485498      -0.00208269       0.00595925      -0.00233893
C        9.86817084       1.40476689       3.66767443      -0.00165505      -0.01154952       0.00003382
C        8.64009613       3.54918770       3.60623481      -0.00892501      -0.00333917      -0.00012771
C        7.40632992       5.69045952       3.58975439       0.01653792       0.00453824       0.00778596
C        6.17733672       7.83279588       3.64176864       0.01215220       0.00129609      -0.00552875
C        4.93513448       9.95998552       3.69033115       0.00618291      -0.00935426       0.01139538
Hf       2.50232031       4.96916036       4.79597396       0.00231223       0.00135427       0.00992104
O        2.59790693       5.02680933       6.62720429      -0.01848659      -0.00169106       0.00094914
O        2.41274878       5.00013852       8.03137087       0.01106343       0.00805135      -0.00591214
H        3.33048905       5.00232278       8.38125830       0.00876459       0.00374859      -0.00652424
