51
Lattice="12.336457 0.0 0.0 -6.168228499999997 10.683685154694365 0.0 0.0 0.0 15.0" Properties=species:S:1:pos:R:3:initial_magmoms:R:1:forces:R:3 energy=-458.6348411790992 free_energy=-458.6348411790992 stress="-0.005910065037389654 -0.0004380392098744907 1.3560775052636288e-05 -0.0004380392098744907 0.002169088093779054 -1.3534214189161957e-05 1.3560775052636288e-05 -1.3534214189161957e-05 9.293798333751192e-06" pbc="T T T"
C        0.00555328       0.00400963       3.63320165       0.00000000       0.00513376      -0.00617252       0.00322751
C       -1.24541228       2.11816124       3.60222257       0.00000000       0.00452439       0.00022176       0.01338370
C       -2.47680309       4.26282657       3.53492633       0.00000000      -0.00123724      -0.00055988      -0.00794981
C       -3.69809337       6.41435813       3.51312902       0.00000000      -0.00671914       0.00196732       0.00487564
C       -4.92379157       8.56369377       3.57889042       0.00000000       0.00129874       0.00102505      -0.00317905
C        2.47207430       0.04546474       3.66989442       0.00000000       0.00308983      -0.00142057       0.00221742
C        1.20629109       2.16731542       3.81506843       0.00000000      -0.00288365       0.00256481      -0.00161090
C       -0.04881091       4.23096059       3.80730376       0.00000000       0.00298917       0.00523722      -0.00919670
C       -1.26255832       6.41084177       3.63471196       0.00000000       0.00174994      -0.00285219       0.00262283
C       -2.47072203       8.56406813       3.58503297       0.00000000      -0.00397794      -0.00398077       0.00516843
C        4.93734318       0.00517057       3.63966301       0.00000000      -0.00213113       0.00447796       0.00683846
C        3.73479880       2.17467898       3.81845306       0.00000000      -0.00107059       0.00040296       0.00471754
C        1.14367940       6.40681156       4.00708634       0.00000000       0.00362356      -0.00045256       0.00742814
C       -0.00545515       8.53548370       3.69230029       0.00000000       0.00077803      -0.00280342       0.00303510
C        7.41215479      -0.03275577       3.62906750       0.00000000      -0.00535853       0.00194389       0.00229694
C        6.18272799       2.12201140       3.60574488       0.00000000       0.00590975       0.00144340       0.00259681
C        4.98535567       4.25415620       3.79330553       0.00000000      -0.00116125      -0.00269174      -0.00465276
N        3.81579219       6.41664230       4.01041089       0.00000000       0.00738408       0.00255442       0.00663033
C        2.48661823       8.49403160       3.79432225       0.00000000      -0.00015809      -0.00085353       0.00161609
C        9.87043176      -0.03299654       3.62259422       0.00000000      -0.00261505       0.00185508       0.00500290
C        8.63776909       2.11475078       3.53850143       0.00000000       0.00115109      -0.00008284      -0.00552208
C        7.41403850       4.26713762       3.52400823       0.00000000      -0.00400596      -0.00108868      -0.00607636
C        6.19317941       6.41673615       3.61060412       0.00000000      -0.00076901       0.00016115      -0.00303821
C        4.95221195       8.52848315       3.68050474       0.00000000       0.00406937      -0.00284277      -0.00523839
C       -0.00494075       1.42994606       3.66718213       0.00000000       0.00241235      -0.00402816       0.00076505
C       -1.25851366       3.53573213       3.61292512       0.00000000       0.00279437       0.00192898       0.00320021
C       -2.47457429       5.69426810       3.54166560       0.00000000      -0.00374934       0.00132875      -0.00646265
C       -3.69598753       7.84501101       3.54760942       0.00000000      -0.00520853       0.00088592      -0.00373112
C       -4.92355531       9.99542022       3.62629231       0.00000000       0.00606794      -0.00250041       0.00006529
C        2.47205683       1.48224312       3.78471542       0.00000000      -0.00313240       0.00123654       0.00094693
N        1.11901933       3.53331957       3.99925450       0.00000000      -0.00480201       0.00088669       0.00165455
C       -0.02999309       5.68691542       3.82119451       0.00000000       0.00509482       0.00104730      -0.00111051
C       -1.24427130       7.83724353       3.62685698       0.00000000      -0.00080867      -0.00258818      -0.00037713
C       -2.46894950       9.99457349       3.62896629       0.00000000       0.00038459      -0.00337051       0.00509083
C        4.94543168       1.43247352       3.67263607       0.00000000       0.00329724       0.00523969       0.00122954
N        3.81961602       3.54308788       4.00056207       0.00000000       0.00446725      -0.00180351      -0.00253181
C        1.22712039       7.78855173       3.83103112       0.00000000       0.00390536      -0.00490746      -0.00173516
C        0.00348908       9.95537851       3.64605202       0.00000000      -0.00454757       0.00057133      -0.00354105
C        7.40909844       1.39647393       3.57401915       0.00000000       0.00314844       0.00056900       0.00126165
C        6.19268331       3.54569537       3.60530545       0.00000000      -0.00079169      -0.00089368      -0.00509075
C        4.98258932       5.71052057       3.79641821       0.00000000      -0.00044781      -0.00087178      -0.00484762
C        3.74208872       7.78516812       3.82883724       0.00000000       0.00291679      -0.00003892       0.00049986
C        2.47735004       9.92136821       3.67193245       0.00000000      -0.00607341       0.00298644       0.00326319
C        9.86613561       1.39638348       3.56933221       0.00000000       0.00214192       0.00234957       0.00140154
C        8.63754580       3.54517551       3.50681696       0.00000000      -0.00335868      -0.00114082      -0.00385971
C        7.41429368       5.69478982       3.52675708       0.00000000      -0.00435008      -0.00099639      -0.00716847
C        6.18639286       7.83963486       3.61244399       0.00000000       0.00541435      -0.00075720       0.00556885
C        4.93968074       9.95393413       3.63673950       0.00000000       0.00085784      -0.00264152       0.00358675
Hf       2.45190093       4.95878986       4.87270214       0.00000000      -0.00872475       0.00215829      -0.01627029
O        2.29028305       5.04322254       8.01358697       1.00000000      -0.00302168       0.00106263      -0.00958883
O        2.35466528       5.01392884       6.68820597       1.00000000      -0.00350075       0.00623391       0.01258728
