51
Lattice="12.336457 0.0 0.0 -6.168228499999997 10.683685154694365 0.0 0.0 0.0 15.0" Properties=species:S:1:pos:R:3:initial_magmoms:R:1:forces:R:3 energy=-453.38347765905365 free_energy=-453.38347765905365 stress="-0.005174000242804946 0.0006393830672279661 -1.4023575550191104e-05 0.0006393830672279661 0.0013871660637383772 -4.89549310257732e-06 -1.4023575550191104e-05 -4.89549310257732e-06 2.9039853707984362e-05" pbc="T T T"
C       -0.01355341      -0.00097479       3.64786993       0.00000000      -0.00500844      -0.00235726      -0.00198843
C       -1.26021497       2.12571851       3.65504147       0.00000000       0.00743598      -0.00125864      -0.00197219
C       -2.48815338       4.27072035       3.60854154       0.00000000       0.00636649       0.00267168      -0.01608594
C       -3.71566565       6.41032755       3.57644865       0.00000000      -0.00472768       0.00316898      -0.00191058
C       -4.94426011       8.55621652       3.59845200       0.00000000      -0.00336431       0.00794034       0.00680260
C        2.44990243       0.03420014       3.66652915       0.00000000       0.00366065       0.00010143       0.00366997
C        1.19217466       2.11729332       3.80191569       0.00000000       0.00487252       0.00703075       0.00056283
C       -0.08707623       4.27805787       3.84059056       0.00000000      -0.00150320       0.00230351      -0.00624981
C       -1.27396687       6.41626864       3.68328435       0.00000000      -0.00122105      -0.00429170      -0.00810040
C       -2.48426258       8.55572752       3.62055834       0.00000000       0.00590019      -0.00785769       0.00587185
C        4.91842904       0.00409317       3.64396945       0.00000000      -0.00313503       0.00604511       0.00576249
C        3.71961224       2.16518896       3.76330864       0.00000000       0.00250263       0.00001217       0.00533648
O        1.10916261       6.44847692       4.04312684       0.00000000      -0.01390550      -0.00285160       0.00447636
C       -0.02526245       8.53071997       3.70448863       0.00000000       0.00191149       0.00120924      -0.00201474
C        7.38987448      -0.02792407       3.63294608       0.00000000      -0.00157814      -0.01359556       0.00178815
C        6.16720551       2.12236204       3.61125689       0.00000000       0.00498480      -0.00388585       0.00240773
C        4.96346157       4.23504101       3.74208380       0.00000000      -0.01000137       0.00011576       0.00564267
C        3.74514408       6.39339125       3.83841971       0.00000000      -0.00407995       0.00435750       0.00147172
C        2.43187131       8.49834161       3.74426147       0.00000000       0.00720154      -0.00529003       0.00334099
C        9.84802557      -0.02779966       3.62998872       0.00000000      -0.00340488       0.00596126       0.01410978
C        8.62337699       2.11950534       3.58305481       0.00000000      -0.00452182       0.00540302       0.00297124
C        7.39833214       4.26280376       3.57178467       0.00000000      -0.00413116      -0.00310075      -0.00029143
C        6.18068698       6.40704437       3.61354845       0.00000000       0.00000952      -0.00420458       0.00018220
C        4.92141667       8.53274379       3.64731376       0.00000000       0.00512322      -0.00381544       0.00160678
C       -0.01864287       1.43106302       3.69451760       0.00000000       0.00848606      -0.00160849      -0.00958156
C       -1.26922524       3.54800164       3.67640832       0.00000000       0.00569208      -0.00186040      -0.01101233
C       -2.49022514       5.69043885       3.60945146       0.00000000      -0.00236628       0.00247478      -0.00550189
C       -3.71772419       7.83965697       3.59111989       0.00000000      -0.00398091       0.00477504      -0.00287413
C       -4.94438944       9.99013217       3.63589713       0.00000000      -0.00168656       0.00633246      -0.00233330
C        2.44648525       1.48110994       3.75273554       0.00000000       0.00416220       0.00256186       0.00103811
O        1.12217468       3.52103775       3.98810503       0.00000000      -0.00711442       0.01275721       0.01199994
C       -0.09151335       5.68993578       3.85345267       0.00000000      -0.00312363      -0.00238994      -0.01552008
C       -1.26648349       7.83839201       3.66595792       0.00000000       0.00798495      -0.00769174      -0.00679195
C       -2.49059249       9.99171625       3.64053446       0.00000000       0.00358473      -0.00468779       0.01074870
C        4.92539734       1.43300201       3.65844924       0.00000000       0.00205308       0.00547963      -0.00871196
N        3.78660272       3.53597470       3.90145423       0.00000000      -0.00901526      -0.00304345       0.00855404
C        1.18619669       7.84180012       3.81655682       0.00000000       0.00095965       0.00193482       0.01222195
C       -0.01482287       9.96040758       3.65314683       0.00000000      -0.00757184      -0.00033620      -0.00820317
C        7.39354599       1.40413385       3.59327422       0.00000000       0.00168325      -0.01183730       0.00826607
C        6.17826307       3.53658387       3.60728977       0.00000000      -0.00687925      -0.00174017       0.00357576
C        4.94406266       5.68158054       3.73597026       0.00000000      -0.00609941       0.00128046       0.00343309
C        3.69281997       7.79160198       3.73425723       0.00000000       0.00783621       0.00216260      -0.00717230
C        2.44562097       9.93424022       3.65744709       0.00000000       0.00233803      -0.00669135       0.01122279
C        9.85817530       1.40542712       3.61067466       0.00000000      -0.00172610       0.01018357       0.00433165
C        8.62337518       3.54791147       3.57210962       0.00000000       0.00161741       0.00645315      -0.00856290
C        7.39588749       5.69156175       3.57649606       0.00000000      -0.00196859      -0.00420368      -0.01373462
C        6.16386813       7.83287823       3.60892716       0.00000000       0.00400942      -0.00358434       0.01856691
C        4.92010218       9.95631704       3.63683965       0.00000000      -0.00599686      -0.00258506      -0.00206782
Hf       2.52162542       4.96750626       4.74285107       0.00000000       0.01267028       0.00012726      -0.00567389
O        3.10992695       5.05500258       7.80284520       1.00000000       0.00599337       0.00002119      -0.01432149
O        2.84297941       5.03178490       6.51744039       1.00000000      -0.00092808       0.00190422       0.00071404
