52
Lattice="12.336457 0.0 0.0 -6.168228499999997 10.683685154694365 0.0 0.0 0.0 15.0" Properties=species:S:1:pos:R:3:forces:R:3 energy=-458.0811271942105 free_energy=-458.0811271942105 stress="-0.006961981361134701 0.002025490606981309 -6.0889599076092525e-05 0.002025490606981309 -0.0029523752177580513 2.013381864612358e-05 -6.0889599076092525e-05 2.013381864612358e-05 1.941721468639474e-05" pbc="T T T"
C       -0.01664310       0.00682200       3.79713795      -0.01467022      -0.00296549       0.00992059
C       -1.24926053       2.13555012       3.91196028       0.00387344       0.00392815      -0.00298933
C       -2.47412465       4.27566276       3.84613975      -0.00441715       0.00226059      -0.00643845
C       -3.71167299       6.41427903       3.71044226      -0.00505037      -0.00196573       0.00449748
C       -4.95432620       8.55499239       3.66435960       0.00128595       0.00972563      -0.00728217
C        2.44619412       0.01347407       3.81854301      -0.00028984       0.00863515      -0.00797283
C        1.21607829       2.16575887       4.00041311       0.01101690       0.00213532      -0.00389833
C       -0.01651466       4.28473026       4.06318749       0.00395751       0.00465497      -0.01026663
C       -1.26583981       6.43178463       3.87507784       0.00207280      -0.00355120       0.00730427
C       -2.49457292       8.56053355       3.78485448       0.00212851      -0.01440317      -0.00008391
C        4.91887887       0.00406910       3.79095994       0.00295216      -0.00417175       0.00170349
C        3.69593012       2.14539372       3.76572514       0.01036317      -0.00570551      -0.00119843
N        1.13637003       6.45986500       4.02477973      -0.01055832       0.00281281       0.00800470
C       -0.03420266       8.54528256       3.81348684       0.00379974       0.00682390       0.00641254
C        7.39031476      -0.01180110       3.79813962       0.00842197       0.00331061      -0.00340610
C        6.17836339       2.11743054       3.71457906      -0.00944033       0.00667679      -0.00490881
C        4.97565783       4.21890037       3.49736703      -0.00790633      -0.00068519       0.00231930
P        3.59534365       6.34488471       2.48047162       0.00525078       0.01166297       0.00760102
C        2.42921645       8.53509075       3.65870544      -0.00824015      -0.00890975       0.00563597
C        9.85408170      -0.00916115       3.77374078       0.00119286      -0.00929694       0.01072329
C        8.63349200       2.12837544       3.79932701      -0.00899195      -0.00436662      -0.00217566
C        7.41989786       4.26470420       3.64619162      -0.00410096       0.00806647       0.00106448
C        6.19119604       6.41568917       3.44551619      -0.00002772       0.00080803       0.00548271
C        4.92007061       8.55352948       3.51716308       0.00700514      -0.00383331       0.00327687
C       -0.01945143       1.42769989       3.91726140       0.00416102      -0.00508144      -0.00321748
C       -1.25620609       3.56209009       3.94831237       0.00410583       0.00945143      -0.01062876
C       -2.48422856       5.70338301       3.81643862      -0.00233712       0.00282315      -0.00226708
C       -3.72208939       7.84288603       3.71852446      -0.00212172      -0.01030232       0.00051141
C       -4.95214759       9.97899228       3.76567514      -0.00471160       0.00767670      -0.00292505
C        2.45027867       1.43660818       3.87984383       0.01076323       0.00370702       0.00070004
C        1.18058551       3.56782046       4.17572170      -0.00032863      -0.00353630      -0.00853031
C       -0.04325612       5.74160710       4.00063272      -0.00028238      -0.00161191       0.00883858
C       -1.26663733       7.84740593       3.82939492       0.01134824      -0.00247114      -0.00658220
C       -2.48987744       9.98371078       3.79473071      -0.00039462      -0.00681995       0.00081933
C        4.93528473       1.41857813       3.75283403       0.00043803      -0.00050953       0.00458677
C        3.76093311       3.53853038       3.66721993      -0.00857683      -0.00641833      -0.00922208
C        1.18121629       7.82396708       3.81021652      -0.00955432      -0.00461446       0.00048648
C       -0.01898425       9.96837434       3.79687488       0.00896762       0.00692658       0.00809935
C        7.40459723       1.40841065       3.77580387      -0.01228066      -0.00044376       0.00875801
C        6.21025225       3.52899587       3.59948434      -0.00159222       0.00614248      -0.00455864
C        4.99104168       5.65685323       3.31016031       0.00063383      -0.00548133       0.00345872
C        3.66290080       7.87360466       3.37812867       0.00557601       0.01099268       0.00370878
C        2.44791803       9.95942631       3.76377695       0.00386151      -0.00942243      -0.00165450
C        9.85803341       1.41447048       3.83978369      -0.00014911       0.00282464      -0.00882180
C        8.64019581       3.55619389       3.76670239      -0.00636919       0.00141172       0.00518262
C        7.41028573       5.69640642       3.60301778      -0.01023771       0.00600240      -0.00192251
C        6.15856399       7.84005977       3.51204180       0.00512186       0.00465331      -0.00432262
C        4.92077998       9.97014223       3.70675255      -0.00934500      -0.00518042       0.00091795
Hf       2.64634044       5.06726462       4.69358829      -0.00673781      -0.00363839      -0.00202246
O        2.86144977       4.97342610       6.53017021       0.00202407      -0.01149728       0.00334903
O        2.81421846       4.88817001       7.92989479       0.01464584       0.00306958      -0.00215727
H        3.74804865       5.03456527       8.18631235       0.01374427      -0.00029942      -0.00391038
