51
Lattice="12.336457 0.0 0.0 -6.168228499999997 10.683685154694365 0.0 0.0 0.0 15.0" Properties=species:S:1:pos:R:3:initial_magmoms:R:1:forces:R:3 energy=-445.4642476037189 free_energy=-445.4642476037189 stress="-0.005460346715864631 -0.0030745828939071403 6.849897135550338e-06 -0.0030745828939071403 -0.010272776464564502 -1.146101004845086e-05 6.849897135550338e-06 -1.146101004845086e-05 -2.7225863814304673e-06" pbc="T T T"
C       -0.03644726      -0.02137382       3.53953241       0.00000000      -0.00922063      -0.00739460      -0.00873113
C       -1.29550902       2.11013795       3.76231894       0.00000000       0.00808328      -0.00051940      -0.00690491
C       -2.51533834       4.26080146       3.65881801       0.00000000       0.00128421       0.00405554       0.00551484
C       -3.70693517       6.40094234       3.47579398       0.00000000      -0.00020099      -0.00262961      -0.00175675
C       -4.94301867       8.53843936       3.41726840       0.00000000       0.00399316      -0.00315320       0.00222893
C        2.43815201      -0.05848914       3.61323403       0.00000000      -0.00437320      -0.00153220      -0.00652546
C        1.17902209       1.99746546       4.09825306       0.00000000       0.00234595      -0.00440880       0.00315620
C       -0.18606797       4.23903728       4.37536267       0.00000000       0.00791299      -0.00175124      -0.00482859
C       -1.28525588       6.40159890       3.91905128       0.00000000      -0.00222321       0.00270730       0.00867264
C       -2.47627857       8.52001961       3.60241762       0.00000000       0.00301798       0.00153488      -0.01062835
C        4.90159926      -0.01505566       3.55313462       0.00000000       0.00625966       0.00277224      -0.00641569
C        3.62312593       2.04581675       3.56033482       0.00000000       0.00179223      -0.00430027      -0.00715109
P        1.33632935       6.41325615       4.89979989       0.00000000      -0.01089872       0.00412572       0.01308076
C       -0.02986950       8.56125041       3.83871026       0.00000000      -0.00206958      -0.00303146       0.00148498
C        7.35958408       0.00817712       3.50674645       0.00000000      -0.00195500      -0.01288753       0.00743511
C        6.10932741       2.14339166       3.38608955       0.00000000       0.00052418       0.00267328       0.01148647
C        4.94340726       4.33100146       3.44279190       0.00000000       0.00376534       0.00171114      -0.00838972
C        3.78905150       6.48481968       3.93062854       0.00000000       0.00653711       0.01259994      -0.00854912
C        2.44909964       8.58867178       3.75851303       0.00000000      -0.00546580       0.00325022       0.00229287
C        9.83203253       0.00420530       3.46871587       0.00000000      -0.00462311      -0.00094661       0.00973345
C        8.58958118       2.13661167       3.45165463       0.00000000      -0.00794750      -0.00139240       0.00045828
C        7.37496656       4.27527191       3.38405147       0.00000000      -0.00544322       0.00567633      -0.00261924
C        6.18605505       6.44079179       3.37477233       0.00000000       0.00531952       0.00118002      -0.00156091
C        4.91837289       8.55676121       3.45443631       0.00000000       0.00280640      -0.00134426      -0.00086169
C       -0.05918187       1.37933945       3.79745668       0.00000000       0.00509101      -0.00672839      -0.00950952
C       -1.32397669       3.52507581       3.92186708       0.00000000       0.00440418      -0.00009347       0.00771701
C       -2.49513497       5.68582782       3.66461396       0.00000000       0.00016662       0.00298149       0.00242394
C       -3.70929062       7.82070961       3.48373124       0.00000000       0.00433213      -0.00396960      -0.00938164
C       -4.96697885       9.94453322       3.51320118       0.00000000      -0.00693130      -0.00247976      -0.00413742
C        2.41638592       1.33743323       3.79555699       0.00000000       0.00176506      -0.00234518       0.00146542
P        1.13781888       3.38073493       5.17136324       0.00000000      -0.00019452      -0.00362611       0.00471090
C       -0.14417319       5.65793140       4.33344106       0.00000000      -0.00534229      -0.00040487       0.00534544
C       -1.25295979       7.82180880       3.80070767       0.00000000      -0.00038925       0.00069100      -0.00217437
C       -2.48650900       9.93951753       3.57561988       0.00000000       0.00296973       0.00465200      -0.01340316
C        4.88307364       1.41837600       3.47481947       0.00000000       0.00458963       0.00307630       0.00230401
S        3.36725283       3.68623988       3.09701428       0.00000000       0.00839576       0.00402279       0.00549874
C        1.22802247       7.93699160       4.07605228       0.00000000      -0.00406580      -0.00220832       0.00296426
C       -0.03186855       9.97174757       3.60943680       0.00000000       0.00014481      -0.00726872      -0.00259986
C        7.34732361       1.43298359       3.41356992       0.00000000      -0.00654129      -0.01179597       0.00164427
C        6.12848221       3.56452020       3.36249562       0.00000000      -0.00226571       0.00307029       0.00430117
C        4.94351932       5.76762450       3.55734062       0.00000000       0.00656408       0.00609742      -0.00334301
C        3.69079785       7.84884397       3.69334044       0.00000000      -0.00007242       0.01528375      -0.00128113
C        2.43144252       9.98665073       3.53118592       0.00000000      -0.00187371      -0.00233976       0.01445481
C        9.82492689       1.42149741       3.52697384       0.00000000       0.00047909       0.00121704      -0.00133511
C        8.59828251       3.55771219       3.46759782       0.00000000      -0.00472203       0.00529945       0.00164403
C        7.39468244       5.70046731       3.37546012       0.00000000       0.00033311       0.00159970      -0.00809981
C        6.15785576       7.85129862       3.37908721       0.00000000       0.00631620      -0.00192787       0.00442844
C        4.90105728       9.96979266       3.45256382       0.00000000      -0.00922710      -0.00660144       0.00963630
Hf       3.38184255       4.88883526       5.58403441       0.00000000      -0.00442031       0.00077404       0.00171874
O        3.24263458       4.66376315       7.48149534       1.00000000       0.00486884       0.00037060      -0.00247540
O        4.49335083       5.40257632       7.05133683       1.00000000      -0.00359556       0.00565854      -0.00313894
