51
Lattice="12.336457 0.0 0.0 -6.168228499999997 10.683685154694365 0.0 0.0 0.0 15.0" Properties=species:S:1:pos:R:3:initial_magmoms:R:1:forces:R:3 energy=-452.09985715915565 free_energy=-452.09985715915565 stress="-0.005843037346902361 0.0026210537140285897 -2.5001203442900598e-06 0.0026210537140285897 -0.0022337942459052687 -9.347360783071782e-06 -2.5001203442900598e-06 -9.347360783071782e-06 -1.522249921069259e-06" pbc="T T T"
C       -0.01989390      -0.01141684       3.72643833       0.00000000       0.00499134       0.00971246       0.00857948
C       -1.24891520       2.12083087       3.79832995       0.00000000      -0.01168399       0.00568975      -0.01154735
C       -2.46932573       4.25740987       3.70949941       0.00000000      -0.00073831       0.00423443       0.00993395
C       -3.71275407       6.39383943       3.59853976       0.00000000      -0.00156062      -0.00098473       0.00162173
C       -4.96642023       8.53162054       3.57913567       0.00000000      -0.00096479       0.00315616       0.00485661
C        2.44170674      -0.00226089       3.76346517       0.00000000       0.00298948      -0.00214289       0.00348045
C        1.21113114       2.15547592       3.94459661       0.00000000      -0.00048568      -0.00975535       0.00263099
C       -0.01355251       4.27280140       3.97461714       0.00000000      -0.00248320      -0.00422013       0.00431202
C       -1.26678856       6.41115145       3.80145414       0.00000000      -0.00082148       0.00230785      -0.00377873
C       -2.49487529       8.53788979       3.71161346       0.00000000      -0.00040238       0.00640063       0.00340904
C        4.91448986      -0.01192967       3.76439618       0.00000000      -0.00559480       0.00315110       0.00369076
C        3.69822385       2.13720379       3.82017088       0.00000000       0.00354027      -0.01159290      -0.00663581
O        1.09761416       6.46941579       4.15184827       0.00000000       0.00186372      -0.00071329       0.00088792
C       -0.03597640       8.52944033       3.81054745       0.00000000       0.00618488      -0.00460288      -0.00085568
C        7.38617267      -0.02872506       3.77397521       0.00000000      -0.00504078       0.00034627       0.00901385
C        6.17613871       2.09851584       3.68786979       0.00000000       0.00635403       0.00060573       0.00214198
C        4.96384089       4.21027389       3.55545698       0.00000000       0.00209267      -0.00057270       0.00151280
S        3.53715615       6.29982595       2.62195804       0.00000000      -0.00957610      -0.00172546       0.00094266
C        2.41950202       8.50911871       3.73240058       0.00000000       0.00536982       0.00467702       0.00420372
C        9.85023101      -0.02690803       3.73550881       0.00000000       0.00534845      -0.00316514       0.00254064
C        8.63240802       2.11100164       3.70579714       0.00000000       0.00455008       0.00356524       0.00497040
C        7.41778043       4.24473061       3.55788540       0.00000000       0.00206949      -0.00294433       0.00189351
C        6.17451797       6.38957686       3.37945120       0.00000000      -0.00235546      -0.00297380       0.00012550
C        4.90240836       8.52172206       3.50243608       0.00000000      -0.00266417      -0.00268612      -0.00517826
C       -0.02168945       1.41046972       3.82822909       0.00000000      -0.00936135       0.00972504       0.00598933
C       -1.25425212       3.54622433       3.81638879       0.00000000      -0.00502695       0.00266100      -0.00152342
C       -2.48571971       5.68059301       3.69628267       0.00000000      -0.00113253       0.00146418       0.00465191
C       -3.72843641       7.82088517       3.62305408       0.00000000       0.00064848       0.00287710      -0.00679699
C       -4.95842054       9.96038836       3.68964413       0.00000000       0.00275714       0.00473225       0.00574769
C        2.44906492       1.41977568       3.86488178       0.00000000       0.00254940      -0.01315548      -0.00284857
C        1.16755583       3.54330399       4.12522463       0.00000000       0.00227747      -0.00842139      -0.00086042
C       -0.08075191       5.70417146       3.97316019       0.00000000      -0.00313274      -0.00054509      -0.00026906
C       -1.27560148       7.83002901       3.77792754       0.00000000      -0.00021680       0.00318670      -0.00885132
C       -2.49484416       9.96612297       3.74407524       0.00000000      -0.00030735       0.00318331       0.00317563
C        4.93353612       1.40396787       3.75478633       0.00000000       0.00378921       0.00065640      -0.00837528
C        3.77376103       3.53096838       3.83059634       0.00000000       0.00569546      -0.01012232      -0.00467575
C        1.16846979       7.85055464       3.86680500       0.00000000       0.00884675      -0.00150402      -0.00061652
C       -0.02065970       9.95806204       3.77711853       0.00000000      -0.00781561      -0.00178723      -0.00191051
C        7.40292744       1.39265499       3.72110031       0.00000000       0.00576143       0.00173487       0.00326138
C        6.20817126       3.51104765       3.57813697       0.00000000       0.00281690      -0.00140095      -0.00145899
C        4.99849343       5.61962287       3.27021106       0.00000000      -0.00019912       0.00257910      -0.00716041
C        3.65362270       7.85841943       3.41845948       0.00000000      -0.00482208      -0.00108913      -0.00877303
C        2.44368021       9.94400799       3.76752299       0.00000000       0.00003395       0.00434609      -0.00810693
C        9.85678449       1.39979033       3.75038367       0.00000000      -0.00216718      -0.00293024      -0.00795714
C        8.64124588       3.53588055       3.64962756       0.00000000       0.00427629       0.00296382       0.00227223
C        7.40655376       5.67315061       3.50689920       0.00000000      -0.00100223      -0.00435533       0.00046275
C        6.14388113       7.81404306       3.44903353       0.00000000      -0.00258095      -0.00161967      -0.00125594
C        4.91381870       9.95123685       3.66761833       0.00000000       0.00859804      -0.00009431      -0.00002154
Hf       2.65479812       5.10911171       4.87119431       0.00000000      -0.01443946       0.00309205       0.00797179
O        2.61076889       4.79897622       6.76333170       1.00000000       0.00095617      -0.00117580       0.00766781
O        3.66145643       5.78737353       6.36538879       1.00000000       0.00221515       0.00923213      -0.01249087
