52
Lattice="12.336457 0.0 0.0 -6.168228499999997 10.683685154694365 0.0 0.0 0.0 15.0" Properties=species:S:1:pos:R:3:forces:R:3 energy=-457.94392789548175 free_energy=-457.94392789548175 stress="-0.005075479336329311 -0.0006318162935018526 3.6518602224986315e-05 -0.0006318162935018526 0.0010144001966076205 -2.9730081072320666e-05 3.6518602224986315e-05 -2.9730081072320666e-05 -1.6587712744866198e-05" pbc="T T T"
C        0.00673432      -0.00585437       3.69515165      -0.00114607       0.00328763       0.01453427
C       -1.24570675       2.11670397       3.68777173       0.00183486      -0.00074517      -0.01149079
C       -2.47533297       4.26466826       3.63550872       0.00245786      -0.00178661      -0.01303388
C       -3.69619606       6.40930860       3.61235206       0.00155365      -0.00093193       0.01403775
C       -4.92233626       8.55331889       3.66247454      -0.00342413       0.00666422      -0.00812433
C        2.47413128       0.02841974       3.70851121      -0.00412853       0.00914894      -0.01422444
C        1.20040350       2.11587865       3.79583648      -0.00419825      -0.00054376       0.01201160
C       -0.07002947       4.25240336       3.81819496       0.00011255      -0.00291315      -0.00108875
C       -1.25559297       6.40489707       3.68952008       0.00460495      -0.00390394      -0.00872931
C       -2.46627812       8.55301729       3.66655315       0.00046153       0.00480890      -0.01275042
C        4.93986122      -0.00427538       3.70519633       0.00258100      -0.00104443       0.00292529
C        3.74193703       2.12041983       3.81360272       0.00152221      -0.00788446      -0.00728148
C        1.18361618       6.39855687       3.95611128      -0.00551113       0.00659662      -0.00914772
C        0.00104982       8.53343112       3.75107180      -0.00316520       0.00003231      -0.00877880
C        7.41326148      -0.02864950       3.72572577       0.00165121      -0.00468248      -0.01645519
C        6.18596650       2.12141905       3.69064948      -0.00450987      -0.00172076       0.00562656
C        5.01526660       4.27412252       3.84326186       0.00773574       0.00541541       0.00599674
N        3.80598214       6.42614746       4.05958811       0.00185468       0.00555976      -0.00979539
C        2.48748870       8.50075790       3.85336837      -0.00233466      -0.00463891      -0.00861020
C        9.87181628      -0.02974241       3.72432040       0.00848354      -0.00477625       0.00044125
C        8.63916683       2.11900052       3.65850227      -0.00320149      -0.00422431      -0.00960909
C        7.41299434       4.27012912       3.63159887       0.00231902      -0.00076939       0.00801013
C        6.19294028       6.41442131       3.69611259       0.00187801       0.00275454      -0.00298849
C        4.95284066       8.52678555       3.76233241       0.00278625      -0.00264712      -0.00021315
C        0.00086285       1.42707052       3.71110458       0.00259568      -0.00100901       0.00530546
C       -1.25377428       3.53460559       3.68583907       0.00176945       0.00060420       0.00083981
C       -2.46849568       5.68945797       3.62981725       0.00395125      -0.00221847       0.01110360
C       -3.69330812       7.83742508       3.63789565      -0.00007109      -0.00003243      -0.00610714
C       -4.92040185       9.98824467       3.68549172      -0.00031392       0.00479753       0.00974848
C        2.47249996       1.48583148       3.77478533      -0.00487710       0.00116878       0.00826140
O        1.12831238       3.51922970       3.94830654      -0.00665632      -0.00874482       0.00656975
C       -0.01726702       5.67393821       3.81898489       0.00254929      -0.00259545       0.01664953
C       -1.23776333       7.83044372       3.69641392       0.00222680      -0.00019773      -0.00620275
C       -2.46732492       9.98689218       3.69274542      -0.00153492       0.00946065      -0.00116376
C        4.94225995       1.43036142       3.72352161       0.00069387      -0.00590764       0.01038452
O        3.81380740       3.52536531       3.97655507       0.00403805      -0.01175058      -0.01247347
C        1.23683491       7.79226491       3.85277222      -0.00688294       0.00479937       0.00513265
C        0.00606761       9.95417564       3.72324255       0.00003390      -0.00273040       0.00978170
C        7.40503677       1.40353361       3.68087965      -0.00495354      -0.00539521       0.00664271
C        6.18884550       3.54593432       3.69329809       0.00036279       0.00271903      -0.00805371
C        4.97837306       5.70151339       3.85592216      -0.00012064       0.00993032       0.00000621
C        3.73890796       7.79135452       3.89357287       0.00069093       0.00102521      -0.00540542
C        2.47803009       9.93104533       3.76379825       0.00572416      -0.00713536       0.00005654
C        9.87299113       1.40204310       3.68131462       0.00150500       0.00312910      -0.00669737
C        8.63735696       3.54873497       3.62399716       0.00268414      -0.00152960       0.00749169
C        7.41056229       5.69236482       3.62793081      -0.00408718      -0.00183616       0.00040288
C        6.18567779       7.83378081       3.70020049      -0.00087390       0.00094165       0.00321746
C        4.94085001       9.95177938       3.72206679       0.00318210      -0.00156533       0.00331368
Hf       2.45252907       4.97429129       4.79019412       0.00324825      -0.00258489       0.00885901
O        2.35632627       5.11568346       6.60982363       0.00411984       0.00382067       0.01200599
O        2.21859463       5.19200695       8.01050323      -0.00861570       0.00846177       0.00225632
H        3.13726569       5.07497047       8.33798660      -0.01060597       0.00331914      -0.00318789
