53
Lattice="12.336457 0.0 0.0 -6.168228499999997 10.683685154694365 0.0 0.0 0.0 15.0" Properties=species:S:1:pos:R:3:forces:R:3 energy=-462.64450959611014 free_energy=-462.64450959611014 stress="0.0015788733677661964 0.0006973129148778853 2.4699388849585257e-05 0.0006973129148778853 -0.002835941937938525 -1.1839181712836585e-05 2.4699388849585257e-05 -1.1839181712836585e-05 -1.4982698454862328e-05" pbc="T T T"
C        0.00843486      -0.09978415       3.84563371       0.00082141       0.00173029      -0.00073743
C       -1.21201844       2.05022113       3.94057706      -0.00268863       0.00266436      -0.00545124
C       -2.44532215       4.18360893       3.92295008      -0.00019874      -0.00249937       0.00436589
C       -3.69630912       6.30905085       3.87370893      -0.00056697      -0.00064538       0.00663004
C       -4.94041632       8.43839795       3.80568870      -0.00073814       0.00244699      -0.00597291
C        2.47305090      -0.11274459       3.93155626      -0.00008969      -0.00095388       0.00787655
C        1.25605822       2.02490304       3.99896284      -0.00102484      -0.00445987      -0.00483746
C        0.04239008       4.17251189       3.79281649       0.00362221       0.00070663       0.00260711
C       -1.21975936       6.30922819       3.62407242       0.00447331      -0.00170134       0.00374568
C       -2.46082333       8.44358488       3.77418343      -0.00066369       0.00089580      -0.00137165
C        4.94106544      -0.09545446       3.89818481       0.00082566      -0.00050405       0.00128698
C        3.70121832       2.01626547       4.11184470      -0.00217046       0.00003466      -0.00124656
N        2.47647164       4.09282397       4.17536143      -0.00364308       0.00006331      -0.00832713
P        1.15774375       6.31527173       2.22399719      -0.00498496       0.00776019      -0.00663039
C       -0.01368497       8.48915230       3.49331960       0.00199787       0.00295537       0.00107819
C        7.40332823      -0.06050474       3.76760977      -0.00001507       0.00218287      -0.00244216
C        6.17393901       2.04745152       4.06681653      -0.00159523      -0.00071972       0.00076312
C        4.93127703       4.18389518       4.22941040       0.00709825      -0.00105026       0.00492883
S        3.58104397       6.45959310       1.89045594       0.00031983      -0.00428037       0.00517713
C        2.47220924       8.58504938       3.17866615       0.00016409       0.00038319      -0.00376018
C        9.88443422      -0.06306676       3.73003201       0.00371872      -0.00487184      -0.00600526
C        8.64924761       2.05440281       3.97015879      -0.00112229      -0.00309463       0.00551872
C        7.41176162       4.18197931       4.06532671       0.00161176       0.00360538      -0.00140061
C        6.14071743       6.30367632       3.97375792      -0.00094181       0.00566406       0.00002634
C        4.94986419       8.46777665       3.46853945      -0.00103587      -0.00560946       0.00561123
C        0.01600967       1.32462641       3.93468632      -0.00314686       0.00211582      -0.00742091
C       -1.20480788       3.47138553       3.91482202       0.00197659       0.00332914      -0.00257301
C       -2.45051292       5.60423081       3.82868111       0.00099812      -0.00358279       0.00321933
C       -3.70013218       7.73261465       3.82317848      -0.00070029      -0.00037939      -0.00135801
C       -4.93241466       9.86246846       3.85151647      -0.00013649       0.00110436       0.00081515
C        2.47655070       1.30840578       4.02878542      -0.00105209      -0.00340715       0.00558159
C        1.27855675       3.44323607       3.98294927      -0.00197153      -0.00592806       0.00134825
C        0.00878915       5.56638820       3.45925981       0.00664230      -0.00011826      -0.00498692
C       -1.22360168       7.74257088       3.60934301       0.00109993       0.00140205      -0.00699383
C       -2.45961366       9.86575945       3.87182520       0.00029009       0.00144333      -0.00247077
C        4.94164698       1.32319737       4.04247888      -0.00241570      -0.00071612       0.00100600
C        3.68356184       3.43029398       4.20680295      -0.00068725       0.00253327      -0.00205625
C        1.23899528       7.84445991       3.13689927       0.00277739       0.00224000       0.00535380
C        0.00186818       9.89463095       3.73188110       0.00158352       0.00211232      -0.00106498
C        7.40885564       1.34533891       3.95509933      -0.00188734      -0.00029951       0.00313251
C        6.18012949       3.46346381       4.14570705       0.00648787      -0.00177180       0.00413017
C        4.94320977       5.59092806       4.22772753       0.00684717      -0.00283546       0.00762718
C        3.71864873       7.89456051       2.93368558       0.00040818      -0.00685643       0.00411290
C        2.47498730       9.95127206       3.57425997      -0.00019903       0.00261469      -0.00749172
C        9.88697555       1.34726589       3.90156113      -0.00009301      -0.00383117       0.00242032
C        8.65400056       3.47488105       4.00777666      -0.00179597      -0.00128431       0.00200600
C        7.40622865       5.60133833       3.98645597      -0.00361313       0.00560768       0.00040680
C        6.14968472       7.72759606       3.73005604      -0.00068006       0.00328194      -0.00349162
C        4.94491835       9.88589667       3.68581357       0.00410016      -0.00512333       0.00031025
Hf       2.83968836       6.25214497       4.36110600       0.00356725       0.00057307      -0.01424118
O        2.78774081       7.15243902       5.95352879      -0.01276904      -0.00189835       0.00622991
O        2.76090207       7.95897351       7.09513272      -0.01254058       0.01106071      -0.00042489
H        2.90719135       7.31804006       7.82334541       0.00373616      -0.00208916       0.00544110
