51
Lattice="12.336457 0.0 0.0 -6.168228499999997 10.683685154694365 0.0 0.0 0.0 15.0" Properties=species:S:1:pos:R:3:initial_magmoms:R:1:forces:R:3 energy=-442.84940655706555 free_energy=-442.84940655706555 stress="-0.008059141167164111 0.0020684972762581993 3.135510781293516e-05 0.0020684972762581993 -0.003999505016949342 2.4257241832608844e-05 3.135510781293516e-05 2.4257241832608844e-05 3.602223622984727e-06" pbc="T T T"
C        0.03377916       0.00621172       3.66731701       0.00000000       0.00002919       0.00428457      -0.00647709
C       -1.19453054       2.15401171       3.48934478       0.00000000       0.00446408      -0.00304757       0.00369643
C       -2.42249858       4.29786395       3.65519995       0.00000000       0.00446002       0.00569769       0.00066088
C       -3.65176771       6.43903071       3.83010517       0.00000000      -0.00150197       0.00199576       0.00691212
C       -4.89596278       8.56934484       3.89338511       0.00000000      -0.00497402       0.00318970       0.00311651
C        2.50102528      -0.00853331       3.52618558       0.00000000      -0.00040499      -0.00387264      -0.00091516
C        1.26093239       2.07992163       3.13866864       0.00000000       0.00128985      -0.00752054       0.00750290
C       -0.02054237       4.35335833       3.27634608       0.00000000      -0.01257343      -0.01162473      -0.00294087
C       -1.23777072       6.47458287       3.54191942       0.00000000      -0.00181105      -0.00708537       0.00220028
C       -2.43876616       8.57649537       3.66702192       0.00000000       0.00643948       0.00013917       0.00023141
C        4.98046709       0.01339641       3.55800360       0.00000000      -0.00271464       0.00902145      -0.00544072
C        3.74845382       2.09097049       3.30894069       0.00000000       0.00530568       0.00373471      -0.00182039
N        1.16848818       6.45406754       3.81199750       0.00000000      -0.00735839      -0.00262214      -0.01312226
C        0.03301296       8.56164000       3.66287832       0.00000000      -0.00492827       0.00445428       0.00524639
C        7.44563453       0.01000497       3.67135946       0.00000000       0.00497118       0.00018774      -0.00084209
C        6.22081769       2.15862874       3.63873866       0.00000000       0.00000389      -0.00095014       0.00604605
C        5.09887082       4.33249254       4.00395282       0.00000000       0.00357139      -0.00186622      -0.00405723
P        3.63258183       6.35176052       5.11438716       0.00000000      -0.00403017       0.00037269      -0.00207335
C        2.48632860       8.55639706       3.97560883       0.00000000       0.00267641       0.00192100       0.00720781
C        9.90752197       0.00721145       3.75580645       0.00000000       0.00506629       0.00771426      -0.00358899
C        8.68415671       2.15036580       3.68162378       0.00000000       0.00600625       0.01018814       0.00854186
C        7.48582309       4.29085020       3.89492140       0.00000000      -0.00213666      -0.00973077       0.00163890
C        6.28376216       6.44635792       4.24261871       0.00000000      -0.00397774      -0.00944915      -0.00960367
C        4.97739946       8.57839014       4.12614641       0.00000000      -0.00032137       0.00868395       0.00304077
C        0.03077220       1.42501021       3.42069108       0.00000000       0.00316298       0.00248667      -0.00083029
C       -1.21181037       3.57536159       3.48488484       0.00000000      -0.00435268      -0.00701141       0.00214329
C       -2.43583898       5.72814440       3.66064816       0.00000000      -0.00070374       0.00031116       0.00890337
C       -3.66389385       7.86200564       3.80158344       0.00000000       0.00015956       0.00888507       0.00604913
C       -4.90018856       9.98111602       3.69716293       0.00000000      -0.00632457       0.00480015       0.00154278
C        2.51248669       1.40149974       3.28085364       0.00000000       0.00566138      -0.00119632       0.01245308
S        1.17661885       3.58429065       2.19393742       0.00000000      -0.00304361       0.00258915      -0.01734207
C       -0.01295180       5.80226603       3.46847032       0.00000000      -0.00817127      -0.01081048      -0.01226537
C       -1.20989200       7.87999263       3.61417216       0.00000000       0.00140860      -0.00834028       0.01058668
C       -2.42748757       9.99183915       3.58888702       0.00000000       0.00143344       0.00054337       0.00375964
C        4.98821324       1.44474170       3.50377030       0.00000000       0.00318266       0.00321186      -0.00205701
S        3.72291224       3.81170009       3.12134541       0.00000000       0.01541023      -0.00116792       0.00522588
C        1.24082244       7.83201112       3.82810671       0.00000000      -0.00257316       0.00233473      -0.01335162
C        0.04494894       9.98495009       3.63330579       0.00000000      -0.00323068       0.00727908       0.00456351
C        7.44405966       1.44007661       3.66158955       0.00000000       0.00554186       0.00565966      -0.00223031
C        6.26524414       3.56234243       3.85068850       0.00000000      -0.00410280      -0.00478610       0.00213350
C        5.11303684       5.67355544       4.44869271       0.00000000      -0.00331715      -0.00557133       0.00338564
C        3.71727287       7.92394956       4.31504331       0.00000000       0.00286342       0.00124761      -0.00170425
C        2.50066474       9.97715843       3.78741430       0.00000000       0.00754625       0.00021978      -0.00211682
C        9.91427911       1.43442149       3.63689066       0.00000000       0.00462078       0.00402415       0.00854561
C        8.69609772       3.57380926       3.74630241       0.00000000       0.00438784       0.00788751      -0.00564404
C        7.48274428       5.71953663       4.00232075       0.00000000       0.00168991      -0.01222112      -0.00942600
C        6.22683467       7.86963543       4.13839431       0.00000000      -0.00325897      -0.00432521       0.00192400
C        4.97311228       9.98600599       3.85159803       0.00000000       0.00446731       0.00535779      -0.01376632
Hf       1.79254918       4.56507106       4.64713414       0.00000000      -0.00407870       0.01239796       0.01406226
O        0.92577074       3.91505327       7.58009329       1.00000000      -0.00213229      -0.00950864      -0.00040119
O        1.28937220       4.15957345       6.34317327       1.00000000      -0.01379760      -0.00811272      -0.00930356
