53
Lattice="12.336457 0.0 0.0 -6.168228499999997 10.683685154694365 0.0 0.0 0.0 15.0" Properties=species:S:1:pos:R:3:forces:R:3 energy=-472.3250613162983 free_energy=-472.3250613162983 stress="-0.00213770165514397 2.4277147960473627e-05 -9.515757276310195e-06 2.4277147960473627e-05 -0.0021504953618402896 1.9506142792186703e-07 -9.515757276310195e-06 1.9506142792186703e-07 -3.170502050973429e-05" pbc="T T T"
C       -0.00301419      -0.00250289       3.55929435       0.00063250      -0.00634974      -0.00798659
C       -1.23214232       2.13835024       3.65430251      -0.00225721      -0.00446986       0.00418600
C       -2.46229885       4.26859017       3.65662858      -0.00240800       0.00190969       0.00089818
C       -3.70198895       6.40336543       3.56025677       0.00098420       0.00774631      -0.00286472
C       -4.93730412       8.54198663       3.52096532       0.00205981      -0.00480110      -0.00301200
C        2.46654487      -0.00240957       3.51947152       0.00044357      -0.00144109       0.00322333
C        1.23455380       2.12283980       3.67833551      -0.00338199       0.00530531      -0.00196150
C        0.01846250       4.28058940       3.90206798       0.00037990      -0.00613782       0.00259255
C       -1.24252915       6.41228644       3.68563157       0.00010396      -0.00051475      -0.00991618
C       -2.46620569       8.54172777       3.52222943      -0.00695274      -0.00026912       0.00014718
C        4.93603964      -0.00293309       3.55906798       0.00484221      -0.00319017      -0.00219677
C        3.69904763       2.12248242       3.67767082      -0.00129938       0.00373364      -0.00504137
N        2.46712424       4.07581394       4.24259196       0.00109699       0.00528813       0.00109719
N        1.06595847       6.50271793       4.24688076      -0.00644558       0.00566958       0.00113376
C       -0.00971941       8.54661267       3.68252021      -0.00370440      -0.00204813       0.00012838
C        7.40489424      -0.00865272       3.65839715      -0.00094163       0.00410850      -0.00323387
C        6.16566913       2.13756866       3.65580886       0.00255447       0.00002450      -0.00186945
C        4.91496699       4.27987064       3.89601398      -0.00548386       0.00234952       0.00591690
N        3.86570602       6.50096286       4.24011656       0.00559078       0.00386607      -0.00317895
C        2.46642384       8.52064410       3.90138167       0.00316536       0.00372517       0.00102441
C        9.86530654      -0.00836260       3.65607376      -0.00772492       0.00203407       0.00407826
C        8.63477347       2.13291875       3.63953961       0.00509676      -0.00597389       0.00080454
C        7.39578448       4.26869810       3.65484525      -0.00179867      -0.00530664      -0.00089577
C        6.17426574       6.41182506       3.67627229       0.00424508       0.00003288      -0.00035685
C        4.94228139       8.54614814       3.67882911       0.00242104       0.00176205      -0.00236244
C       -0.00405164       1.42117660       3.61389181      -0.00256089      -0.00480509      -0.00175005
C       -1.22102664       3.56498457       3.72333531      -0.00301034      -0.00202091       0.00906826
C       -2.46959415       5.69064672       3.61833099      -0.00193493       0.00556855      -0.00473685
C       -3.70181952       7.82754943       3.51767624      -0.00169704       0.00211187      -0.00163996
C       -4.93814664       9.96903276       3.51557022       0.00323065      -0.00870411       0.00435206
C        2.46676288       1.41653562       3.61022696      -0.00452788       0.00377453      -0.00477103
C        1.24184368       3.51205492       3.93902019       0.00267461       0.00189624       0.00347416
C       -0.03575117       5.72401835       3.94541919       0.00010173      -0.00411323      -0.00817046
C       -1.23718902       7.83228629       3.61437027      -0.00754327       0.00093938       0.00513385
C       -2.46541221       9.96863574       3.51520614       0.00088743      -0.00172341       0.00689202
C        4.93748822       1.42058192       3.61422105       0.00162938      -0.00162499      -0.00272918
C        3.69165233       3.51188368       3.93585773      -0.00104119       0.00174454       0.00747461
C        1.18951586       7.84551027       3.94267963       0.00102146       0.00529185      -0.00247403
C        0.00134127       9.97019677       3.61778226       0.00365596      -0.00291381      -0.00836597
C        7.40100516       1.42008607       3.63838014       0.00493601       0.00021650      -0.00073884
C        6.15500458       3.56436706       3.72169128      -0.00725718      -0.00067339       0.00479538
C        4.96759503       5.72313108       3.93538672       0.00378689       0.00159593      -0.00009560
C        3.74274925       7.84476329       3.93826036       0.00582917       0.00446747       0.00297139
C        2.46696915       9.95219174       3.72474038      -0.00587656       0.00476310       0.00774393
C        9.86881084       1.42061134       3.63647063       0.00087942      -0.00338914       0.00181094
C        8.63495064       3.55770853       3.63649491       0.00102346      -0.00568593       0.00404757
C        7.40200377       5.69065133       3.61387041       0.00429331       0.00150470      -0.00380543
C        6.16985201       7.83213637       3.60899043       0.00252528       0.00161639       0.00628565
C        4.93193606       9.97006025       3.61612425      -0.00608424       0.00160503      -0.00947139
Hf       2.46933863       5.69321068       5.53301530       0.00850747      -0.01023575      -0.01314607
O        2.49204355       5.69475186       7.39581183       0.01717636       0.00313803       0.00649443
O        2.37337096       5.70098903       8.80199082      -0.00442489      -0.00120371       0.00362626
H        3.30409297       5.70799554       9.11268912      -0.00741842      -0.00019372       0.00737017
