52
Lattice="12.336457 0.0 0.0 -6.168228499999997 10.683685154694365 0.0 0.0 0.0 15.0" Properties=species:S:1:pos:R:3:forces:R:3 energy=-447.66509264211726 free_energy=-447.66509264211726 stress="-0.0044808846701738705 -0.0038059718329146075 2.9899560741585444e-07 -0.0038059718329146075 -0.007378562584574253 1.0580867770185833e-05 2.9899560741585444e-07 1.0580867770185833e-05 1.0642746861298774e-05" pbc="T T T"
C       -0.09912906      -0.02697438       3.65028086       0.00152284      -0.00450030       0.01094036
C       -1.35671104       2.10413268       3.92424264       0.00236631       0.01284521      -0.00829913
C       -2.59009265       4.24948012       3.84182323       0.00376203      -0.00442678      -0.01088368
C       -3.77604223       6.39197775       3.58316051       0.00295111      -0.00078977       0.00184767
C       -5.00602103       8.53117291       3.48765896       0.00257853       0.00344669      -0.00099989
C        2.37945077      -0.06537000       3.65234141       0.00800412      -0.00858683      -0.00330363
C        1.13542737       1.99359192       4.14749267      -0.00705661      -0.01099780       0.00050971
C       -0.26893076       4.25978497       4.57974700       0.00144705      -0.00729563      -0.00722320
C       -1.37229720       6.40162841       4.11397958       0.00256674      -0.00047499      -0.01108391
C       -2.53148094       8.50638101       3.68597757      -0.00451375       0.00627667       0.00531362
C        4.84284264      -0.02651270       3.59304145      -0.00118027       0.00557505      -0.00598954
C        3.55879772       2.04583571       3.52621787      -0.00184406      -0.00211692      -0.00757219
S        1.09937266       6.52537382       5.26343755       0.00045045      -0.00269458      -0.00018803
C       -0.08497213       8.53700383       3.93241636       0.00380134       0.00634827      -0.00040941
C        7.30412881      -0.01468370       3.60931001      -0.00607272       0.00064026      -0.00746364
C        6.04989354       2.13626015       3.46320340       0.00408746      -0.00110714      -0.00178103
C        4.87450417       4.34325097       3.50109018      -0.00362658      -0.00226755      -0.01015363
N        3.74023242       6.47211751       3.84441718      -0.00184180      -0.00571472       0.00709060
C        2.39240918       8.53228181       3.85451383       0.00910534      -0.00422169       0.00615306
C        9.76885000      -0.01213124       3.61125757      -0.00598571       0.00221883      -0.00991571
C        8.52496516       2.12338781       3.60585746       0.00333060       0.00118914       0.00589548
C        7.30641527       4.26606032       3.49386176      -0.00305067       0.00204600      -0.00639431
C        6.12796498       6.44171437       3.37660153      -0.00115798       0.00714977      -0.00131922
C        4.85540626       8.54304548       3.50897900      -0.00133705      -0.00272178      -0.00729052
C       -0.11760741       1.37477897       3.91789000      -0.00916736       0.00498631       0.00373632
C       -1.39713593       3.51950628       4.10893553      -0.00076536       0.00270133      -0.00004779
C       -2.57469946       5.67643913       3.83082458       0.00312296      -0.00942093      -0.00410047
C       -3.77056875       7.81013446       3.56931280      -0.00391485       0.00625890       0.00426873
C       -5.02910574       9.93986483       3.59034786       0.00278311       0.00268754       0.00959749
C        2.36168900       1.33783900       3.80008401       0.00399415      -0.00946078      -0.00307741
P        1.21505448       3.45229740       5.11020047      -0.00056766       0.01350393       0.00409887
C       -0.27407537       5.66429954       4.60531098      -0.00622621      -0.01051256      -0.00540145
C       -1.31541776       7.81103856       3.93235594      -0.00277818       0.00897322       0.00525693
C       -2.54410059       9.92926088       3.61968094       0.00417507      -0.00059001       0.00444367
C        4.82044529       1.41025639       3.49573089       0.00499467      -0.00330204      -0.00333311
S        3.32023157       3.69571001       3.01201853      -0.00608291      -0.00150354       0.00270074
C        1.16381300       7.91719109       4.21916390       0.00766969      -0.00121337       0.00126451
C       -0.08944533       9.95154778       3.67721710      -0.00360560       0.00515818       0.00559111
C        7.28670065       1.41817149       3.52915487       0.00346967       0.00392508      -0.00157804
C        6.06652869       3.55889153       3.45251818      -0.00593971       0.00394491       0.00430218
C        4.90586676       5.77818010       3.50370636      -0.00013593      -0.00140603      -0.00408022
C        3.65121682       7.83539234       3.73139975       0.00281914      -0.00718645       0.01084080
C        2.37302379       9.95753848       3.65014671      -0.00863232      -0.00092741       0.00431026
C        9.76155858       1.41008600       3.69380410       0.00434934       0.00033094      -0.00226116
C        8.52883657       3.54542939       3.62249700      -0.00520637      -0.00111419       0.00704260
C        7.33285267       5.68985006       3.44742797       0.00340048       0.00441602       0.01037110
C        6.09850117       7.84754721       3.41903165       0.00507518       0.00406402       0.00858736
C        4.83747427       9.96321818       3.56695940       0.00206894      -0.00582517       0.00672734
Hf       3.18430833       5.04377886       5.28494541      -0.00134805       0.00943628      -0.00565641
O        4.20257993       5.01998312       6.80288679      -0.00553008      -0.00500910      -0.00356781
O        4.89519437       5.05277863       8.02243928       0.00804872      -0.00795049       0.00098816
H        5.83745271       5.11288874       7.75535603      -0.00437725       0.00521600       0.00149590
