51
Lattice="12.336457 0.0 0.0 -6.168228499999997 10.683685154694365 0.0 0.0 0.0 15.0" Properties=species:S:1:pos:R:3:initial_magmoms:R:1:forces:R:3 energy=-443.8799897378106 free_energy=-443.8799897378106 stress="-0.00276986957361166 0.0023440618761203665 -3.846836999181921e-06 0.0023440618761203665 -0.0028991466446925775 1.9337583279137803e-05 -3.846836999181921e-06 1.9337583279137803e-05 -1.494820064506192e-05" pbc="T T T"
C       -0.06106887       0.02314496       3.80420488       0.00000000       0.00829101      -0.00783530       0.00787835
C       -1.25816435       2.17875652       3.95860315       0.00000000       0.01036227      -0.00794110      -0.00045805
C       -2.50731264       4.30981522       4.13166307       0.00000000       0.01396875      -0.00133174       0.00313334
C       -3.76448595       6.44215502       4.00194957       0.00000000      -0.00501233       0.00643489       0.00049508
C       -5.01177377       8.56325844       3.83963849       0.00000000      -0.00663588       0.00209138       0.00683065
C        2.40695558       0.00216244       3.70016331       0.00000000      -0.00903113      -0.00327780      -0.00684117
C        1.14839142       2.06769648       3.20190347       0.00000000      -0.00357568       0.01244907      -0.00234049
C       -0.07601183       4.37407124       4.31974928       0.00000000      -0.00793148      -0.00551711       0.01564943
C       -1.33985099       6.48660587       4.25726220       0.00000000       0.00878526      -0.00056843       0.00446870
C       -2.54549143       8.58852794       4.03261758       0.00000000      -0.00315972       0.00435104      -0.00708925
C        4.88216174       0.02256090       3.81305904       0.00000000      -0.00338380      -0.00767960       0.00342033
C        3.67233844       2.03211384       3.17248907       0.00000000      -0.00489667      -0.00674873      -0.00765613
N        1.08831533       6.49204889       4.26039682       0.00000000      -0.00158951       0.00140971      -0.01473134
C       -0.07410445       8.58116530       4.10541260       0.00000000      -0.00210382       0.00247449       0.00300586
C        7.34838107       0.02690184       3.97207853       0.00000000       0.00012596      -0.01079949      -0.00037746
C        6.14884686       2.14258089       3.58669960       0.00000000       0.00113359       0.00020139      -0.00105964
C        5.11694687       4.30359441       2.97659443       0.00000000      -0.01387642       0.00518970       0.00157630
S        3.51280760       6.41493985       2.69707508       0.00000000       0.00899988      -0.01165448      -0.00265693
C        2.39211151       8.56179922       3.92398652       0.00000000      -0.00184337      -0.00159735      -0.00130810
C        9.81886391       0.02351856       3.96245349       0.00000000       0.00064986       0.00850092      -0.00053429
C        8.60211565       2.16444168       3.95824171       0.00000000      -0.00631648       0.00539129       0.00339682
C        7.39874734       4.29379267       3.74701921       0.00000000       0.00471843       0.00205119      -0.01251239
C        6.16327383       6.44189916       3.51966143       0.00000000       0.00469388      -0.00476411       0.00321684
C        4.86172052       8.56068459       3.71216461       0.00000000       0.00567683       0.00850793       0.00429941
C       -0.05610937       1.44997528       3.70529722       0.00000000       0.00433424      -0.01331742       0.00523512
C       -1.24916970       3.60873599       4.15812165       0.00000000       0.01747240      -0.00619812       0.00503891
C       -2.53780054       5.73634953       4.16422220       0.00000000       0.00357578       0.00438945      -0.00438536
C       -3.77366244       7.86407225       3.97278843       0.00000000      -0.00980106       0.00939911      -0.00298220
C       -5.00140861       9.98798703       3.79206337       0.00000000      -0.00241354      -0.00162842       0.00449752
C        2.41476357       1.38751871       3.34962889       0.00000000      -0.00462997      -0.00666052      -0.01189901
S        0.99772504       3.46456758       2.20814651       0.00000000      -0.00899137       0.00431144      -0.00305119
C       -0.10597508       5.79384323       4.30806688       0.00000000      -0.00227009      -0.00788419       0.00760872
C       -1.31793406       7.88977839       4.15945243       0.00000000       0.00037828       0.00034247      -0.00126405
C       -2.52702588      10.00039888       3.86274011       0.00000000      -0.00817875       0.00071667      -0.01034915
C        4.90567430       1.42572678       3.52052431       0.00000000      -0.00254465      -0.00762436      -0.00222499
S        3.69362206       3.54694332       2.30781230       0.00000000       0.00741089       0.01019882       0.00048286
C        1.14170888       7.84742482       4.09004259       0.00000000      -0.00849205       0.00493484       0.00438886
C       -0.05686367      10.00209024       3.97872731       0.00000000       0.00115535      -0.00332177      -0.00037240
C        7.35850104       1.45141776       3.85997821       0.00000000      -0.00316980      -0.00550352      -0.00228523
C        6.21324053       3.55673979       3.43221156       0.00000000      -0.00212051       0.00839071       0.00362215
C        5.06389933       5.69779962       3.06320458       0.00000000       0.00171852       0.00505924       0.00290274
C        3.60419587       7.91041268       3.57352047       0.00000000       0.00800901       0.00608479       0.00455090
C        2.41001341       9.99350874       3.99799276       0.00000000      -0.00011851      -0.00108760      -0.00216315
C        9.84050230       1.45885524       3.99606295       0.00000000       0.00086076       0.00877594       0.00126170
C        8.61333746       3.58826218       3.96562483       0.00000000       0.00718530       0.00292845      -0.00145618
C        7.37591270       5.71930980       3.77078812       0.00000000       0.00079094      -0.00155846       0.00221417
C        6.10216551       7.85518204       3.68113043       0.00000000       0.00454755      -0.00459256      -0.00349828
C        4.87117464       9.98945890       3.87268888       0.00000000       0.00522997       0.00799815      -0.00115835
Hf       2.22292076       4.58299241       4.32601473       0.00000000      -0.00597504       0.00939403       0.00046164
O        2.46703393       3.57703539       5.90975599       1.00000000       0.00442433      -0.00531344      -0.00361508
O        3.58405741       4.55722743       5.65931055       1.00000000      -0.00643741      -0.00757151       0.00863347
