52
Lattice="12.336457 0.0 0.0 -6.168228499999997 10.683685154694365 0.0 0.0 0.0 15.0" Properties=species:S:1:pos:R:3:forces:R:3 energy=-451.04663546513893 free_energy=-451.04663546513893 stress="-0.004747569498695015 -0.0005298716813060885 -2.1054442768255546e-06 -0.0005298716813060885 -0.001908925416235025 3.833914010026703e-06 -2.1054442768255546e-06 3.833914010026703e-06 -9.89864237442079e-08" pbc="T T T"
C       -0.07223548      -0.01054728       3.56573745      -0.00177457      -0.00420732      -0.00577618
C       -1.32868022       2.11167806       3.78363271       0.00631468      -0.00029973      -0.00424593
C       -2.57013194       4.26248967       3.65385480      -0.00104672       0.00005160      -0.00517208
C       -3.77678773       6.40705327       3.44870312      -0.00958686       0.00532241      -0.00552201
C       -4.99927457       8.54935075       3.40270729      -0.00355323       0.00370042      -0.00416389
C        2.40579395       0.00911174       3.56159899      -0.00339315       0.00034289       0.00011051
C        1.15369234       2.04004015       4.10707619       0.00128796       0.00566068      -0.00275840
C       -0.27548407       4.26269509       4.41992790       0.01347590       0.00298232       0.00573834
C       -1.37488113       6.41883429       3.92171626       0.00466116      -0.00445612      -0.00069924
C       -2.53516362       8.54483801       3.55815249      -0.00837808      -0.00861990      -0.00059265
C        4.86333827      -0.00439346       3.57423928       0.00603217      -0.00026471      -0.00579476
C        3.65976608       2.10378704       3.77615867       0.00195488      -0.00469552      -0.00100259
P        1.19434988       6.42141761       5.00693737       0.00182016      -0.00411172       0.00869960
C       -0.08110521       8.55249234       3.84964076       0.00116931       0.00048446      -0.01123924
C        7.33562450      -0.02063398       3.57993385       0.00121847       0.00445277      -0.01698707
C        6.10608773       2.12386922       3.52359474       0.00471487       0.00753995      -0.00259299
C        4.94836768       4.27198567       3.81825817       0.00141890       0.00555685      -0.01523204
N        3.76977272       6.45518380       4.07329458      -0.00699259       0.00132606       0.01027145
C        2.42089466       8.53270120       3.84008061      -0.00422211       0.00718334       0.00962818
C        9.79840604      -0.01987255       3.55227990      -0.00135165       0.00453463      -0.00259662
C        8.56266432       2.12198134       3.50451696      -0.00790416      -0.00713383      -0.00196227
C        7.32898003       4.27096063       3.43818387       0.00473139      -0.00238251      -0.00818000
C        6.10263042       6.41163457       3.41584443       0.00493550      -0.00515107       0.00165291
C        4.87224593       8.52882108       3.53338221       0.00610505      -0.00578271      -0.00878359
C       -0.08201256       1.39783387       3.81410600       0.00694367      -0.00757543      -0.00294280
C       -1.38200516       3.52913282       3.93269573       0.00847742       0.00322516       0.00628002
C       -2.56902819       5.69243699       3.64495929      -0.00729989       0.00686436       0.00128898
C       -3.76718343       7.83429545       3.44369642      -0.01211799      -0.00218827       0.00324410
C       -4.99809292       9.97668788       3.49030088      -0.00132621      -0.00542283       0.01727008
C        2.41495614       1.42973118       3.79063230      -0.00205321      -0.00140329       0.00673596
P        1.12207537       3.46701568       5.12811947       0.00333222      -0.00477007      -0.00519106
C       -0.26756749       5.67614713       4.39901043       0.01237954       0.00262142       0.00417513
C       -1.32218464       7.83842301       3.78404891      -0.00258776      -0.00256760       0.00613248
C       -2.53634581       9.97578328       3.53954733      -0.00040120      -0.00364545       0.01667933
C        4.86559760       1.42913090       3.58779158       0.00820792       0.00448831      -0.00183878
O        3.71099423       3.49975985       3.96874402      -0.01096279      -0.00460137       0.00078417
C        1.16927637       7.91119847       4.11238958      -0.00285960       0.00310878       0.01374471
C       -0.07300420       9.96466530       3.64166922       0.00613450       0.00317309      -0.01210623
C        7.32730353       1.40947508       3.49864657      -0.00567370      -0.00230706       0.00239320
C        6.10722343       3.54890055       3.53951605       0.00745067       0.00449496       0.00020065
C        4.89980878       5.70955510       3.69689671      -0.00209370      -0.00001297      -0.00927895
C        3.67464053       7.80691936       3.80432091      -0.00030399       0.00128719       0.00355263
C        2.40572996       9.94720904       3.62064392      -0.00150282       0.00610754      -0.01371983
C        9.79433844       1.40663757       3.57818489      -0.00340472       0.00618214       0.01217929
C        8.55426364       3.54983204       3.48831800      -0.00106199      -0.00726200       0.00439262
C        7.32496032       5.69148096       3.39205619      -0.00219869      -0.00422446       0.00502696
C        6.10341529       7.83219448       3.41637591       0.00716747      -0.00272903      -0.00039680
C        4.86454958       9.95609489       3.52453089      -0.00411210      -0.00051012       0.00830659
Hf       3.17307684       4.95541644       5.50191066      -0.00683851       0.00876084       0.01023537
O        3.81612677       5.06870790       7.21955235      -0.00994366       0.00584798      -0.00811878
O        4.28455012       5.22251235       8.53038274       0.00036672      -0.00772821      -0.00593171
H        5.20702297       4.89236291       8.48541903       0.00464515      -0.00124685       0.00410323
