51
Lattice="12.336457 0.0 0.0 -6.168228499999997 10.683685154694365 0.0 0.0 0.0 15.0" Properties=species:S:1:pos:R:3:initial_magmoms:R:1:forces:R:3 energy=-448.64474099668007 free_energy=-448.64474099668007 stress="-0.0028793092941262256 -0.00017995636707911756 -1.2993816471655707e-05 -0.00017995636707911756 -0.002124027451889398 -3.386737821435519e-05 -1.2993816471655707e-05 -3.386737821435519e-05 8.095812755718229e-06" pbc="T T T"
C       -0.01766222      -0.05345566       3.60282482       0.00000000       0.01116346      -0.00121909      -0.00017640
C       -1.25651534       2.08704631       3.75842819       0.00000000      -0.00297917       0.00401574       0.00300913
C       -2.48392018       4.22822159       3.47681985       0.00000000      -0.00350837      -0.00572062      -0.00308137
C       -3.71024887       6.36371778       3.26051956       0.00000000       0.00057679       0.00596241      -0.00378201
C       -4.95312433       8.50536904       3.32777629       0.00000000       0.00001835       0.00069439       0.00088932
C        2.45277187      -0.06894133       3.63869805       0.00000000      -0.00403518      -0.00201756       0.00842344
C        1.19909332       1.96573866       4.24256151       0.00000000      -0.00415528       0.00749003      -0.00061884
C       -0.12994283       4.29869514       4.11066480       0.00000000       0.00807536       0.00923259       0.00110600
C       -1.26303365       6.38306911       3.50721583       0.00000000      -0.00615116      -0.00571792       0.00654213
C       -2.47980857       8.50411427       3.35559609       0.00000000      -0.00301758      -0.00105722       0.00008358
C        4.92727005      -0.06020217       3.58175648       0.00000000      -0.00882770      -0.00257446       0.00427471
C        3.70896990       1.96989393       4.16268377       0.00000000       0.00185963      -0.00402644       0.00552588
N        1.04631607       6.44805838       4.22542441       0.00000000       0.00049039      -0.00400601      -0.00880604
C       -0.01503464       8.48889829       3.55881873       0.00000000       0.00085352      -0.00240817       0.00294340
C        7.39720804      -0.06350991       3.57588372       0.00000000      -0.00397418       0.00511760       0.00391199
C        6.16153958       2.08885907       3.66078739       0.00000000       0.00498064      -0.00009195       0.01153915
C        5.00154979       4.30570575       3.85198816       0.00000000      -0.00040864       0.00608802       0.00679652
O        3.86622600       6.44219167       4.05962500       0.00000000      -0.00982652      -0.00598873      -0.00365258
C        2.46488611       8.45431456       3.77070184       0.00000000       0.00384863      -0.00285222       0.00501894
C        9.84980193      -0.06151829       3.58586169       0.00000000      -0.00053541       0.00016387       0.00097536
C        8.62382891       2.08585124       3.51476173       0.00000000      -0.00077081      -0.00560375      -0.00433697
C        7.39335136       4.22714426       3.38833674       0.00000000      -0.00038757      -0.00960753      -0.00751070
C        6.16672496       6.38461393       3.34065914       0.00000000       0.00560472       0.00017640      -0.00484183
C        4.92383514       8.49998114       3.49680976       0.00000000       0.00224157       0.00320941       0.00107148
C       -0.02732493       1.35293344       3.86608957       0.00000000      -0.00013328       0.00094552       0.00002430
C       -1.27354927       3.52479553       3.76183916       0.00000000       0.00359243       0.00655699       0.00517705
C       -2.47967750       5.65154915       3.37790884       0.00000000      -0.00589703      -0.00388275      -0.00564032
C       -3.71283835       7.79097783       3.27883381       0.00000000      -0.00261548       0.00592886       0.00313443
C       -4.95077996       9.92302380       3.50210336       0.00000000       0.00574740      -0.00477711       0.00007239
C        2.45131085       1.30135831       4.02599418       0.00000000      -0.00349154      -0.00053501       0.00999612
P        1.10077833       3.51018747       5.09512368       0.00000000      -0.00308576       0.01453870      -0.01008437
C       -0.08352025       5.72335590       3.92441675       0.00000000       0.00048541       0.00185112      -0.00406555
C       -1.25025654       7.79356383       3.43559769       0.00000000      -0.00102974      -0.00498690       0.00057991
C       -2.47839338       9.92016677       3.50219867       0.00000000      -0.00988109      -0.00046219      -0.01455081
C        4.93518902       1.35204397       3.79235717       0.00000000       0.00304004      -0.00229390       0.00454886
P        3.77625961       3.56501544       4.86921826       0.00000000       0.00997347      -0.00046049       0.01355645
C        1.17475955       7.76623131       3.84186312       0.00000000       0.00411144      -0.00680289      -0.00532899
C       -0.00641668       9.91339113       3.54244772       0.00000000      -0.00531760       0.00207734      -0.01535258
C        7.39038477       1.37069873       3.55603107       0.00000000       0.00193096       0.00194310      -0.00045841
C        6.17688354       3.52012882       3.60493483       0.00000000      -0.00303045      -0.00242615      -0.00083970
C        5.00920103       5.69984145       3.68361185       0.00000000       0.00061475       0.00373131       0.00018357
C        3.73527164       7.82705064       3.77018816       0.00000000       0.00146621      -0.00233402       0.00070328
C        2.45682537       9.89438458       3.61980489       0.00000000      -0.00329461       0.00026820       0.00426885
C        9.85709829       1.37487644       3.59663804       0.00000000      -0.00298277      -0.00054074      -0.00038144
C        8.62675980       3.51148984       3.42547383       0.00000000      -0.00301827      -0.01103924      -0.00130229
C        7.39623289       5.64899729       3.28479823       0.00000000       0.00759342      -0.00388914       0.00117612
C        6.16054064       7.80235244       3.34884780       0.00000000       0.00152028       0.00236763      -0.00333092
C        4.91636121       9.92612142       3.53443723       0.00000000       0.00704057       0.00517609       0.00333851
Hf       2.55557190       5.71005406       5.66598859       0.00000000       0.00175928      -0.00186214      -0.00650235
O        2.09556807       6.01279667       7.47316410       1.00000000       0.00199697       0.00504648      -0.00028359
O        3.49405409       6.50775118       7.12218008       1.00000000       0.00176946       0.00660255      -0.00394282
