51
Lattice="12.336457 0.0 0.0 -6.168228499999997 10.683685154694365 0.0 0.0 0.0 15.0" Properties=species:S:1:pos:R:3:initial_magmoms:R:1:forces:R:3 energy=-443.5890890762991 free_energy=-443.5890890762991 stress="-0.0013007838912359655 -0.001675234034444401 2.4370920318865245e-06 -0.001675234034444401 -0.0030341943323085614 1.659196710909041e-06 2.4370920318865245e-06 1.659196710909041e-06 -9.608861227268495e-06" pbc="T T T"
C        0.08810790       0.00500121       3.75398580       0.00000000       0.00032833       0.00187566      -0.00757936
C       -1.16549043       2.13034211       3.49716719       0.00000000       0.00203424      -0.00198661      -0.00316422
C       -2.42310112       4.27373302       3.50937278       0.00000000      -0.00606394      -0.00036089       0.00310997
C       -3.61601345       6.41838281       3.73654115       0.00000000      -0.00021339       0.00069843       0.00515523
C       -4.83203941       8.55365568       3.83543811       0.00000000       0.00083614      -0.00564721       0.00359517
C        2.56338949      -0.02594461       3.79480850       0.00000000       0.00198598       0.00256246      -0.00166376
C        1.33386364       2.05819331       3.40281264       0.00000000      -0.00138826       0.00732221      -0.00858378
C       -0.11418499       4.26606373       2.77029055       0.00000000      -0.00141094      -0.00266624      -0.00242979
C       -1.19711988       6.43510960       3.27242862       0.00000000      -0.00306145      -0.00115310      -0.00161161
C       -2.35825854       8.53785831       3.73487886       0.00000000       0.00419338      -0.00110917       0.00313137
C        5.03373109      -0.01086080       3.94131106       0.00000000       0.00172987      -0.00136260      -0.00172680
C        3.75409824       2.08617588       4.10243412       0.00000000      -0.00845401       0.00028282       0.00214514
S        1.17725287       6.37241570       1.70742256       0.00000000       0.00282317       0.00259610       0.00022353
C        0.11983853       8.51987713       3.85663945       0.00000000      -0.00001065       0.00655076       0.00787995
C        7.49166781       0.00812640       3.99553175       0.00000000      -0.00255828       0.00036213       0.00434097
C        6.24773274       2.15213046       4.10797789       0.00000000       0.00096496      -0.00259626      -0.00204694
C        5.06709268       4.35653352       4.33569151       0.00000000       0.00040574       0.00259251      -0.00455684
N        3.86294872       6.47685244       4.19865024       0.00000000       0.00384080       0.00481857       0.00382633
C        2.55705835       8.54647501       4.07308412       0.00000000      -0.00262594      -0.00287376       0.00279048
C        9.95814921       0.01212709       3.89453592       0.00000000      -0.01176658      -0.00600552      -0.00126477
C        8.71290119       2.14791555       3.85061386       0.00000000       0.00603063       0.00123289       0.00215204
C        7.48532883       4.29084684       3.95482233       0.00000000      -0.00019728       0.00292256      -0.00128565
C        6.28121532       6.45227135       4.02829062       0.00000000       0.00383077      -0.00502822       0.00498303
C        5.04867714       8.56749207       3.99546740       0.00000000       0.00196568       0.00031615       0.00225962
C        0.07932019       1.42314564       3.53855031       0.00000000       0.00180309       0.00347296      -0.00786603
C       -1.21658587       3.53840135       3.25924606       0.00000000      -0.00332686       0.00012124       0.00102196
C       -2.40521878       5.70417047       3.50738737       0.00000000      -0.00687815      -0.00040539      -0.00666101
C       -3.60052993       7.83757513       3.75834376       0.00000000       0.00289201      -0.00149431       0.00860110
C       -4.84394814       9.97014504       3.78507338       0.00000000       0.00225139      -0.00252534      -0.00952266
C        2.54925798       1.39119963       3.77853742       0.00000000      -0.00424944       0.00444819      -0.01058525
S        1.45892478       3.54808598       2.50153029       0.00000000       0.00801552      -0.00800341       0.00207043
C       -0.12676553       5.70098523       2.62169259       0.00000000       0.00176229      -0.00139596       0.00145562
C       -1.12590020       7.82425302       3.61233372       0.00000000       0.00344282       0.00041049      -0.00099422
C       -2.36184703       9.95536277       3.84057586       0.00000000       0.00321098      -0.00086462       0.00511984
C        5.01707571       1.42226743       4.07748274       0.00000000      -0.00437905      -0.00273936       0.00034905
P        3.53473329       3.66660392       4.84150015       0.00000000      -0.00017469       0.00556948       0.00566282
C        1.34542528       7.84288121       4.04733302       0.00000000      -0.00388224       0.00850026       0.00571838
C        0.09796012       9.96580143       3.94513504       0.00000000       0.00112271       0.00332186       0.00250533
C        7.48139349       1.44188737       3.99899377       0.00000000       0.00556171       0.00046784      -0.00086624
C        6.25540964       3.58735521       4.15050921       0.00000000       0.00032830       0.00083271      -0.00745736
C        5.05378007       5.77886259       4.20119681       0.00000000       0.00139319       0.00128546      -0.00357908
C        3.83377934       7.84620645       4.10274966       0.00000000       0.00121518       0.00313800       0.00283380
C        2.56205693       9.99207675       4.00349533       0.00000000      -0.01118400      -0.00658015      -0.00061977
C        9.95497507       1.43655636       3.75370895       0.00000000       0.00152084      -0.00496872      -0.00560802
C        8.70203573       3.57165607       3.78065054       0.00000000      -0.00266536       0.00163975       0.00251780
C        7.49494077       5.71475795       3.91282926       0.00000000       0.00271980       0.00017415      -0.00260356
C        6.27545007       7.85891103       3.95177111       0.00000000       0.00021320      -0.00717164      -0.00629851
C        5.02730721       9.98485716       3.88283119       0.00000000      -0.00446432       0.00220913       0.00121963
Hf       1.79573718       5.65976553       4.07412373       0.00000000       0.00533032       0.00653536       0.00546925
O       -0.22601823       4.86707376       6.29538037       1.00000000      -0.00060213      -0.00525477      -0.00999647
O        0.70371252       5.29287880       5.48471027       1.00000000       0.00580393      -0.00406687       0.01843381
