52
Lattice="12.336457 0.0 0.0 -6.168228499999997 10.683685154694365 0.0 0.0 0.0 15.0" Properties=species:S:1:pos:R:3:forces:R:3 energy=-450.9611938888245 free_energy=-450.9611938888245 stress="-0.006793894926286314 -0.00434887398459002 3.9664169481611266e-05 -0.00434887398459002 -0.006008265552497628 -7.483792560946788e-06 3.9664169481611266e-05 -7.483792560946788e-06 9.848296894382785e-06" pbc="T T T"
C        0.01781292      -0.02045406       3.87581803       0.00051184      -0.00259442      -0.00721739
C       -1.25298281       2.09340677       3.82609316      -0.00138061       0.00071619       0.01293703
C       -2.47490600       4.25404031       3.86065060       0.00376533      -0.01077955      -0.00875354
C       -3.66081647       6.40177131       3.93043118       0.00487586       0.00180057      -0.00883244
C       -4.89083077       8.54788889       3.93643512       0.00293705      -0.01070690      -0.00200973
C        2.48484941      -0.00631899       3.82237497       0.00246601      -0.00885066       0.00372341
C        1.20115413       2.06900293       3.77684702      -0.00866578      -0.00408954      -0.00366273
C       -0.07595233       4.18291138       3.66910543       0.00178514      -0.00348315       0.00419027
C       -1.21184929       6.38696317       3.76075314      -0.00703395       0.00021316       0.00838661
C       -2.43030738       8.53236764       3.84289214       0.00032779       0.00106734       0.00988584
C        4.95198041      -0.01149984       3.74279045       0.00155103      -0.00289093       0.00991821
C        3.69600104       2.09396778       3.44929551       0.00379413      -0.00046804       0.01648355
P        1.19118452       6.37242400       2.46085126       0.00163255      -0.00328321      -0.01371841
C        0.02748358       8.53137389       3.66380397      -0.00249214       0.00902220      -0.01012903
C        7.41522732      -0.01265099       3.78188875      -0.00278379       0.00738493      -0.00462032
C        6.17128142       2.13758663       3.69878230       0.00313023       0.00505619       0.00101589
C        4.98702006       4.34001986       3.60121719       0.00171521       0.00390653       0.00465952
N        3.82102546       6.46516392       3.82504613      -0.00386985      -0.00468246       0.00027705
C        2.51209649       8.53344939       3.68111492       0.00391205       0.00201652      -0.01027492
C        9.87737751      -0.02340244       3.85838427      -0.00540260       0.00193438       0.00860641
C        8.62969358       2.12196964       3.85895252       0.00426912      -0.00716870      -0.00570949
C        7.41321836       4.27105962       3.87513722       0.01105806       0.00816204      -0.00447495
C        6.23032895       6.43865117       3.89354436      -0.00421539       0.00121347       0.00014348
C        4.98160703       8.54316913       3.86234701       0.00220300       0.00413542      -0.00244269
C       -0.00887752       1.39860325       3.82137741      -0.00725154      -0.00260434       0.00124102
C       -1.27009641       3.50369473       3.76720415       0.00502391      -0.00583289       0.00973931
C       -2.43205446       5.67915613       3.87413208      -0.00296177      -0.00830525       0.00716967
C       -3.65919844       7.82667773       3.92143471       0.00465867      -0.00263497      -0.00213176
C       -4.90652846       9.97052983       3.89556784       0.00171684      -0.01119953       0.00621872
C        2.45618450       1.42019571       3.69222456      -0.00221814      -0.00627647       0.00044071
O        1.12674858       3.45970551       3.88191165      -0.01770604      -0.00198674      -0.00687803
C        0.03625543       5.61169782       3.62815368      -0.00235561       0.00259219       0.00447389
C       -1.19900407       7.80645637       3.74473747      -0.00445409       0.00603443      -0.00881065
C       -2.44522070       9.96058965       3.80714382       0.00284358      -0.00403074      -0.00213333
C        4.93933323       1.41750506       3.63006785       0.00479718      -0.00493387      -0.00208165
P        3.66239896       3.67716140       2.64840672       0.00534530       0.01226763       0.00951237
C        1.27751282       7.84467129       3.47785203      -0.00037080      -0.00149770       0.00273318
C        0.01867303       9.95653852       3.74844927      -0.00007484       0.00720918      -0.01107134
C        7.39955320       1.41577336       3.79700903       0.00121839       0.00267839      -0.00591229
C        6.18767630       3.56488505       3.73308635       0.00808385       0.00844061      -0.00090882
C        5.00884741       5.76653257       3.77859650      -0.00249998      -0.00007151       0.00060608
C        3.76756802       7.83457905       3.77662207       0.00573898      -0.00308565       0.00331428
C        2.48409929       9.95664002       3.79695773      -0.00483936       0.00454808      -0.00651980
C        9.86506021       1.39954403       3.86435600       0.00119357      -0.00159377       0.00726893
C        8.63274820       3.54839790       3.88676450       0.00675888      -0.00815669      -0.00926780
C        7.44286523       5.69704361       3.92059237       0.00338987       0.01036355      -0.00813531
C        6.21782056       7.84727355       3.92036721      -0.00153711      -0.00106920       0.00718207
C        4.95394398       9.95831030       3.87589821      -0.00327497       0.00551622      -0.00036109
Hf       2.25833020       5.16402346       4.50934896       0.00258997       0.00854409       0.01162161
O        2.00779096       5.38807960       6.31050753      -0.00470719       0.00395183       0.00298881
O        1.75454728       5.52986123       7.67678951       0.00548238       0.00437285      -0.00682092
H        2.62845062       5.36745461       8.09196233      -0.01868022      -0.00087110      -0.00185950
