52
Lattice="12.336457 0.0 0.0 -6.168228499999997 10.683685154694365 0.0 0.0 0.0 15.0" Properties=species:S:1:pos:R:3:forces:R:3 energy=-448.19172130517796 free_energy=-448.19172130517796 stress="-0.0011721593493562326 -0.0017732160984455804 -1.8180855215346066e-05 -0.0017732160984455804 -0.0033072375517823947 3.7184306125833364e-05 -1.8180855215346066e-05 3.7184306125833364e-05 -3.53166604464747e-06" pbc="T T T"
C        0.13371064      -0.00077854       3.80535240       0.00283567       0.00229436       0.00774019
C       -1.11913104       2.12605757       3.55014769      -0.00249140       0.00034327       0.01408516
C       -2.37550838       4.27047881       3.58193992       0.00108873       0.00059828       0.01127214
C       -3.56755043       6.41328753       3.82139760       0.00413983       0.00551187       0.00047545
C       -4.78551092       8.54877118       3.91205077       0.00266600      -0.00024363      -0.00325622
C        2.60916839      -0.03076250       3.85943019       0.00157221       0.00006329       0.00204989
C        1.38001425       2.05342317       3.45917597       0.00049500      -0.00673300       0.00775669
C       -0.06010728       4.26656783       2.85940022      -0.00364117      -0.00483711      -0.00966515
C       -1.14725174       6.43224050       3.36315072      -0.00559000      -0.00722735       0.00779959
C       -2.31146382       8.53296179       3.82370256       0.00353221       0.00281786      -0.00509644
C        5.07943438      -0.01449793       4.01463216      -0.00327346       0.00092827      -0.00262367
C        3.79827359       2.08245710       4.16316235      -0.00318005      -0.00070860       0.00049873
S        1.22213301       6.37231766       1.78729467      -0.00011315       0.01460035      -0.00779729
C        0.16666778       8.51702466       3.94298126       0.00002604       0.00110803       0.00755851
C        7.53728869       0.00573275       4.06410680       0.00491391      -0.00241626       0.00488680
C        6.29284239       2.14906425       4.16764327      -0.00146795      -0.00096335       0.00618862
C        5.11204871       4.35320544       4.40403958      -0.00134769       0.00127302      -0.00587052
N        3.90831920       6.47486009       4.27206958      -0.00700241       0.00127481       0.00484093
C        2.60456742       8.54536245       4.15409762       0.00035626       0.00223587      -0.00183406
C       10.00380581       0.00822592       3.95418239      -0.00073996       0.00048424      -0.00706275
C        8.75899127       2.14422137       3.90721286       0.00374791       0.00260536       0.00496352
C        7.53105091       4.28692633       4.02130188       0.00576239       0.00000640      -0.00268892
C        6.32701642       6.44833450       4.10419939       0.00575028      -0.00449044       0.00602014
C        5.09531274       8.56386015       4.06680883      -0.00486387       0.00462613       0.00260135
C        0.12526794       1.41771612       3.58773521      -0.00028870      -0.00397987      -0.00005304
C       -1.16831198       3.53607413       3.32733343      -0.00217263      -0.00189613       0.00563447
C       -2.35649683       5.70060008       3.59197913      -0.00791803      -0.00049555      -0.00615870
C       -3.55324402       7.83244730       3.84497863       0.00571245       0.00361750      -0.00318079
C       -4.79814527       9.96479982       3.84778943       0.00426655      -0.00037010      -0.00442088
C        2.59521516       1.38627372       3.83434709      -0.00161625      -0.00323214       0.00524477
S        1.50809215       3.54774256       2.57153634      -0.00549143       0.00242799      -0.00060909
C       -0.07143555       5.70242036       2.71837069      -0.00192510      -0.00094368      -0.00534432
C       -1.07832073       7.81994477       3.70454744      -0.00164547      -0.00103938      -0.00114342
C       -2.31617407       9.95078562       3.91948623      -0.00040336       0.00270193      -0.01254407
C        5.06211633       1.41907951       4.14063053      -0.00619556       0.00140888       0.00464364
P        3.57923334       3.66224432       4.90468696       0.00272201      -0.00284363      -0.00816285
C        1.39305250       7.84048877       4.13368208       0.00190044       0.01137701      -0.00248215
C        0.14403721       9.96293328       4.02078777      -0.00020688       0.00255339       0.00789000
C        7.52708019       1.43906361       4.05914286       0.00365667      -0.00079799      -0.00200969
C        6.30023060       3.58401087       4.21219527       0.00167922       0.00043888       0.00181048
C        5.09925592       5.77556865       4.27448425      -0.00346369       0.00105078      -0.00361532
C        3.88060908       7.84516908       4.18001593      -0.00472926       0.00158965       0.00096720
C        2.60800608       9.98945121       4.07467627       0.00429493      -0.00244053      -0.00787985
C       10.00097498       1.43225573       3.80644080      -0.00111198       0.00063175       0.00297666
C        8.74898284       3.56828809       3.84521992       0.00435060       0.00198254      -0.00085135
C        7.54125183       5.71070743       3.98852970       0.00979145      -0.00081611      -0.00586714
C        6.32178173       7.85461652       4.02737655      -0.00307806      -0.00211780      -0.00932556
C        5.07314963       9.98037964       3.94269663      -0.00096409       0.00696627      -0.00049706
Hf       1.84221610       5.66013941       4.16326243      -0.00425450      -0.01207486      -0.00041623
O        0.81322824       5.34442998       5.63976250      -0.00580783       0.00058522       0.00173953
O       -0.05287010       4.96013831       6.68270934       0.00624287      -0.00963916       0.00883925
H        0.01372244       5.71335410       7.31167706       0.00348030      -0.00779651      -0.00802720
