51
Lattice="12.336457 0.0 0.0 -6.168228499999997 10.683685154694365 0.0 0.0 0.0 15.0" Properties=species:S:1:pos:R:3:initial_magmoms:R:1:forces:R:3 energy=-444.9462109984388 free_energy=-444.9462109984388 stress="-0.0036562125729509036 -0.0038811083703825617 -2.8389721923682135e-05 -0.0038811083703825617 -0.005604587081624466 -1.0213315512158978e-05 -2.8389721923682135e-05 -1.0213315512158978e-05 1.375278800466189e-05" pbc="T T T"
C       -0.04693115      -0.02157542       3.59600476       0.00000000      -0.00748849       0.00161601       0.00516252
C       -1.30595374       2.10948351       3.82750734       0.00000000       0.00076399      -0.00266899      -0.00437769
C       -2.52964300       4.25630933       3.69226165       0.00000000       0.00722527       0.00650021       0.00072655
C       -3.71709446       6.40204387       3.45617913       0.00000000      -0.00523039       0.00436050       0.00036706
C       -4.95180969       8.54217963       3.42295826       0.00000000      -0.00369357       0.00537736       0.00453447
C        2.43059039      -0.04826898       3.61160579       0.00000000       0.00066445       0.00740766       0.00247975
C        1.17851784       2.01283224       4.11639447       0.00000000       0.00027272      -0.00637479       0.01594660
C       -0.21643966       4.25979479       4.47244700       0.00000000       0.00030028      -0.00207004      -0.00453906
C       -1.31634134       6.40565592       3.99095896       0.00000000      -0.00691404      -0.00094689      -0.00385970
C       -2.47963829       8.51972256       3.60834949       0.00000000       0.00787138       0.00213669      -0.00177160
C        4.89391333      -0.01265924       3.54368784       0.00000000       0.00138996       0.00117125      -0.00239326
C        3.61126292       2.06205831       3.50581207       0.00000000      -0.00560944       0.00101350      -0.00001400
S        1.06583723       6.54559661       5.26361021       0.00000000       0.00350471       0.01222408      -0.00703656
C       -0.03640682       8.54942487       3.88553539       0.00000000       0.00233272      -0.00090088      -0.00181786
C        7.35719829      -0.01089835       3.56280088       0.00000000       0.00458580      -0.00798927      -0.00794537
C        6.10481129       2.14108985       3.36758773       0.00000000      -0.00954373       0.00387523      -0.00209215
C        4.94388416       4.35554892       3.32031519       0.00000000      -0.00575695       0.00202238      -0.00450845
N        3.80820779       6.45372816       3.84027047       0.00000000       0.00182366       0.00054054      -0.00140954
C        2.44380558       8.53203449       3.86796433       0.00000000       0.00678565      -0.00881429       0.00010368
C        9.81876062      -0.01391581       3.56374409       0.00000000      -0.00293876       0.00074572       0.00679268
C        8.57936255       2.12722632       3.49790513       0.00000000      -0.00396838       0.01011586      -0.00678504
C        7.36875220       4.27497655       3.33928099       0.00000000       0.00449902      -0.00333037       0.00408371
C        6.18251146       6.45011566       3.29965021       0.00000000       0.00235571      -0.01369970      -0.00203197
C        4.90613932       8.54280244       3.49441242       0.00000000       0.00177370      -0.00738352       0.00234503
C       -0.06558104       1.38353358       3.84994316       0.00000000      -0.00151057      -0.00309649       0.01239530
C       -1.34126615       3.52836443       3.98420053       0.00000000       0.00293489      -0.00267036      -0.00291433
C       -2.51349190       5.68303743       3.68491331       0.00000000      -0.00644290       0.00484291      -0.00389309
C       -3.71616869       7.82095760       3.47748509       0.00000000       0.00033805       0.00711977       0.00253658
C       -4.97563760       9.95044035       3.53910955       0.00000000      -0.00373225       0.00841292       0.00825513
C        2.41223416       1.35373903       3.77659286       0.00000000       0.00009110       0.00390101       0.01197959
P        1.16835969       3.41516280       5.17390601       0.00000000       0.01080465      -0.01370736       0.00085561
C       -0.22652598       5.67064048       4.50315473       0.00000000      -0.00666837      -0.00042732      -0.00662031
C       -1.26517806       7.82130013       3.84817300       0.00000000       0.00391460      -0.00175204       0.00139729
C       -2.49320662       9.94524552       3.56853757       0.00000000       0.00294837       0.00390549       0.00021344
C        4.87283431       1.42441571       3.44571961       0.00000000      -0.00714559       0.00082333       0.00011085
S        3.35131748       3.72205433       3.08481949       0.00000000      -0.00532051      -0.00308344      -0.00032529
C        1.20189819       7.92814495       4.22122785       0.00000000       0.00204781       0.00137544      -0.00584636
C       -0.03840776       9.96237973       3.63002677       0.00000000       0.00210391      -0.00125940       0.00433632
C        7.33968417       1.42199448       3.44507986       0.00000000      -0.00526970       0.00073623      -0.00246326
C        6.12050897       3.57043069       3.29801922       0.00000000      -0.00359481       0.00492754       0.00562169
C        4.95736696       5.78062620       3.43587788       0.00000000      -0.00262665      -0.00100112      -0.00320720
C        3.70793304       7.81869499       3.74163119       0.00000000       0.00252813      -0.00477376      -0.00908442
C        2.42419220       9.95360968       3.62891572       0.00000000       0.00542317      -0.01091560       0.00156440
C        9.81295659       1.41148248       3.60618100       0.00000000      -0.00490751       0.00573130      -0.00528863
C        8.58711729       3.55137079       3.47892283       0.00000000       0.00878939       0.00982625       0.00542890
C        7.39065827       5.69966171       3.32014691       0.00000000       0.00291300      -0.00889093      -0.00023563
C        6.15305293       7.85568919       3.37177712       0.00000000       0.00130147      -0.01178289      -0.00070236
C        4.88836611       9.96271205       3.53069239       0.00000000      -0.00557432      -0.00402315       0.00253450
Hf       3.22905048       5.09738185       5.46967401       0.00000000       0.00812133       0.00563036      -0.01373184
O        4.17960591       5.68847860       6.97895287       1.00000000      -0.00006888      -0.00277814      -0.00301163
O        4.22469010       4.15247067       6.75474155       1.00000000       0.00359694       0.00800119       0.00813496
