51
Lattice="12.336457 0.0 0.0 -6.168228499999997 10.683685154694365 0.0 0.0 0.0 15.0" Properties=species:S:1:pos:R:3:initial_magmoms:R:1:forces:R:3 energy=-446.3942067867273 free_energy=-446.3942067867273 stress="-0.006774086977511036 -0.004345972719660971 -2.141274678243317e-06 -0.004345972719660971 -0.005892996176529572 -4.256819206469084e-06 -2.141274678243317e-06 -4.256819206469084e-06 -1.3383148464783909e-05" pbc="T T T"
C        0.01857293      -0.02466145       3.82127495       0.00000000      -0.00620530       0.00229070       0.00181892
C       -1.25146310       2.08947131       3.77982849       0.00000000      -0.00425852       0.00279841      -0.00049708
C       -2.47249894       4.25085636       3.79856983       0.00000000      -0.00037943       0.00324032       0.00212349
C       -3.65912924       6.39969404       3.86395153       0.00000000       0.00047511      -0.00173295      -0.00064215
C       -4.88989483       8.54395300       3.87665491       0.00000000      -0.00300743       0.00194836       0.00435826
C        2.48521306      -0.00903687       3.77331586       0.00000000       0.00205694       0.00478026       0.00852724
C        1.20114722       2.06801533       3.74757668       0.00000000      -0.00188930      -0.00510955       0.00458611
C       -0.07241864       4.17869560       3.63520765       0.00000000      -0.00013647      -0.00037682      -0.00625123
C       -1.21072363       6.38535715       3.70439584       0.00000000      -0.00192206       0.00174495      -0.00278153
C       -2.42925767       8.53070306       3.78108338       0.00000000       0.00058734      -0.00018078      -0.00428201
C        4.95246504      -0.01220551       3.68240548       0.00000000       0.00059632      -0.00296536       0.00015710
C        3.69436367       2.09582299       3.41940240       0.00000000       0.00623228      -0.00044451       0.00175145
P        1.19213729       6.35708184       2.40713498       0.00000000       0.00429707      -0.00097260      -0.01594778
C        0.02734203       8.53045869       3.58818605       0.00000000      -0.00082419       0.00310308       0.00074187
C        7.41577762      -0.01406573       3.70480908       0.00000000      -0.00048484       0.00102843       0.00244628
C        6.17282220       2.13710030       3.63638165       0.00000000      -0.00622671      -0.00000148       0.00204828
C        4.98912024       4.33975177       3.56054902       0.00000000      -0.00633869       0.00129411       0.00220707
N        3.81752731       6.46135600       3.80735647       0.00000000       0.00420186      -0.00405535      -0.00546061
C        2.51238093       8.53054742       3.61094885       0.00000000       0.00602901       0.00194819       0.00063014
C        9.87723682      -0.02638387       3.79588371       0.00000000       0.00501191      -0.00444941      -0.00680198
C        8.63126741       2.11957818       3.78915399       0.00000000       0.00460404      -0.00332429       0.00031565
C        7.41696540       4.27022548       3.80753682       0.00000000      -0.00549683      -0.00067279       0.00047435
C        6.23019282       6.43602850       3.84287482       0.00000000      -0.00063480       0.00146327      -0.00275352
C        4.98134892       8.53982222       3.80471653       0.00000000       0.00008873       0.00020263       0.00251549
C       -0.00785403       1.39486396       3.77777204       0.00000000      -0.00692745       0.00078820       0.00691451
C       -1.26714412       3.49978531       3.72119663       0.00000000      -0.00380563       0.00216089      -0.00572872
C       -2.43044484       5.67633707       3.81280342       0.00000000       0.00040579       0.00171116      -0.00367578
C       -3.65766324       7.82416746       3.85762175       0.00000000      -0.00020134      -0.00160059       0.00535149
C       -4.90582856       9.96626412       3.84150656       0.00000000      -0.00267171       0.00516287      -0.00291109
C        2.45574979       1.41855829       3.65888526       0.00000000       0.00328409       0.00382251       0.00369849
O        1.12461256       3.45626104       3.87908120       0.00000000       0.00148872      -0.00121473      -0.00016553
C        0.04027406       5.60946753       3.58598313       0.00000000      -0.00213988       0.00036597       0.00865164
C       -1.19824859       7.80465698       3.67860091       0.00000000      -0.00071393       0.00210010      -0.00374496
C       -2.44427678       9.95890347       3.74977294       0.00000000       0.00156956       0.00072961       0.00040450
C        4.93974785       1.41778078       3.57940686       0.00000000       0.00028636      -0.00524682      -0.00457007
P        3.64784918       3.68374152       2.63175042       0.00000000       0.00139693      -0.00483669      -0.00193097
C        1.27728237       7.84299706       3.40523401       0.00000000       0.00138063       0.00436084       0.00015382
C        0.01894295       9.95583881       3.67348022       0.00000000      -0.00083884       0.00089303      -0.00176326
C        7.40099165       1.41430594       3.72378527       0.00000000      -0.00155873       0.00139651       0.00124190
C        6.19072701       3.56448640       3.67487519       0.00000000      -0.00918177       0.00032228      -0.00216761
C        5.00634748       5.76404684       3.74341537       0.00000000       0.00347568      -0.00228937       0.00364092
C        3.76636066       7.83038548       3.72489077       0.00000000       0.00458389      -0.00360700       0.00590478
C        2.48420791       9.95429557       3.72366973       0.00000000       0.00363884       0.00187633      -0.00533399
C        9.86575071       1.39652542       3.80507745       0.00000000       0.00426088      -0.00612999      -0.00242988
C        8.63545075       3.54596801       3.81672497       0.00000000      -0.00026152       0.00015896      -0.00030434
C        7.44442450       5.69573229       3.85640552       0.00000000      -0.00240192       0.00059048      -0.00172012
C        6.21795509       7.84411908       3.86593529       0.00000000      -0.00344368       0.00156337      -0.00394790
C        4.95382308       9.95496384       3.81594976       0.00000000      -0.00042560      -0.00215728       0.00155424
Hf       2.22913781       5.18176016       4.49578654       0.00000000       0.00904738      -0.00453010       0.01583030
O        1.63909567       5.57451034       7.53304096       1.00000000      -0.00147916       0.00142960      -0.00144040
O        1.89587336       5.42159342       6.26369574       1.00000000       0.00485635       0.00062303      -0.00079579
