52
Lattice="12.336457 0.0 0.0 -6.168228499999997 10.683685154694365 0.0 0.0 0.0 15.0" Properties=species:S:1:pos:R:3:forces:R:3 energy=-451.28731567904424 free_energy=-451.28731567904424 stress="-0.004122410289863741 -0.00020273170454080324 6.763625659347753e-06 -0.00020273170454080324 -0.0033073273702569823 -2.7718937392604644e-05 6.763625659347753e-06 -2.7718937392604644e-05 -3.603583680307185e-05" pbc="T T T"
C       -0.00687627      -0.06689013       3.66485072      -0.00049036       0.00080110       0.00666801
C       -1.24608974       2.07528769       3.79294512      -0.00203061       0.00071939       0.00633096
C       -2.47919796       4.21475320       3.49023457       0.00828622      -0.00690461      -0.00052196
C       -3.70362950       6.35138556       3.27929085      -0.00059534       0.00309411      -0.00715287
C       -4.94282421       8.49334429       3.37193065      -0.00007057       0.00763843      -0.00474277
C        2.46393149      -0.08882569       3.70603072      -0.00266383      -0.00315579       0.00532644
C        1.21082182       1.94540337       4.29655846       0.00431567      -0.00016771       0.00098427
C       -0.12448582       4.29621813       4.07824087       0.00187872       0.00504408      -0.00177506
C       -1.25831762       6.37373930       3.49476634      -0.00449294      -0.00072110      -0.00504562
C       -2.47032051       8.49147733       3.38437299      -0.00015981       0.00889421       0.00795703
C        4.93885432      -0.07691237       3.63734059      -0.00994879       0.00674819       0.00626759
C        3.72173103       1.94414614       4.22752079      -0.00167158      -0.00216910       0.00755514
N        1.04740707       6.42886199       4.22248948       0.00829083      -0.00939210       0.00038102
C       -0.00461548       8.47580635       3.58393088      -0.00000675       0.00042075      -0.00021550
C        7.40815268      -0.07674706       3.63580347      -0.00188024      -0.00166185       0.00283356
C        6.17218901       2.07503008       3.71610095      -0.00156474      -0.00139889      -0.00701902
C        5.01167116       4.29731523       3.86201600       0.00062878       0.00640908      -0.00202358
O        3.89517562       6.43538141       4.12150999      -0.00203798       0.00218602      -0.00032099
C        2.47508577       8.44059490       3.82883632      -0.00265346      -0.00648260      -0.00516778
C        9.85942673      -0.07397803       3.64960688       0.00474570      -0.00033186      -0.00817978
C        8.63306798       2.07237894       3.56497539      -0.00351681       0.00548665      -0.01197107
C        7.40069667       4.21372795       3.41867825       0.00295172      -0.00607759      -0.00768991
C        6.17866211       6.37717652       3.36182927       0.00530078      -0.00391812      -0.00807723
C        4.93707606       8.49033269       3.55013594      -0.00038739      -0.01418880      -0.00610582
C       -0.01722573       1.34044753       3.91925804       0.00039804       0.00102015       0.00843342
C       -1.26965846       3.51013125       3.76525208       0.00609235      -0.00299210       0.00627993
C       -2.47426437       5.63843023       3.38238512      -0.00285017      -0.00562586      -0.00609211
C       -3.70400743       7.77880506       3.30856123       0.00153952       0.00866884      -0.00007513
C       -4.94023316       9.90786035       3.56266821      -0.00191390       0.00275225       0.00354612
C        2.46330478       1.27922464       4.09765665       0.00158344      -0.00834673       0.00589310
P        1.15654137       3.55396988       5.02130222      -0.01324534      -0.00040508       0.00775207
C       -0.08369849       5.71015943       3.89930081      -0.00164804       0.00282140       0.00054273
C       -1.23994092       7.78294834       3.44673746      -0.00271043       0.00292767       0.00472123
C       -2.46773434       9.90402119       3.55376614      -0.00536544       0.00759085      -0.00362795
C        4.94801363       1.33410307       3.85535848      -0.00445343       0.00481858       0.00061876
P        3.77166723       3.57063155       4.86965589       0.00785800      -0.00049679       0.00488189
C        1.18589623       7.75814057       3.86599197       0.00095275      -0.00608182       0.00220261
C        0.00473866       9.89924109       3.58985733      -0.00908859       0.00516326      -0.00597569
C        7.40065299       1.35736187       3.61642942      -0.00140086      -0.00071558      -0.01251629
C        6.18832281       3.50436480       3.63737837       0.00036294      -0.00189625      -0.00061854
C        5.02331424       5.68986559       3.70403207       0.00278805       0.00561046       0.00106445
C        3.74918560       7.81909410       3.82681427      -0.00211058      -0.00682557       0.00267996
C        2.46723977       9.88451518       3.68238616       0.00315339      -0.00356672      -0.00000481
C        9.86680990       1.36189821       3.64743194      -0.00533197       0.00633241       0.00851401
C        8.63273714       3.49732829       3.45893461       0.00610510       0.00168080      -0.00662178
C        7.40374452       5.63638630       3.30745502       0.00310510      -0.00520143       0.00387220
C        6.17092226       7.79289720       3.38737608       0.00523021      -0.00459438       0.00117930
C        4.92721055       9.91480177       3.59646839       0.00375481      -0.00849408      -0.00030170
Hf       2.51015318       5.61229622       5.58199250       0.00454491       0.00392099       0.00025957
O        2.59541206       6.11315157       7.35579085       0.01137529       0.00486460      -0.00410571
O        2.64607503       6.65190927       8.65027347      -0.00481741      -0.01139669       0.00268031
H        3.23445912       6.03421839       9.13418888      -0.00613496       0.01759494       0.00652298
