53
Lattice="12.336457 0.0 0.0 -6.168228499999997 10.683685154694365 0.0 0.0 0.0 15.0" Properties=species:S:1:pos:R:3:forces:R:3 energy=-462.23730121316527 free_energy=-462.23730121316527 stress="-0.002207699012695348 0.00210913119977591 1.3006062908965734e-06 0.00210913119977591 -0.004483980269173475 1.8596289407069435e-05 1.3006062908965734e-06 1.8596289407069435e-05 5.384110817336408e-06" pbc="T T T"
C       -0.07295482      -0.03989740       3.76885722      -0.00607282      -0.00509000      -0.00337407
C       -1.28862814       2.11265079       3.86588138       0.00567587      -0.00062209      -0.00417574
C       -2.51429743       4.23513484       3.86985582      -0.00116486       0.01247842      -0.00340921
C       -3.77081535       6.36455577       3.77142309      -0.00944488       0.00045416      -0.00143131
C       -5.01175978       8.50099046       3.69038286       0.00373615       0.00158210      -0.00511701
C        2.38880084      -0.04527934       3.77890264       0.00215496       0.00003301      -0.00161145
C        1.17374253       2.09651485       3.88848725       0.00418131       0.00525759       0.00504982
C       -0.01188073       4.26628151       3.99874537      -0.00092753      -0.00317317      -0.00056620
C       -1.29826665       6.37728777       3.88229133       0.00016693      -0.00498327      -0.00050962
C       -2.54524917       8.50041897       3.76884365      -0.00228576      -0.00184858       0.01387509
C        4.85957036      -0.04423717       3.77533410       0.00529531       0.00596326       0.00688315
C        3.62662507       2.06149329       3.81405133      -0.01108666      -0.00799325       0.00302371
O        2.43331051       4.10427404       4.13285637       0.01071809      -0.00770110      -0.00554947
O        1.06873227       6.46758444       4.12245540       0.01528422      -0.00531354      -0.00997575
C       -0.10277690       8.51837960       3.78779959      -0.00170466      -0.00165031       0.00342880
C        7.32674898      -0.03666910       3.78514023       0.00681099      -0.00390810      -0.00490412
C        6.10078574       2.08778222       3.79950231      -0.00693586       0.00547773      -0.00460664
C        4.85170726       4.19203570       3.72847062      -0.00946107      -0.00566000      -0.01017267
S        3.62816500       6.35712537       2.31470080      -0.01023502       0.00663278      -0.00431663
C        2.35583390       8.51308659       3.70130880       0.00106317       0.00202603      -0.00922775
C        9.79698111      -0.02980557       3.76436183      -0.00267565      -0.00366118       0.00810879
C        8.57369532       2.09917712       3.82661311       0.00296405      -0.00024044      -0.00016203
C        7.34128140       4.22325795       3.78033096       0.00213323       0.00504315       0.00670141
C        6.10259934       6.36555197       3.59640669       0.00217648       0.00641484       0.00679513
C        4.86478018       8.50954511       3.58454835      -0.00350337       0.00029475       0.00581747
C       -0.06903932       1.38565959       3.84398194       0.00672766      -0.00111801       0.00191499
C       -1.27322989       3.53673795       3.91480352      -0.00389287       0.00323060      -0.00690468
C       -2.53437911       5.65511804       3.84534925      -0.00774542       0.00900174      -0.00199713
C       -3.78205590       7.78803957       3.74127597      -0.00189002      -0.00355595       0.00237551
C       -5.01430548       9.92258547       3.74471567       0.00054149       0.00087136      -0.00623666
C        2.39372767       1.36399610       3.82924909      -0.00401153      -0.00198053       0.00154915
C        1.17268501       3.47942128       4.01078764       0.00550222       0.00193729       0.01021329
C       -0.10171486       5.68594614       4.00806349       0.00491149      -0.00561920       0.00263211
C       -1.32279865       7.79971838       3.81301621      -0.00364834      -0.00476638       0.00395091
C       -2.54441587       9.92625772       3.76700480       0.00561369       0.00220605       0.00450064
C        4.87128617       1.37234849       3.78849448      -0.00819187       0.00518956      -0.00427920
C        3.65471586       3.44695492       3.86270459      -0.00739593      -0.01146530      -0.00305527
C        1.11069189       7.84988444       3.83330136       0.00363384       0.00214759       0.00011239
C       -0.07638266       9.94070786       3.77196013       0.00511873       0.00035572       0.00192301
C        7.33709118       1.38517369       3.80566176      -0.00238851      -0.00025851       0.00807173
C        6.11133322       3.50114637       3.77530623      -0.00256947       0.00496139      -0.00637818
C        4.87060028       5.62033924       3.45149991       0.01341171      -0.00548010      -0.00214277
C        3.60415842       7.81611265       3.43107773       0.00087370       0.00200622      -0.00232411
C        2.38792433       9.94969386       3.75360510       0.00418531      -0.00444202      -0.00716601
C        9.80760136       1.39371972       3.82276985       0.00372833      -0.00384294       0.00853230
C        8.57937222       3.52049847       3.83185177       0.00488725       0.00508409      -0.00152706
C        7.33275666       5.65017503       3.72947873      -0.00259297       0.00235041       0.00308926
C        6.08620610       7.78520851       3.59085688       0.00188848       0.00849795      -0.00263473
C        4.86039758       9.93302632       3.71723542      -0.00919127      -0.00353810       0.00812699
Hf       3.08119357       6.05776277       4.73914059      -0.00026063       0.00606048      -0.00095294
O        3.92667379       6.57453200       6.27184252       0.00336974      -0.00288409       0.00214968
O        4.62667750       7.09504062       7.36391969       0.00187118      -0.00127864       0.00276586
H        4.73685315       6.32272489       7.96206551      -0.00934860      -0.00348344      -0.00688277
