52
Lattice="12.336457 0.0 0.0 -6.168228499999997 10.683685154694365 0.0 0.0 0.0 15.0" Properties=species:S:1:pos:R:3:forces:R:3 energy=-445.54793542587765 free_energy=-445.54793542587765 stress="-0.0004169181278771762 -0.0016259324333675906 -3.1618521076786968e-06 -0.0016259324333675906 -0.0033635639333918356 3.0173594646467823e-05 -3.1618521076786968e-06 3.0173594646467823e-05 -2.109032065452679e-06" pbc="T T T"
C        0.12541236      -0.00523373       3.80809509      -0.00557647       0.00117913       0.01214154
C       -1.12345579       2.12346796       3.56479199       0.00226631       0.00057228       0.00985711
C       -2.37703805       4.26685405       3.59057131      -0.00080383      -0.00453196       0.00128333
C       -3.57382412       6.40611027       3.80613155       0.00039434       0.00848575       0.00136673
C       -4.80020839       8.53792452       3.90163859      -0.00265914       0.00234813      -0.00126778
C        2.60019662      -0.04091585       3.86964107       0.00179734       0.00047438       0.00121596
C        1.37504243       2.04766517       3.47794944       0.00200109      -0.00429651       0.00091421
C       -0.04629901       4.26519039       2.90900717       0.00544902      -0.00719992      -0.00306291
C       -1.14724785       6.42913729       3.37644427      -0.00467608      -0.00553806       0.00563231
C       -2.32058866       8.52674893       3.82527530       0.00550850       0.00051588      -0.00066972
C        5.07156238      -0.02184729       4.02151904       0.00162119       0.00217516       0.00090288
C        3.78918775       2.07227472       4.17573933       0.00011721      -0.00211243       0.00173758
S        1.23137590       6.34827569       1.77497997       0.00642118       0.01418781      -0.00803291
C        0.16396355       8.50973633       3.94422409       0.00116797       0.01113178       0.00818798
C        7.53032131       0.00204829       4.06247715       0.00652388      -0.00363243       0.00355895
C        6.28325295       2.14830876       4.15538621      -0.00303183       0.00085970       0.00192531
C        5.08898202       4.35879669       4.35461822      -0.00116613      -0.00208754       0.00370714
O        3.90321690       6.47707966       4.20106565      -0.00035318       0.00164121      -0.00197005
C        2.60369999       8.53893981       4.14573706      -0.00163484       0.00056802      -0.00040267
C        9.99537873       0.00222549       3.95073722      -0.00218179       0.00347713       0.00086151
C        8.75256835       2.14108731       3.90315524      -0.00827749      -0.00313012       0.00162796
C        7.51775195       4.28127956       3.99322643       0.00329832       0.00614223       0.00493047
C        6.31483975       6.44060206       4.06523352       0.00272930      -0.00517575      -0.00107641
C        5.08311894       8.55934743       4.05340091      -0.00315640      -0.00172992       0.00083374
C        0.11988649       1.41435110       3.59955970       0.00158525      -0.00277664       0.00303769
C       -1.16682274       3.53417996       3.35601797       0.00431735      -0.00426731       0.00454906
C       -2.35790397       5.69578917       3.59279431      -0.00786540      -0.00164196      -0.00182683
C       -3.56084969       7.82509412       3.83601176       0.00221173       0.00616091      -0.00136051
C       -4.80702661       9.95765912       3.84957867      -0.00222571       0.00267385      -0.00373009
C        2.58704276       1.37658359       3.85121472       0.00121965      -0.00057794       0.00161931
S        1.50962407       3.53724948       2.57551672      -0.00142657       0.00285281       0.00313019
C       -0.06138911       5.69975175       2.74364496      -0.00228039      -0.00654645      -0.00542300
C       -1.08375036       7.81587728       3.70974380       0.00364438       0.00252380       0.00066054
C       -2.32468385       9.94262760       3.92676060       0.00423235       0.00118898      -0.01141566
C        5.05352270       1.41237781       4.14516182      -0.00179292       0.00225087      -0.00793136
P        3.56211032       3.66060464       4.89808304      -0.00053123      -0.01069800      -0.00051264
C        1.38374078       7.82430960       4.12340379      -0.00079468       0.00825554       0.00535523
C        0.13673347       9.95821784       4.02449327       0.00464920       0.00776022      -0.00415734
C        7.51931464       1.43624719       4.05178896      -0.00486410      -0.00662833       0.00339191
C        6.28880605       3.58097765       4.18015741       0.00146858       0.00352322       0.00318179
C        5.11858610       5.75199577       4.22406640      -0.00022036      -0.00328595      -0.00692035
C        3.86744670       7.88550054       4.15343138      -0.00279753      -0.00101684       0.00032019
C        2.60144005       9.98562066       4.06968535       0.00437389      -0.00219390      -0.00663080
C        9.99465991       1.43000065       3.80947682      -0.00474983       0.00364494      -0.00245801
C        8.74387113       3.56315850       3.83613233      -0.00291928      -0.00092842       0.00057257
C        7.53427098       5.70111444       3.95764872       0.00561336       0.00468222      -0.00311647
C        6.31381675       7.84972470       4.00491397      -0.00258041      -0.00490885      -0.00568323
C        5.06235662       9.98010546       3.93870460      -0.00693396      -0.00009823      -0.00274617
Hf       1.79774483       5.63838124       4.15068630      -0.00286410      -0.00248771      -0.00323963
O        0.79975045       5.36120635       5.66106220      -0.00710763       0.00198756      -0.00212252
O       -0.04547735       5.02758718       6.73604317       0.01539804      -0.01144456      -0.00202548
H        0.10138239       5.76199416       7.37431086      -0.00253815      -0.00232775       0.00127934
