52
Lattice="12.336457 0.0 0.0 -6.168228499999997 10.683685154694365 0.0 0.0 0.0 15.0" Properties=species:S:1:pos:R:3:forces:R:3 energy=-445.0637413509792 free_energy=-445.0637413509792 stress="-0.004749825633483435 -0.003358593232332057 1.6363873557245463e-05 -0.003358593232332057 -0.006172899848211315 -4.34110222487601e-06 1.6363873557245463e-05 -4.34110222487601e-06 2.7101329969624185e-05" pbc="T T T"
C       -0.08913030      -0.02350687       3.63091079       0.00073868      -0.00439548      -0.00140345
C       -1.33728778       2.11544832       3.88588474      -0.00275720      -0.01612218      -0.00280414
C       -2.57776565       4.25594356       3.89695276       0.00893449       0.00294618      -0.00639637
C       -3.76967544       6.39874378       3.72639581      -0.00119754      -0.00292479      -0.00749367
C       -5.00153302       8.53120238       3.57598444       0.00420576      -0.00673431       0.00907064
C        2.39287665      -0.06113777       3.54573692      -0.01240433       0.00155192       0.00598413
C        1.16336011       2.01114140       3.97209833       0.01236398       0.00379802       0.00309557
C       -0.22038008       4.27378459       4.49032985       0.00018368       0.00000504      -0.00019270
C       -1.35045019       6.41495153       4.12749853      -0.00782001      -0.00402687      -0.00088745
C       -2.52078258       8.51518595       3.69183629      -0.00172487      -0.00217049      -0.00068368
C        4.85363847      -0.01830414       3.48747102      -0.00390425       0.00700029       0.00970732
C        3.57006649       2.06290007       3.34053036       0.00642524       0.00740936      -0.00655446
S        1.15172971       6.52845279       5.19724338       0.00271720      -0.01027480       0.00596708
C       -0.07029132       8.54794717       3.88446921      -0.00317639      -0.00239418       0.01500207
C        7.31605337      -0.00459864       3.54131081       0.00407515      -0.00359864       0.01467589
C        6.06206170       2.14887540       3.43253739       0.00456269      -0.00076640       0.00709643
C        4.86046050       4.35276150       3.59824463       0.00156498       0.00491653      -0.00683697
O        3.68705941       6.47275853       3.73315208      -0.00022678       0.00327637      -0.00887031
C        2.40170440       8.53153297       3.76937934      -0.00598542       0.01226872       0.00260341
C        9.78060134      -0.00638790       3.58616366       0.00047447       0.00105800      -0.00328288
C        8.53781073       2.13129183       3.62065244      -0.00953060       0.01036339      -0.00753014
C        7.30450217       4.26913992       3.63780057      -0.00221623       0.00112626       0.00650497
C        6.14266828       6.44563987       3.66814026       0.01600826       0.00281799      -0.00166683
C        4.85899004       8.53948617       3.55844895      -0.00247851       0.00172343       0.00834001
C       -0.09899334       1.38854064       3.84071604       0.00942640      -0.00523053       0.00674635
C       -1.36973458       3.52904879       4.08513927       0.00675484      -0.00981357      -0.00944942
C       -2.55955560       5.68367187       3.90516010      -0.00533204      -0.00086446       0.00097179
C       -3.76251908       7.81576858       3.66033690       0.00231175      -0.00523833      -0.00196787
C       -5.01737122       9.94484250       3.57339892      -0.00752327      -0.00783019       0.00010474
C        2.37628474       1.35072840       3.60769291       0.00599107       0.00558874      -0.00656011
P        1.32859999       3.50405575       4.85119411      -0.00067739       0.00397632       0.00931423
C       -0.23107272       5.67253882       4.56212023       0.00023627       0.00073041      -0.00658552
C       -1.30272635       7.82321358       3.92801110      -0.00353183      -0.00853387      -0.01060882
C       -2.53134543       9.93336877       3.54338283      -0.00956198       0.00405329       0.00820608
C        4.82917979       1.42162557       3.37464924       0.00577802       0.00757796       0.00195712
S        3.33507498       3.75347835       2.90968096      -0.00809521      -0.01279597       0.00012504
C        1.16889177       7.92096539       4.16219534      -0.00028214      -0.00064894       0.00009070
C       -0.07967802       9.96174193       3.59872893      -0.00109510      -0.00105358       0.00675751
C        7.29998890       1.42971989       3.50045739       0.00015665      -0.00384888       0.00682254
C        6.07248818       3.56559966       3.53017529      -0.00127502       0.00100000      -0.00981847
C        4.93842309       5.76177874       3.78277574       0.01270660       0.00159338       0.00397005
C        3.64872340       7.87413762       3.69161064      -0.00945396       0.00763229      -0.00855636
C        2.38455815       9.96521140       3.59040721       0.00402294       0.00527718       0.00363181
C        9.77688292       1.42001030       3.67984676      -0.01613867      -0.00356207       0.00199652
C        8.53712115       3.55039946       3.70217474       0.00240553       0.01237817      -0.00547387
C        7.33845157       5.69071928       3.66828641       0.00667106      -0.00251642      -0.00409188
C        6.11119214       7.84568797       3.58093453       0.00584323      -0.00097497      -0.00235359
C        4.84533240       9.96704397       3.57518574       0.00026671      -0.00004657      -0.00264308
Hf       3.23918433       5.01522712       5.32006024       0.00269150       0.00170371      -0.00569563
O        4.09183958       4.76663306       6.91596857      -0.00246544      -0.00122876       0.00152272
O        4.73158986       4.52401050       8.13428176       0.00473011       0.00734295      -0.01200244
H        5.33393635       5.29217078       8.23594224      -0.01339310      -0.00152065       0.00014539
