52
Lattice="12.336457 0.0 0.0 -6.168228499999997 10.683685154694365 0.0 0.0 0.0 15.0" Properties=species:S:1:pos:R:3:forces:R:3 energy=-444.8699510879211 free_energy=-444.8699510879211 stress="-0.006525522241993239 0.0019036257641774732 9.681746464812757e-06 0.0019036257641774732 -0.0023273020203349267 -7.879166959729511e-06 9.681746464812757e-06 -7.879166959729511e-06 -2.1110464958312946e-05" pbc="T T T"
C        0.08291423       0.06549047       3.75243107       0.00494988       0.00153255       0.00096662
C       -1.14430206       2.21217545       3.53990206       0.00368728       0.00561706       0.00246486
C       -2.36971840       4.35200645       3.77682354       0.00078584      -0.00124059      -0.00244547
C       -3.60338266       6.49197320       4.03037186       0.00237346      -0.00509482      -0.00099740
C       -4.85013427       8.62687120       4.05275165      -0.00136725      -0.00147096      -0.00049524
C        2.54931259       0.04915150       3.69202657       0.00246752      -0.00227678      -0.00512217
C        1.32019228       2.14052461       3.21605561      -0.00566592      -0.00252628      -0.00662010
C        0.00605962       4.42600684       3.22171017      -0.00603167      -0.00452107      -0.00101169
C       -1.19388820       6.52315638       3.71105727      -0.00175789       0.00842721      -0.00139567
C       -2.38578890       8.62879614       3.85611614       0.00069622       0.00085255      -0.00017371
C        5.02830143       0.07039249       3.71010719      -0.00500293       0.00013000       0.00007857
C        3.79647040       2.14443481       3.47049024      -0.00369298      -0.01173126       0.00430355
O        1.24594158       6.52876195       3.58352468      -0.00288707      -0.00166074       0.00743026
C        0.08220884       8.61505084       3.72749118       0.00711765       0.00829606      -0.00009299
C        7.49587972       0.06402920       3.73779036      -0.00781881      -0.00422496       0.00106362
C        6.27067983       2.21310490       3.79035602       0.00275315       0.00666503      -0.01247602
C        5.14059956       4.38451663       4.14699498      -0.00154222      -0.00135076      -0.00224392
P        3.63498979       6.41025470       5.18095266      -0.00179486       0.00744734       0.00185434
C        2.53339583       8.59737520       3.93773977       0.00183684      -0.00335188       0.00528385
C        9.95685075       0.06183603       3.79058810       0.00070997       0.00194714       0.00492859
C        8.73564673       2.20688207       3.78526016      -0.00028084       0.00052795      -0.00385737
C        7.53484639       4.34211290       4.06383231       0.00399420       0.00483012       0.00069618
C        6.32151202       6.49993204       4.38909717       0.00214412      -0.00014189      -0.00067579
C        5.01578023       8.62913731       4.18838368      -0.00485902      -0.00249901       0.00380250
C        0.08381705       1.48452417       3.48627346      -0.00162698       0.00295612      -0.00359067
C       -1.16954055       3.63662515       3.51833162      -0.00070335       0.00096879      -0.00234316
C       -2.38979809       5.77737842       3.84561244       0.00294008      -0.00134179       0.00119265
C       -3.61598456       7.91737196       3.99809029      -0.00125468      -0.00529704      -0.00685573
C       -4.85350181      10.03840073       3.83826022       0.00449932       0.00003537      -0.00295812
C        2.56302085       1.45992383       3.42958669      -0.00462482      -0.00540167      -0.00313010
S        1.27332308       3.61553616       2.20006623       0.00949904      -0.01193076       0.00005939
C       -0.00858579       5.83660952       3.48439208      -0.00745491      -0.00354364       0.00028927
C       -1.16798455       7.93159693       3.77077279       0.00659980       0.01045030      -0.00425441
C       -2.38048581      10.04849013       3.76366977      -0.00024711      -0.00013658       0.00408490
C        5.03702206       1.50111039       3.66549168       0.00162876      -0.00156562      -0.00557126
S        3.77633331       3.85681138       3.23322333      -0.00485841       0.00463875      -0.00456778
C        1.29210455       7.92592657       3.77498308       0.00435054       0.00173655       0.00073898
C        0.09477797      10.04381436       3.73053941      -0.00781025       0.00393149       0.00576568
C        7.49513876       1.49749224       3.77286538      -0.00307696      -0.00184811      -0.00121079
C        6.31203101       3.61535628       4.01348368       0.00410161       0.00620149      -0.00658447
C        5.14262555       5.72821043       4.57464835       0.00627645      -0.00349382       0.00672475
C        3.75949167       7.96661894       4.33524721      -0.00139838      -0.00697157       0.00214278
C        2.55085849      10.02949743       3.79957048      -0.00319139      -0.00289832       0.00305943
C        9.96510003       1.49201052       3.69933400       0.00465226       0.00541944       0.00165689
C        8.74612978       3.62821874       3.88554659       0.00061897       0.00171217      -0.00538432
C        7.52688927       5.77134432       4.18030105       0.00359361       0.00098592       0.00303040
C        6.26790324       7.92310827       4.26158972      -0.00442888       0.00129765       0.00206450
C        5.02143879      10.04019709       3.90263488       0.00230391       0.00026686       0.00617107
Hf       1.78444514       4.60995223       4.58434274       0.00571818      -0.00057228       0.00686411
O        1.22737505       3.59425385       5.98449382      -0.00330958       0.00202996       0.00535816
O        0.81154736       2.71238404       6.98629828       0.00715836       0.01173257      -0.00111710
H        0.39384236       3.30636628       7.64930799      -0.01076988      -0.01354426       0.00309959
