51
Lattice="12.336457 0.0 0.0 -6.168228499999997 10.683685154694365 0.0 0.0 0.0 15.0" Properties=species:S:1:pos:R:3:initial_magmoms:R:1:forces:R:3 energy=-440.29420344260205 free_energy=-440.29420344260205 stress="-0.006107458394655023 0.001890729132290612 -1.3089531289915487e-05 0.001890729132290612 -0.0021845224647719123 -1.7946266497176572e-07 -1.3089531289915487e-05 -1.7946266497176572e-07 1.6645993981028635e-06" pbc="T T T"
C        0.03681987       0.04740570       3.67607542       0.00000000      -0.00355375       0.00934491       0.00637821
C       -1.18729843       2.19823824       3.46780385       0.00000000       0.00473645       0.00640543      -0.00306007
C       -2.41209342       4.33949455       3.69945445       0.00000000      -0.00001758      -0.00336643       0.00238587
C       -3.64728703       6.47864603       3.94659741       0.00000000      -0.00423201      -0.00731129       0.00550949
C       -4.89589265       8.61065219       3.97715704       0.00000000       0.01256064       0.01026632      -0.00294442
C        2.50334254       0.03192353       3.60748372       0.00000000       0.00967430       0.00492845      -0.00687987
C        1.27157648       2.10964007       3.10251584       0.00000000      -0.00211363      -0.00069664      -0.00185554
C       -0.02931824       4.41430508       3.17658567       0.00000000      -0.00801059      -0.01333027       0.00261539
C       -1.23574684       6.51199915       3.64010121       0.00000000      -0.00578840       0.00526808      -0.00157326
C       -2.43013401       8.61615750       3.78427926       0.00000000       0.00052773      -0.00788824      -0.00523772
C        4.98279348       0.05935731       3.64843971       0.00000000      -0.00469003      -0.00815903      -0.01048147
C        3.74912693       2.12900191       3.38362635       0.00000000      -0.00059177       0.00138133      -0.00346477
O        1.20261707       6.51939309       3.55479103       0.00000000       0.01526733       0.00172109       0.00322452
C        0.03915712       8.60458249       3.68597944       0.00000000      -0.00272888       0.00697855      -0.00079006
C        7.45077274       0.05337440       3.69258200       0.00000000       0.00213696      -0.01488089      -0.00471796
C        6.22513972       2.20248590       3.71200115       0.00000000      -0.00683464       0.00347617       0.00680884
C        5.09526973       4.37295994       4.07543313       0.00000000      -0.00026810       0.00238235       0.00601093
P        3.60720400       6.40066761       5.16348335       0.00000000       0.00522738       0.00057830      -0.00592883
C        2.48893550       8.58710107       3.91682390       0.00000000      -0.00734397      -0.00268006      -0.00192864
C        9.91166084       0.04938753       3.74295203       0.00000000       0.00330673       0.00701915       0.00101366
C        8.69194983       2.19542379       3.71607512       0.00000000      -0.00282635      -0.00901793       0.00493298
C        7.49045536       4.33036594       3.98189605       0.00000000       0.00462495       0.00403994      -0.00330676
C        6.27760959       6.48516720       4.31963977       0.00000000       0.00165603       0.00155692       0.00380327
C        4.97168789       8.61711448       4.14371837       0.00000000      -0.00314976      -0.00470674      -0.00268691
C        0.03882070       1.46538259       3.40077056       0.00000000      -0.00297968       0.00607084      -0.00738529
C       -1.21070943       3.62240286       3.45084387       0.00000000      -0.00212457      -0.00236950       0.00323204
C       -2.43237788       5.76503164       3.76593948       0.00000000      -0.00486615      -0.00305194      -0.00138535
C       -3.66081965       7.90337313       3.91615312       0.00000000       0.00534032      -0.00578178       0.01418185
C       -4.89938145      10.02031506       3.75814357       0.00000000       0.00589302       0.01782482      -0.00276970
C        2.51619136       1.44079122       3.33216766       0.00000000       0.00083743       0.00530108       0.00415425
S        1.23124148       3.61168001       2.13804550       0.00000000      -0.00673965       0.00612359      -0.00319605
C       -0.04838644       5.82649219       3.42883355       0.00000000      -0.00646834      -0.00888032       0.01310142
C       -1.21088196       7.92046299       3.70668434       0.00000000       0.00287971       0.00703435       0.01048949
C       -2.42555026      10.03575551       3.69430993       0.00000000       0.00165146      -0.01118600      -0.00230167
C        4.99042471       1.48970805       3.58930377       0.00000000      -0.00494515      -0.00551307      -0.00213541
S        3.72764464       3.84649483       3.16470049       0.00000000       0.00517153       0.00359363       0.00049358
C        1.24852062       7.91546793       3.74930124       0.00000000      -0.00413309       0.00280821      -0.00119500
C        0.04965895      10.03347532       3.68504111       0.00000000      -0.00269508      -0.00134534      -0.00430966
C        7.45041327       1.48690419       3.70725113       0.00000000      -0.00819766      -0.01147406       0.00325672
C        6.26668205       3.60468092       3.93146809       0.00000000       0.00249877       0.01111839       0.00215298
C        5.10017336       5.71279045       4.51798737       0.00000000      -0.00101318       0.00476516      -0.00968897
C        3.71687896       7.95696022       4.31184121       0.00000000      -0.00706716      -0.00616545      -0.01248405
C        2.50540974      10.01841306       3.76613259       0.00000000       0.00524573      -0.00664550      -0.00371132
C        9.92112232       1.47906113       3.63644045       0.00000000       0.00683977       0.00601376      -0.00446285
C        8.70259835       3.61675438       3.80745284       0.00000000       0.00048573      -0.00601322      -0.00964533
C        7.48262154       5.75865618       4.09922825       0.00000000      -0.00210003      -0.00192620       0.00268078
C        6.22315902       7.90841556       4.19708062       0.00000000       0.01083317       0.00494946       0.01197423
C        4.97610855      10.02582001       3.84792736       0.00000000      -0.00251650       0.00121821       0.00200549
Hf       1.76188785       4.59505341       4.53662585       0.00000000      -0.00254757       0.00190646       0.00638664
O        0.83256145       2.41288060       6.50037897       1.00000000      -0.00264057       0.00672410      -0.00835407
O        1.22566357       3.43152137       5.80582106       1.00000000       0.00578871      -0.00840909       0.01108837
