52
Lattice="12.336457 0.0 0.0 -6.168228499999997 10.683685154694365 0.0 0.0 0.0 15.0" Properties=species:S:1:pos:R:3:initial_magmoms:R:1:forces:R:3 energy=-460.5163630625864 free_energy=-460.5163630625864 stress="0.0007726431470223532 0.00158077773994177 0.00024054142398911306 0.00158077773994177 -0.003615080224768723 -9.848733764005429e-06 0.00024054142398911306 -9.848733764005429e-06 0.00017791946646100124" pbc="T T T"
C       -0.00597424       0.01536281       3.73385355       0.00000000      -0.00594628       0.00274696      -0.00898965
C       -1.22035924       2.16930350       3.79276621       0.00000000       0.00434017      -0.01377477       0.00398365
C       -2.44716884       4.28890326       3.74606726       0.00000000       0.00447340       0.01205398      -0.00416517
C       -3.70651733       6.41676169       3.64821668       0.00000000      -0.00440599      -0.03563483       0.00586516
C       -4.95895968       8.54756583       3.62193937       0.00000000       0.00585653       0.00149808       0.01300764
C        2.45758679       0.00478759       3.61138047       0.00000000      -0.02161981       0.01307917       0.02885060
C        1.24041499       2.14648438       3.68938176       0.00000000       0.02235139      -0.02274722      -0.01542330
C        0.05795302       4.31763855       3.88301037       0.00000000       0.05210906       0.03135870       0.00287973
C       -1.23391509       6.42784052       3.83921380       0.00000000       0.02630257      -0.02909836      -0.01824041
C       -2.47617523       8.54956395       3.69327569       0.00000000       0.00526110      -0.01374425       0.03089564
C        4.93176290       0.00224475       3.64909350       0.00000000       0.01170037       0.02296115       0.00303371
C        3.69866130       2.11825045       3.48667299       0.00000000      -0.03256211      -0.00181437       0.01142267
O        2.50350804       4.15020327       3.74066797       0.00000000      -0.00013255       0.02477181       0.05145729
O        1.09792017       6.50749145       4.33304297       0.00000000       0.11529010      -0.06349144       0.08952484
C       -0.02497802       8.56527248       3.90047416       0.00000000      -0.00774244       0.02140681       0.02710786
C        7.39317000       0.02041067       3.82943529       0.00000000       0.01471486       0.01374679      -0.00853142
C        6.17417703       2.13530273       3.57317367       0.00000000      -0.02883857       0.01594910       0.04303722
C        4.92263601       4.24443535       3.40602643       0.00000000       0.00754295       0.00528180       0.04669145
S        3.49835863       6.44701947       2.77237770       0.00000000       0.04247355      -0.02308977       0.00030951
C        2.42416119       8.57478601       3.97863147       0.00000000      -0.01536978       0.01736663      -0.02478950
C        9.86504723       0.02730662       3.86168866       0.00000000      -0.00341525      -0.00657385      -0.05277430
C        8.64102893       2.15519763       3.74926067       0.00000000      -0.00215956      -0.00220207      -0.01424061
C        7.40683471       4.27670517       3.57890710       0.00000000      -0.00319438      -0.00212288      -0.00778025
C        6.15533503       6.41397895       3.47150781       0.00000000       0.02250889       0.00493291      -0.02197634
C        4.92154014       8.56689334       3.66824828       0.00000000      -0.01149189       0.02063956       0.05240711
C       -0.00193700       1.44239565       3.74872493       0.00000000       0.01975710      -0.01799863       0.01571564
C       -1.20230328       3.59322218       3.80348379       0.00000000       0.02083216       0.01853993       0.00820824
C       -2.46722706       5.70730567       3.73164244       0.00000000      -0.00078275       0.00559379       0.01335400
C       -3.71766888       7.83925368       3.64798138       0.00000000       0.01099073      -0.04638668      -0.01762433
C       -4.94976511       9.97550504       3.65847686       0.00000000      -0.02435256       0.00194963      -0.01253299
C        2.46223310       1.41420369       3.57777953       0.00000000      -0.01314323       0.00333895       0.00945067
C        1.25067119       3.53240713       3.79150184       0.00000000       0.05568673       0.00186212      -0.03003272
C       -0.03650424       5.73555809       4.00060387       0.00000000       0.03421876      -0.01238356       0.05974911
C       -1.25349862       7.85068138       3.81074634       0.00000000       0.00282513      -0.02110155       0.01339818
C       -2.47442329       9.97415417       3.64114964       0.00000000       0.00180674       0.02099298      -0.01176556
C        4.94450141       1.41894636       3.54132065       0.00000000      -0.04526704       0.02595689       0.04036672
C        3.71558380       3.50374228       3.49390986       0.00000000      -0.01199844      -0.01964744       0.00911773
C        1.17783794       7.90123846       4.09689988       0.00000000      -0.02783526      -0.02016287      -0.04506104
C       -0.00625652       9.98910276       3.79076323       0.00000000       0.01420744       0.04648399      -0.01850652
C        7.40638169       1.43863268       3.71733328       0.00000000      -0.01886546       0.01722172       0.00524499
C        6.17496249       3.55224522       3.50356473       0.00000000      -0.00696360       0.00395958       0.02806074
C        4.96242201       5.67471708       3.31391466       0.00000000       0.02851436      -0.05004311       0.00413512
C        3.66405710       7.91590032       3.67290182       0.00000000       0.01699101      -0.00584593      -0.09300218
C        2.45336869      10.00555359       3.92034913       0.00000000       0.00615977       0.01345323      -0.01345254
C        9.87489920       1.45147611       3.81376709       0.00000000       0.00220740      -0.02492768       0.01077194
C        8.64616666       3.57467973       3.68932387       0.00000000       0.00543645       0.00568485      -0.01125600
C        7.39851684       5.70066841       3.56487160       0.00000000       0.01291426      -0.00997134      -0.00161051
C        6.14120241       7.83913628       3.56584848       0.00000000      -0.00649415       0.03341678      -0.02668432
C        4.92745220       9.99215508       3.78871852       0.00000000      -0.01348323       0.02772198      -0.04643046
Hf       2.85833598       5.79837565       5.50443640       0.00000000      -0.20477001       0.00677794       0.02927149
O        2.70541272       4.28929465       6.53409257       1.00000000      -0.07584007       0.02344715      -0.01361019
O        3.70538591       7.16270112       6.39769878       1.00000000       0.01920145      -0.02143236      -0.13883833
