52
Lattice="12.336457 0.0 0.0 -6.168228499999997 10.683685154694365 0.0 0.0 0.0 15.0" Properties=species:S:1:pos:R:3:initial_magmoms:R:1:forces:R:3 energy=-614025.3345653842 free_energy=-614025.3345653842 stress="32.64954362106845 -44.65484530107644 -4.245488929784699 -44.65484530107644 300.1438541542993 267.08426365090673 -4.245488929784699 267.08426365090673 202.93012853746288" pbc="T T T"
C        5.12109230      -4.13298532       7.21952871       0.00000000   -3918.60289871   -3994.92591943    1152.10295862
C       -5.22723399       1.85703960       2.93953876       0.00000000    5215.88921549   -5021.89057371   14554.27316217
C       -0.82914039      10.14155409       3.08172293       0.00000000    -415.73074366    1437.71621891   -1091.07512566
C        4.12574334      -1.02292739      -2.06474376       0.00000000       1.48810766      -0.51065020       2.04373189
C       -6.05183501       6.62961445       3.51526736       0.00000000     637.50669431    -466.34792237    -318.12295405
C        4.41254087      -2.72704787       3.34753082       0.00000000     989.94303521     -30.04462748     915.49552972
C       -3.01301214      -1.62196898       2.61621297       0.00000000   -1170.03441328    -586.47865275    1881.50634358
C       -3.46673753       8.49206851       3.96645524       0.00000000    -231.45956431     -16.99065187    -128.96318417
C        0.23099142      -0.47093809      -4.08374946       0.00000000       4.63471512       3.01708569      14.11753430
C       -2.95049569      15.12082081       4.74693946       0.00000000     347.94177314    -214.37162435     311.15899641
C        7.37148129       3.46563761       6.66257759       0.00000000      16.19557805    -318.77763829    -326.30242389
C        4.47494906       1.96645800       5.98904146       0.00000000     771.53927189    -331.25376774    -805.63788562
P        6.09771763       4.38554746       4.97479587       0.00000000     334.67014218   -1574.72787412   -1033.21550413
S        0.08948792       5.90832650       3.97589112       0.00000000    8092.11602240   17667.40108111   13564.41414965
C       -4.63257262      12.70672817       0.05246302       0.00000000       1.84648981      -2.20303903       1.54015396
C        6.82341902       0.51005195       3.93625631       0.00000000    7860.05405038   25512.78128967   -2450.93847124
C        8.05116921       7.71997186       5.95711156       0.00000000     -32.30866085       4.67999431       9.43089446
C        8.67711612       5.46496707      -1.35786766       0.00000000       0.85243786       0.72642004       0.01611412
S        4.26854988       5.27677337       6.25261458       0.00000000    2601.94499615    1351.90597817    -967.25310126
C        2.21099705      -0.35602634       1.02459948       0.00000000       7.73818966       0.14140664       3.14876255
C        7.59160069       0.00902173       2.24385397       0.00000000     711.34083973   -5413.10535259   -5888.28136080
C        6.88809237       1.92808674       3.76616109       0.00000000   16840.86597709  -18605.24960424   14149.31279437
C        8.52145098       1.11006702      -3.53234582       0.00000000      -1.65424683      -7.48484266     -30.80904576
C       -1.43155742      14.02574773       9.46700065       0.00000000       0.38518495      -1.91525329       7.85622893
C        7.65099421       7.49267114       4.88736905       0.00000000     -16.39082753       7.05918902     -36.89377353
C       -7.44035427      -3.91040584      -0.71845013       0.00000000       0.51917669       3.04763377       3.50240758
C      -12.43290382      -0.70123147      24.85572987       0.00000000      -5.11569735      -2.54387685     -15.55702228
C       -4.15618467       0.71603738      -5.56225345       0.00000000    -158.10675391    -580.94258223    -703.14015033
C       -0.00584117       9.59440361       3.06261542       0.00000000    -651.96765532   -1770.43905984   -1402.69647478
C       -1.20503088       7.43971373       8.32065754       0.00000000   -1621.32589940    -591.63127564    1525.29617547
C        4.90980777       6.03589278       3.90565991       0.00000000   -1860.81781379    3768.79058004     688.71959781
C        2.64721723       5.49092995       5.77736741       0.00000000   -5720.43919848   11202.13192426    -560.76494799
C       -4.37458548       1.12409722       6.07801764       0.00000000    1337.53205632    6106.17233774    6090.74861965
C       -8.34145141       5.93207703       5.69200510       0.00000000   -4950.31362205     339.06955264    1713.09454240
C       -0.11405164       8.87099315       4.01689833       0.00000000    4485.09400195  -24141.28747820  -16420.36971368
C        6.21830941       1.37273429       2.68796434       0.00000000    1842.68840279    2668.46906230    7665.83488029
C        2.85919610      11.11111835       6.38488095       0.00000000    5546.80494011    9373.92321515    2733.43414045
C        1.05582570       9.23922705       2.54055985       0.00000000     410.69654070   -1047.97159257     688.69968569
C        2.23885637      10.31782412       3.56450820       0.00000000   10228.71452786   -6810.27533154  -11323.68609929
C        5.83907131       1.91166159       4.04257785       0.00000000   12670.42242501   -1834.61512975   -6248.53070157
C        6.91380901       0.71952756       6.26200363       0.00000000   -3462.01789422    9487.81480763    3240.80529823
C       10.75572512      10.19883593      -7.90407789       0.00000000   -2221.75778632    1699.69997181    1169.89196803
C        4.12904018       7.86321790       5.71147073       0.00000000   -1734.96211260   -8900.44857857   -8261.71846324
C        1.18043836      11.80852145       3.75684501       0.00000000  -14601.78374687   19259.62852709   20360.71537820
C        7.88512148       1.37082579       4.11559703       0.00000000  -43508.95392539   29321.93377033  -11053.05849452
C        7.43047246       1.61619068       4.23105253       0.00000000    3599.64149372  -21656.05065701  -37977.67991363
C       15.99853486       3.01994234      12.30337149       0.00000000       0.07577479       0.07597842      -0.26242250
C        4.48887482       6.43191467       3.89980423       0.00000000     202.12366608   -1894.67497770    1237.88066515
C        3.57147437      11.24980147      -3.01034542       0.00000000      -2.74400461       1.33474549       0.07264197
Hf       1.43771059       8.01304804       5.52381697       0.00000000 -457086.58361570 4376908.07675020 3362550.29096017
O       10.29301790      12.84197504       4.32470924       1.00000000      47.80082046    -812.25800951    -197.60931667
O        1.42489106       8.15218658       5.64603195       1.00000000  458564.00453366 -4409496.18097693 -3348992.83776525
