52
Lattice="12.336457 0.0 0.0 -6.168228499999997 10.683685154694365 0.0 0.0 0.0 15.0" Properties=species:S:1:pos:R:3:initial_magmoms:R:1:forces:R:3 energy=-451.6993125821902 free_energy=-451.6993125821902 stress="-0.005586783693256224 0.0029855046383215097 1.3954133220119658e-05 0.0029855046383215097 -0.005522871969039293 -1.2278574593547784e-05 1.3954133220119658e-05 -1.2278574593547784e-05 -9.598814776517492e-05" pbc="T T T"
C        0.08219468      -0.00790402       3.72486034       0.00000000      -0.00025843       0.00065765       0.00371107
C       -1.13457243       2.13744980       3.71877869       0.00000000       0.00307762      -0.00158348      -0.00150994
C       -2.36647800       4.28793945       3.67765712       0.00000000      -0.00122459      -0.00213564      -0.00210429
C       -3.60870687       6.41779545       3.67327622       0.00000000      -0.00046982      -0.00209203      -0.00244633
C       -4.87588640       8.54049426       3.67581299       0.00000000       0.00185908       0.00128201       0.00069864
C        2.54920445       0.00034453       3.87875507       0.00000000       0.00002696       0.00243193       0.00172407
C        1.32099401       2.11446251       3.94384345       0.00000000      -0.00037384       0.00302833      -0.00108202
C        0.08086010       4.26089987       3.63879587       0.00000000      -0.00043809       0.00029359       0.00124232
C       -1.15962830       6.45350263       3.44262484       0.00000000       0.00133273      -0.00256882      -0.00042232
C       -2.40797648       8.56995707       3.59361794       0.00000000       0.00283742      -0.00020755       0.00049328
C        5.02601844      -0.00038284       3.80100316       0.00000000      -0.00073355       0.00190101       0.00277105
C        3.82290248       2.09741503       4.21639753       0.00000000      -0.00128165       0.00153241      -0.00114874
P        2.58561264       4.51964488       4.42417825       0.00000000      -0.00610930      -0.02001227      -0.01824296
P        1.22577963       6.33903107       2.02292107       0.00000000      -0.02135758       0.00223650      -0.00907160
C        0.05491112       8.60385985       3.25502476       0.00000000       0.00236813      -0.00021566      -0.00183962
C        7.48934346       0.02809493       3.57463037       0.00000000      -0.00281949      -0.00173544       0.00211132
C        6.29847664       2.11221154       4.01613905       0.00000000       0.00352455      -0.00024071      -0.00038203
C        5.12462729       4.23361624       4.21219245       0.00000000      -0.00164850      -0.00087647       0.00226842
S        3.57041742       6.15257082       3.00100735       0.00000000       0.01818457       0.00963285      -0.00165162
C        2.54533938       8.66764425       2.97979549       0.00000000      -0.00182277      -0.00181847       0.00876557
C        9.96718864       0.02058158       3.54852059       0.00000000      -0.00254931       0.00153697      -0.00054682
C        8.74647021       2.14494201       3.76574388       0.00000000       0.00078996       0.00250563      -0.00018417
C        7.53586299       4.27435502       3.89946776       0.00000000       0.00063728       0.00081496      -0.00257845
C        6.25083939       6.39412083       3.73493430       0.00000000      -0.00281835      -0.00586473       0.00591773
C        5.00525496       8.54276580       3.45259265       0.00000000      -0.00191963      -0.00386174       0.00205294
C        0.08882538       1.41262764       3.79332761       0.00000000       0.00321556      -0.00092224      -0.00216274
C       -1.14692889       3.56216970       3.66452910       0.00000000       0.00127343      -0.00144488      -0.00065467
C       -2.37450445       5.71341449       3.60788052       0.00000000      -0.00107394      -0.00164244      -0.00085843
C       -3.62991722       7.84344078       3.64979989       0.00000000       0.00028352      -0.00017815      -0.00128423
C       -4.85680161       9.96732317       3.75949381       0.00000000       0.00085473       0.00199892      -0.00301382
C        2.56158302       1.41533779       4.04908843       0.00000000      -0.00135009      -0.00020645       0.00147054
C        1.24775189       3.54002800       3.89883095       0.00000000      -0.00412378      -0.00117906      -0.00183993
C        0.12853898       5.73812999       3.42762000       0.00000000      -0.00182258      -0.00285872       0.00172530
C       -1.17640542       7.86226316       3.38422972       0.00000000       0.00186512      -0.00053486      -0.00081371
C       -2.38832280       9.97794795       3.76551142       0.00000000      -0.00051000       0.00223326      -0.00586096
C        5.05467930       1.39614511       4.04111770       0.00000000       0.00027572       0.00234325      -0.00001036
C        3.93398979       3.49070511       4.43979162       0.00000000       0.00481725       0.00362379       0.00279435
C        1.26541721       8.01309020       2.69763385       0.00000000       0.00731445       0.00389397       0.00304229
C        0.08310448      10.00662632       3.54854836       0.00000000      -0.00203363      -0.00140440       0.00220364
C        7.51459642       1.43002210       3.80396953       0.00000000       0.00191187      -0.00056380      -0.00147404
C        6.34070102       3.53261757       4.09120318       0.00000000       0.00189175       0.00203821      -0.00119094
C        5.08855458       5.61064108       3.86045660       0.00000000      -0.00850112       0.00410731       0.00297544
C        3.73707923       7.91639065       3.18186345       0.00000000      -0.00449222      -0.01111050       0.00369795
C        2.55229793      10.04593838       3.36584497       0.00000000      -0.00182032      -0.00176227      -0.00491861
C        9.97285953       1.43437481       3.68186916       0.00000000       0.00098596       0.00263217      -0.00055408
C        8.75606523       3.56804616       3.79250336       0.00000000       0.00006822       0.00119615       0.00374459
C        7.50869552       5.69709069       3.79095104       0.00000000       0.00035388      -0.00275504      -0.00154352
C        6.22425204       7.82152014       3.60222556       0.00000000      -0.00144857      -0.00558083      -0.00068308
C        5.01867957       9.96943119       3.56825820       0.00000000      -0.00214735       0.00028878      -0.00260943
Hf       1.76858131       6.93952208       4.56695124       0.00000000       0.03968607       0.00674942      -0.08149957
O        0.11552923       4.92663221      10.27899441       1.00000000      -0.00672682      -0.00074037       0.01345898
O        2.22855492       5.38732866       5.71666847       1.00000000      -0.01756050       0.01713796       0.08731355
