53
Lattice="12.336457 0.0 0.0 -6.168228499999997 10.683685154694365 0.0 0.0 0.0 15.0" Properties=species:S:1:pos:R:3:forces:R:3 energy=-461.8564333994949 free_energy=-461.8564333994949 stress="-0.00739688250040019 0.0010310973616692518 8.4218075633385e-05 0.0010310973616692518 -0.008793248159614792 -4.5534166457898336e-05 8.4218075633385e-05 -4.5534166457898336e-05 -1.6720592489040878e-05" pbc="T T T"
C       -0.03295952      -0.05391668       3.54173247       0.00414579      -0.01125195       0.02255434
C       -1.26101917       2.08053059       3.50871298      -0.00989463       0.01127387       0.00378885
C       -2.50372204       4.21860210       3.50660895      -0.00146539       0.00560702       0.01684014
C       -3.75177212       6.35366764       3.54932887      -0.00037650       0.00430748      -0.00287272
C       -4.98621364       8.48316502       3.62841149       0.00199334      -0.00962317       0.00412362
C        2.42694442      -0.05247569       3.61976158       0.01558883      -0.01389163      -0.00331065
C        1.17683324       2.04441819       3.99329691       0.00031684       0.01083105       0.00080194
C       -0.14022204       4.15448091       4.20280460      -0.00020848      -0.00187135       0.01722658
C       -1.31818410       6.35311190       3.83894607       0.01032715       0.00597521       0.00552813
C       -2.51501480       8.49009252       3.52446835      -0.00880763       0.01104697      -0.00419963
C        4.88453537      -0.04453322       3.36355210       0.00721493       0.00485031       0.01060594
C        3.71643507       2.02128003       3.92315371      -0.00235996      -0.01732663      -0.01734219
P        2.52251960       4.10076496       5.21275274      -0.02546800      -0.01337053      -0.00786377
P        1.15856756       6.50045647       4.71708907      -0.03727541       0.02935349       0.00385950
C       -0.06875423       8.55097431       3.56548619       0.02018273       0.00874304      -0.01621947
C        7.36225526      -0.02858380       3.21140187      -0.00542537      -0.00784881       0.01344388
C        6.14904135       2.07365311       3.41402668       0.00128326      -0.00328042      -0.01787879
C        5.07443663       4.11644828       4.24962395      -0.00435550      -0.02727160       0.00687748
S        2.59686013       5.56496094       3.54291394       0.03445784      -0.01640503      -0.05830782
C        2.44444863       8.63252876       3.79935058       0.01275138      -0.01195512       0.01651577
C        9.85742049      -0.02631583       3.31665740      -0.00753569      -0.00741668      -0.00642408
C        8.61675840       2.09609390       3.22215350      -0.01384214      -0.00775231      -0.01394855
C        7.39296918       4.21448912       3.49774793       0.00968266       0.01881294       0.01401954
C        6.15082469       6.32016998       3.97036039      -0.01313774       0.00462170      -0.01754017
C        4.88424911       8.52414443       3.82489283      -0.00409926      -0.00195473       0.02187807
C       -0.03765443       1.36145119       3.63946046       0.00286170       0.00837069      -0.00630853
C       -1.29626236       3.48746563       3.70520643      -0.00356760       0.00508617      -0.00816508
C       -2.52560298       5.63892972       3.58754424       0.00627464       0.00915861       0.00677232
C       -3.75307844       7.77837459       3.57059458      -0.00626859      -0.00192498      -0.01746686
C       -4.97449337       9.90992319       3.59726629       0.01575584      -0.01448761      -0.00399898
C        2.43885261       1.35191533       3.86372754      -0.00256176      -0.01127601      -0.02254147
C        1.04539035       3.37484498       4.45573848       0.00866638       0.01835685       0.01039772
C       -0.23950709       5.57603343       4.33242338      -0.00646745      -0.01606834       0.01313044
C       -1.28738701       7.78568475       3.64571758      -0.00292186       0.02396822       0.01643800
C       -2.51356426       9.91936163       3.48610087       0.01137603       0.00304877      -0.01995163
C        4.91349554       1.35988613       3.50485836       0.00909253      -0.00987538       0.02128322
C        3.90492560       3.31234194       4.45642350      -0.00497107       0.00226726      -0.02154273
C        1.17731723       8.00930041       3.89307474       0.01960036      -0.00274651       0.01408006
C       -0.05167978       9.95179122       3.29838127       0.00075304       0.00256143      -0.01453274
C        7.37359001       1.38719972       3.19948696      -0.00839967      -0.01254816       0.00258463
C        6.20285927       3.46716389       3.66988199       0.01919319      -0.00994181      -0.02098873
C        5.12181547       5.51547833       4.49348734       0.00035177      -0.00537827      -0.00137379
C        3.64877503       8.01153241       4.22155621      -0.01832368       0.04062303      -0.00750457
C        2.44257644       9.98434523       3.34055661      -0.00019249      -0.01284456      -0.00324235
C        9.85517865       1.39150731       3.27255536      -0.00800130       0.00075180       0.00349125
C        8.61701485       3.51179155       3.33521563       0.00203512      -0.00350702       0.01553980
C        7.37603626       5.62782062       3.62935746      -0.00236791       0.01654394      -0.01347184
C        6.12065995       7.76762369       3.82546479       0.00712385       0.00981176       0.01394753
C        4.90441962       9.93839824       3.49806082      -0.00626513      -0.01170757       0.00917127
Hf       3.67504053       6.53768874       5.88460416       0.01793225       0.01033185       0.06520913
O        4.61000625       6.89872627       7.52548906      -0.01415214       0.00572992      -0.04157904
O        1.65027502       6.71129416       6.20578909      -0.01279333      -0.02407128       0.01821330
H        4.98009337       6.90156976       8.41773402      -0.00745579       0.01556409       0.00025371
