53
Lattice="12.336457 0.0 0.0 -6.168228499999997 10.683685154694365 0.0 0.0 0.0 15.0" Properties=species:S:1:pos:R:3:forces:R:3 energy=-456.9614455838543 free_energy=-456.9614455838543 stress="-0.0054314475186247185 -0.0016730777238716434 3.776528991270658e-05 -0.0016730777238716434 -0.005021090191340931 2.1707728069335537e-05 3.776528991270658e-05 2.1707728069335537e-05 -1.8895963373922246e-06" pbc="T T T"
C       -0.05926743      -0.13480312       3.82293592      -0.00458707      -0.00594426       0.00804399
C       -1.31990917       1.97979094       3.98211746       0.00623057      -0.00308212      -0.00811818
C       -2.55560622       4.13128379       3.92867227       0.00636446       0.00503113      -0.00477949
C       -3.76748545       6.27610740       3.80836330      -0.00209763      -0.00537859      -0.00473787
C       -4.98052688       8.41952462       3.71336828       0.00236564      -0.00161131       0.00250827
C        2.41127360      -0.14285102       3.93616786      -0.00203008       0.00464256       0.00689434
C        1.15279362       1.96626001       4.22624871      -0.00293091      -0.00691083      -0.00689007
C       -0.11978108       4.10077292       4.15406845      -0.00427008      -0.00363352       0.00611777
C       -1.30433695       6.26561592       3.76629680      -0.00875264      -0.00240619      -0.00336564
C       -2.51060165       8.40253638       3.73544913      -0.00175521      -0.00229630       0.00409146
C        4.87627263      -0.14453631       3.77961268       0.00287200       0.00027421      -0.00306713
C        3.64991009       1.96151492       4.13815138       0.00044724       0.00413362      -0.00141769
P        2.42487321       4.23602492       5.15541206       0.00296127      -0.00565042       0.00133460
S        1.21221837       6.04453354       2.85087353       0.00899832       0.00265469      -0.00844360
C       -0.06746741       8.41284911       3.45875473      -0.00435395      -0.00067927      -0.00232507
C        7.33359951      -0.12270747       3.57134265       0.00322586      -0.00494380      -0.00052497
C        6.10316470       1.99049849       3.84222943      -0.00285229       0.00089664       0.00451446
C        4.88058094       4.11403353       3.96418696      -0.00372412       0.00492303       0.00498635
S        3.88920908       6.13978544       2.24414303       0.01617786       0.00122978      -0.00796331
C        2.41526303       8.49050804       3.06244522       0.00156620       0.00397699       0.00310228
C        9.81018002      -0.11797434       3.59629487      -0.00131788      -0.00462496      -0.00245560
C        8.56124691       2.00052878       3.79886848       0.00297804      -0.00226989       0.00611396
C        7.33207897       4.13860542       3.83489942       0.00321650      -0.00031983       0.00392591
C        6.11470825       6.30062628       3.71385086       0.00276955       0.00341770       0.01018362
C        4.90628926       8.44390955       3.38232996       0.00267780       0.01032339      -0.00102810
C       -0.07857206       1.26921184       4.01786198       0.00001091      -0.00873568      -0.00180639
C       -1.34395553       3.40049323       4.04782495       0.00082813      -0.00339788      -0.00373660
C       -2.54456538       5.55680747       3.86394447      -0.00424188       0.00162470      -0.00095403
C       -3.75289527       7.69857592       3.76033284      -0.00099398      -0.00695130      -0.00017507
C       -4.98926145       9.83771379       3.82146490      -0.00161222       0.00108982       0.00425904
C        2.40544160       1.26495509       4.14211478       0.00214298       0.00464046       0.00408563
C        1.08096346       3.37197080       4.41837563      -0.00233644      -0.00779394      -0.00355225
C       -0.12802743       5.48894994       3.79827636      -0.01397429      -0.00673254      -0.00201235
C       -1.27935085       7.68629763       3.62846480      -0.00271205      -0.00336942       0.00247784
C       -2.52146868       9.82834594       3.81466376      -0.00105894       0.00211690      -0.00372924
C        4.87653899       1.27067903       3.91073987      -0.00049690       0.00197805       0.00286933
C        3.71553326       3.38068060       4.29929802      -0.00160101       0.00334663       0.00050528
C        1.17499354       7.76709601       3.17130796       0.00175371       0.00825978      -0.00053076
C       -0.06332723       9.83739774       3.59061136       0.00383693      -0.00213625       0.00390494
C        7.33191548       1.28976697       3.73521771      -0.00227543      -0.00067779      -0.00422337
C        6.11046338       3.41505534       3.86605341      -0.00167059       0.00307982       0.00422888
C        4.86207889       5.56808206       3.71809704       0.00413688       0.00204286      -0.00201254
C        3.70265643       7.81334730       2.90634999       0.00229417       0.01388202       0.00809503
C        2.40898448       9.88801263       3.40070941       0.00146516      -0.00096818      -0.01405844
C        9.79437502       1.28889655       3.80057276       0.00426957      -0.00531909       0.00039845
C        8.55572934       3.42207748       3.86233162       0.00818589       0.00017397      -0.00030186
C        7.33508599       5.56667345       3.80915194       0.00125756      -0.00423790       0.00581442
C        6.12340519       7.70640554       3.56890380       0.00262475       0.00200313       0.00336795
C        4.88165109       9.85859167       3.60037577      -0.00231043       0.00536420      -0.01110334
Hf       2.98170443       6.74896971       4.70955647      -0.01372910       0.01118465       0.00923968
O        3.36209685       7.80101772       6.16046931      -0.00781280      -0.00037723      -0.00114141
O        3.68155094       8.67899316       7.19425300       0.00582721       0.00582718      -0.01018608
H        3.44184560       8.17930108       8.00384445      -0.00598721      -0.00766941       0.00357698
