51
Lattice="12.336457 0.0 0.0 -6.168228499999997 10.683685154694365 0.0 0.0 0.0 15.0" Properties=species:S:1:pos:R:3:initial_magmoms:R:1:forces:R:3 energy=-440.3457136620132 free_energy=-440.3457136620132 stress="-0.0011169448347284935 -0.0006314953037997658 2.3190819090098976e-05 -0.0006314953037997658 0.0016354618379138914 3.3425576871009734e-05 2.3190819090098976e-05 3.3425576871009734e-05 2.9743244126096843e-05" pbc="T T T"
C       -0.01915021       0.04152545       3.60475185       0.00000000       0.00739251       0.00682427      -0.00564375
C       -1.27091138       2.16090335       3.58308374       0.00000000      -0.00621866      -0.00266752       0.00317191
C       -2.50273722       4.30392849       3.55954275       0.00000000      -0.01146448      -0.01027192      -0.00584323
C       -3.72720779       6.44852821       3.54575875       0.00000000       0.00316541      -0.00861187      -0.00079907
C       -4.94945245       8.59393519       3.57331607       0.00000000      -0.00017035       0.00583057       0.00555392
C        2.45032195       0.08459104       3.63576707       0.00000000       0.00103961      -0.00008831       0.00080923
C        1.18707356       2.22871225       3.75580850       0.00000000       0.00666736      -0.00243109      -0.00298002
C       -0.03673118       4.24549031       3.79975122       0.00000000      -0.00143536       0.00372575      -0.00282871
C       -1.25620535       6.42823481       3.70517861       0.00000000      -0.00002308       0.00105078       0.00118927
C       -2.48765432       8.58685918       3.62198293       0.00000000      -0.00359839       0.00259215       0.00775676
C        4.90506277       0.03993289       3.63640766       0.00000000      -0.00767423      -0.00134612       0.01216633
C        3.70635098       2.18385064       3.66423446       0.00000000       0.00145680      -0.00232908       0.00675729
B        1.19824711       6.43611121       4.13748749       0.00000000       0.00561453       0.01380750      -0.01300866
C       -0.02695163       8.58470278       3.76553896       0.00000000       0.01232914      -0.00288751       0.01152060
C        7.37754179       0.02944244       3.64612360       0.00000000      -0.00068249       0.00806683       0.00662954
C        6.14209535       2.16905278       3.57644011       0.00000000       0.00432291       0.00727139      -0.00456349
C        4.92715296       4.27902726       3.65265643       0.00000000       0.00290304      -0.00104154      -0.01211146
C        3.72769627       6.44089252       4.02410275       0.00000000      -0.00074842       0.00349532       0.00336395
C        2.44970821       8.58429055       3.84584043       0.00000000      -0.00197420      -0.00361165      -0.00693832
C        9.84509092       0.02514865       3.61615021       0.00000000      -0.00756912      -0.00372615       0.00998510
C        8.60408149       2.16655335       3.54113487       0.00000000       0.00251396       0.00763475      -0.00072685
C        7.36987387       4.31391995       3.52643550       0.00000000       0.00401638      -0.00418554      -0.00140925
C        6.13347437       6.43839150       3.57974543       0.00000000       0.00337284      -0.00516249       0.00221199
C        4.92081510       8.57416416       3.67161064       0.00000000      -0.01026481       0.00303926      -0.00680746
C       -0.02776296       1.46537452       3.62778303       0.00000000       0.00313937       0.00372768       0.00335978
C       -1.28511365       3.57269112       3.61359066       0.00000000      -0.01121402      -0.00392563       0.00242752
C       -2.50159354       5.73029944       3.58625649       0.00000000      -0.00044576      -0.01096764      -0.00491936
C       -3.72186818       7.87651344       3.56972579       0.00000000      -0.00177945      -0.00236683       0.00885517
C       -4.94781566      10.02577582       3.60608901       0.00000000       0.00561198       0.00774054      -0.00608215
C        2.45941475       1.52111675       3.69090128       0.00000000       0.00373044      -0.00555847       0.00026860
N        1.11021012       3.55596570       3.96860587       0.00000000       0.00019798      -0.00139104       0.00030629
C       -0.05489127       5.68556924       3.85576797       0.00000000       0.01145062       0.01058534      -0.01118843
C       -1.25656758       7.86621642       3.70091507       0.00000000       0.00425352       0.00426978      -0.00377959
C       -2.49431309      10.02490279       3.62972377       0.00000000      -0.00739745      -0.00003901       0.00406075
C        4.90719291       1.46956984       3.61876376       0.00000000       0.00089548       0.00242350      -0.00280268
O        3.75759303       3.55966242       3.70287160       0.00000000       0.00454271      -0.00311258      -0.01457047
C        1.21614854       7.90707202       3.91751957       0.00000000       0.00938013      -0.00759547       0.00275859
C       -0.02723929      10.00858531       3.67722285       0.00000000       0.00078855       0.00087074      -0.00577091
C        7.36808050       1.45669966       3.57379181       0.00000000       0.00569964       0.01336064      -0.00156779
C        6.13384558       3.59346621       3.56456656       0.00000000       0.00741295       0.00267481       0.00292729
C        4.87923453       5.71364107       3.71120778       0.00000000      -0.00498191      -0.00064415      -0.00591158
C        3.68592651       7.83016397       3.84890032       0.00000000      -0.00827718       0.00309560      -0.00704395
C        2.44705269      10.00051982       3.69279242       0.00000000      -0.00755803      -0.00426868       0.00861483
C        9.83558182       1.44743503       3.55908301       0.00000000      -0.00564672      -0.00266646       0.00590024
C        8.59857182       3.59399812       3.52226092       0.00000000      -0.00611178      -0.00250661      -0.00421382
C        7.36569166       5.73570316       3.52861466       0.00000000       0.00644891      -0.00881773      -0.00016298
C        6.14910888       7.86768106       3.59346327       0.00000000      -0.00333905       0.00071484       0.01660786
C        4.91314845       9.99672086       3.62036154       0.00000000       0.00090935       0.00574265       0.00997081
Hg       2.49361084       5.40127289       5.48504741       0.00000000       0.00376936       0.00205787       0.01074126
O        2.95178930       4.52940593       8.55318996       1.00000000      -0.00423689      -0.00786753      -0.00456671
O        3.22130461       3.96458334       7.46674615       1.00000000      -0.01021365      -0.01051397      -0.01167418
