52
Lattice="12.336457 0.0 0.0 -6.168228499999997 10.683685154694365 0.0 0.0 0.0 15.0" Properties=species:S:1:pos:R:3:forces:R:3 energy=-440.4543851589244 free_energy=-440.4543851589244 stress="-0.0012350959839790953 -0.0039089965275387745 -8.355241623543521e-05 -0.0039089965275387745 0.0006590097949700221 2.7186694200224025e-05 -8.355241623543521e-05 2.7186694200224025e-05 -1.2892867354680342e-05" pbc="T T T"
C        0.00351826      -0.01842311       3.78810970      -0.00272960      -0.00035788       0.00149334
C       -1.25607803       2.10445427       3.79329775       0.00013284       0.00581069       0.00371787
C       -2.47602994       4.25524731       3.78816117      -0.00851955       0.00583055       0.00092924
C       -3.68595452       6.39907106       3.77716421       0.00045794      -0.00194326      -0.00386874
C       -4.91098773       8.54371807       3.79559153       0.00257941      -0.00333766      -0.00095153
C        2.46390135       0.01148491       3.77878552      -0.00118897      -0.00325758       0.00257204
C        1.18290092       2.11653293       3.79876092       0.00150626       0.00671492       0.00447000
C       -0.04129801       4.18776834       3.99161911      -0.00176827      -0.00159744      -0.00104007
C       -1.21179833       6.36468793       3.91539131       0.00154574       0.00335237       0.00484087
C       -2.44611326       8.53154196       3.82820603      -0.00464161       0.00965092      -0.00459517
C        4.93098182      -0.00618927       3.69601042       0.00814075       0.00825669      -0.00890338
C        3.66726792       2.11876589       3.41092140      -0.00626324      -0.00928458      -0.01265022
B        1.18702932       6.41167776       4.39872494      -0.00453569      -0.00152135      -0.00077601
C        0.01327136       8.53304301       3.88958850      -0.00253241      -0.01405643       0.00148196
C        7.39851072      -0.01378469       3.70825083      -0.01378845      -0.00514148       0.00165157
C        6.14956418       2.13618793       3.52140051       0.00386110       0.00467309       0.00131641
C        4.95574859       4.32509559       3.34947477       0.00191374      -0.00438594       0.00962310
N        3.75911294       6.42299065       3.65866925       0.00074422      -0.00700498       0.00435194
C        2.48477826       8.52030437       3.84752630       0.00526530       0.00720782       0.00556260
C        9.86425012      -0.02476902       3.74116517      -0.00222321       0.00121874      -0.00302962
C        8.61940690       2.12143202       3.68468675       0.00018563      -0.00684888      -0.00693952
C        7.39927058       4.27021590       3.63771162      -0.00397228       0.00294833       0.00483556
C        6.19366585       6.42684946       3.67566523      -0.00445474       0.00733082      -0.00548687
C        4.95437368       8.53062507       3.75468079      -0.00049563      -0.00155501       0.00327121
C       -0.01512639       1.40728264       3.79909051       0.00199669       0.00590979      -0.00418974
C       -1.25196726       3.51925864       3.84502650      -0.00721222       0.00544145       0.00504965
C       -2.45887127       5.67431973       3.81753169       0.00368460       0.00532909      -0.00439752
C       -3.67929562       7.82419103       3.80698749       0.00142710      -0.00292576      -0.00165028
C       -4.92467435       9.97068695       3.80587467      -0.00154666      -0.00547388       0.00287749
C        2.43558634       1.44131959       3.68463301      -0.00635632      -0.00589234      -0.00012729
O        1.14274763       3.47615482       4.04553913       0.00700270       0.00862696      -0.00299023
C       -0.01326940       5.59930638       4.05219815      -0.00218846      -0.00393998       0.00430577
C       -1.20971289       7.80256736       3.88885276      -0.00763937       0.00115089       0.00345826
C       -2.46401161       9.96507984       3.77383359       0.00687899       0.01211906      -0.00140662
C        4.91517272       1.42429615       3.52930836       0.00342629       0.01077492       0.00063356
P        3.57610109       3.64109139       2.56483795       0.00639383      -0.00454141       0.00228288
C        1.25917837       7.84311940       4.01379724       0.00795983      -0.00223022       0.00556445
C       -0.00235986       9.96330074       3.75632207      -0.00635339      -0.01502453      -0.00298132
C        7.38495716       1.41510877       3.63125468      -0.00360938      -0.00502936       0.00291393
C        6.15561708       3.56947340       3.49808624       0.00500537       0.00093447      -0.01222622
C        4.93820626       5.76245320       3.54196158      -0.00032732      -0.00283236      -0.00238313
C        3.73159433       7.77755795       3.75732380       0.00271655      -0.00493897      -0.00354206
C        2.46988127       9.94483318       3.74957885      -0.00704054       0.00848020       0.01497276
C        9.85605652       1.40273044       3.73688083       0.00417476      -0.00008754      -0.00916618
C        8.62299814       3.54953173       3.70001878      -0.00601273      -0.00213107      -0.00358276
C        7.41368786       5.69478644       3.69585986      -0.00702811       0.00508639      -0.00085838
C        6.19426862       7.83687989       3.75096528       0.00052167       0.00547097       0.00040732
C        4.93561361       9.94908340       3.76917527      -0.00450679      -0.00170398      -0.00521989
Hg       2.23486162       5.65573450       6.08877213       0.00732733      -0.00778213       0.00830254
O        3.09679369       4.96129196       7.87467621       0.01101348       0.00452190       0.00714259
O        2.20549605       5.49818631       8.91940653       0.01673580      -0.00968884      -0.00148141
H        2.83399385       6.11570629       9.33940982       0.00433704      -0.00232621      -0.00358476
