51
Lattice="12.336457 0.0 0.0 -6.168228499999997 10.683685154694365 0.0 0.0 0.0 15.0" Properties=species:S:1:pos:R:3:initial_magmoms:R:1:forces:R:3 energy=-436.19446652030933 free_energy=-436.19446652030933 stress="-0.0008808306098408245 -0.0037485118003926284 1.0184346543215472e-05 -0.0037485118003926284 0.0014923484930098709 -9.703672970810577e-06 1.0184346543215472e-05 -9.703672970810577e-06 -1.580250271816235e-05" pbc="T T T"
C       -0.04643561       0.01932939       3.68717229       0.00000000       0.00138049      -0.00035463       0.00239636
C       -1.30574582       2.14219886       3.69812581       0.00000000       0.00489542      -0.00085071       0.00275247
C       -2.52591276       4.29201193       3.70658858       0.00000000      -0.00354736       0.00142548       0.00055299
C       -3.73477581       6.43597082       3.68705241       0.00000000      -0.00039573      -0.00200510       0.00229951
C       -4.96064470       8.58083106       3.69700747       0.00000000       0.00384820      -0.00094319      -0.00086469
C        2.41411302       0.04904459       3.69097467       0.00000000      -0.00122377       0.00401210      -0.00268086
C        1.13393178       2.15643354       3.69873358       0.00000000       0.00295975       0.00087263       0.00420819
C       -0.09128842       4.22630177       3.93025360       0.00000000      -0.00171435      -0.00174955       0.00099808
C       -1.26301622       6.40174314       3.87601845       0.00000000       0.00117969       0.00174454      -0.00026676
C       -2.49642180       8.56944686       3.76093745       0.00000000      -0.00460943       0.00069057      -0.00195817
C        4.88280481       0.02939956       3.61514906       0.00000000       0.00102960      -0.00266535      -0.00492534
C        3.61908433       2.15105131       3.30061012       0.00000000      -0.00180116       0.00128481       0.00453606
B        1.12685019       6.45233421       4.42857980       0.00000000       0.00152755       0.00352390      -0.00102840
C       -0.03630759       8.56689676       3.84471133       0.00000000       0.00030955       0.00224021      -0.00180348
C        7.34865007       0.01885512       3.62497602       0.00000000       0.00041619       0.00098609      -0.00251804
C        6.10211549       2.17013655       3.41461224       0.00000000      -0.00405267       0.00059935      -0.00334995
C        4.91145820       4.35887777       3.20970072       0.00000000       0.00207057      -0.00143307       0.00207618
N        3.71666345       6.45946246       3.50674743       0.00000000      -0.00228459      -0.00288908       0.00015117
C        2.43363355       8.54843798       3.76652755       0.00000000      -0.00132510      -0.00011374      -0.00260922
C        9.81337919       0.00932389       3.63994059       0.00000000      -0.00225920      -0.00278868       0.00270422
C        8.57032064       2.15630256       3.58268158       0.00000000      -0.00049458      -0.00368027       0.00206979
C        7.35139203       4.30609852       3.52441544       0.00000000       0.00245308       0.00296283       0.00039827
C        6.14727022       6.46396699       3.54525623       0.00000000       0.00171358       0.00239144       0.00226586
C        4.90528653       8.56710010       3.63966696       0.00000000       0.00103648       0.00003963       0.00290861
C       -0.06469558       1.44563439       3.69949181       0.00000000       0.00578748      -0.00019642       0.00338181
C       -1.30183516       3.55692726       3.76711592       0.00000000      -0.00311141       0.00051892       0.00105788
C       -2.50880973       5.71118053       3.74731480       0.00000000      -0.00059268       0.00071520       0.00089366
C       -3.72876401       7.86144405       3.72203254       0.00000000      -0.00075191      -0.00383736       0.00068748
C       -4.97485758      10.00807103       3.71248318       0.00000000       0.00187999       0.00004311      -0.00595534
C        2.38651274       1.47823727       3.58539057       0.00000000      -0.00047195       0.00259000      -0.00230906
O        1.09489812       3.51493525       3.94536795       0.00000000      -0.00149094      -0.00212448       0.00176734
C       -0.06457599       5.63685139       4.03164016       0.00000000       0.00217610      -0.00104328       0.00033428
C       -1.26084762       7.83926743       3.84495700       0.00000000      -0.00154836       0.00361525      -0.00284935
C       -2.51320255      10.00261011       3.69697643       0.00000000      -0.00241523       0.00152603      -0.00180813
C        4.86772855       1.45851024       3.42968095       0.00000000      -0.00323443      -0.00228342      -0.00139010
P        3.52862218       3.66496793       2.43924234       0.00000000       0.00015644      -0.00303129       0.00153769
C        1.20989959       7.87491058       3.97792987       0.00000000      -0.00087971       0.00293940       0.00248955
C       -0.05207624       9.99679405       3.68660960       0.00000000       0.00345942       0.00039839       0.00003654
C        7.33621788       1.44840598       3.53339190       0.00000000      -0.00358202       0.00028779      -0.00098979
C        6.10917108       3.60394676       3.37424703       0.00000000       0.00319982       0.00223793       0.00025312
C        4.89250598       5.79876832       3.39310314       0.00000000       0.00106031      -0.00043928       0.00088058
C        3.68272411       7.81087824       3.63780803       0.00000000      -0.00127919      -0.00109726       0.00030479
C        2.41951007       9.97640149       3.66188377       0.00000000      -0.00284738      -0.00118394       0.00092712
C        9.80654893       1.43818784       3.63566858       0.00000000       0.00316901      -0.00283146      -0.00062389
C        8.57404033       3.58538714       3.59964543       0.00000000      -0.00115754      -0.00175316      -0.00265456
C        7.36585652       5.73142848       3.58290045       0.00000000       0.00126993       0.00186760      -0.00347482
C        6.14538060       7.87346293       3.63391526       0.00000000       0.00353039       0.00162717       0.00292233
C        4.88573699       9.98518291       3.66383456       0.00000000      -0.00082043      -0.00030372      -0.00327013
Hg       2.24980012       5.70440326       6.09988330       0.00000000       0.00270372      -0.00677109      -0.01798033
O        3.53015706       4.73984631       9.44008958       1.00000000      -0.00238350       0.00355020      -0.00191949
O        3.83204892       4.44523046       8.27296243       1.00000000      -0.00293810       0.00167894       0.01943797
