52
Lattice="12.336457 0.0 0.0 -6.168228499999997 10.683685154694365 0.0 0.0 0.0 15.0" Properties=species:S:1:pos:R:3:forces:R:3 energy=-437.38869756388624 free_energy=-437.38869756388624 stress="-0.0017132439380819478 0.0008309926037140353 6.995705812733409e-05 0.0008309926037140353 -0.0048456172457649535 4.717415592885451e-05 6.995705812733409e-05 4.717415592885451e-05 4.725614411806823e-05" pbc="T T T"
C        0.01065258      -0.01547217       3.77036526      -0.00319796      -0.00282567       0.00676943
C       -1.22602260       2.11630835       3.49892355      -0.00009476      -0.00787852       0.00651744
C       -2.49461514       4.26051030       3.56042879       0.00599214       0.00014286       0.00913527
C       -3.71945435       6.38777133       3.76152486      -0.00190339       0.00027585       0.00457458
C       -4.93993731       8.51699326       3.88910136       0.00377078       0.01194330       0.00485339
C        2.47460157      -0.02230308       3.78931389      -0.00326750       0.00297976       0.00161283
C        1.26038871       2.03390187       3.31255119       0.00027574      -0.00131165       0.00503002
C       -0.11374498       4.26666694       3.08863602      -0.00529374       0.00563995      -0.00620998
C       -1.24589675       6.39745247       3.54265856       0.00636950      -0.00183719      -0.01109441
C       -2.45796688       8.51698229       3.78710254       0.00648724       0.00225351      -0.00031399
C        4.93624376      -0.01782042       3.81595330       0.00214946       0.00481943      -0.00106800
C        3.71941919       2.15089677       3.75470210      -0.00508537       0.00544687       0.00380816
S        1.52380683       6.30668328       3.12383790      -0.01301121       0.00590528      -0.00139508
C        0.01058069       8.53060009       3.73885104       0.00080522      -0.00889365      -0.00496690
C        7.40231116       0.00304909       3.84895405       0.00697106      -0.00708953      -0.00315365
C        6.17261210       2.11928249       3.79090858      -0.00229401       0.00049964       0.01633005
C        4.89361638       4.19619619       3.91426075       0.00869113       0.00010045      -0.00615429
B        3.69403453       6.41388450       4.41994683       0.00085328       0.01090174      -0.00580725
C        2.47687239       8.59044351       3.98156356      -0.00088568      -0.00702200      -0.01172194
C        9.88647051       0.01405011       3.85687169       0.00114515       0.00369423      -0.00171325
C        8.63978139       2.12977814       3.71383064      -0.01246915       0.01067905       0.00807095
C        7.38327535       4.25431218       3.76792286       0.00446994      -0.00451412       0.00103044
C        6.13911178       6.37110448       3.95543630       0.00483019      -0.00128416       0.00051797
C        4.93519602       8.54617822       4.03146528       0.00267546      -0.00395814      -0.00419281
C        0.01000680       1.40028066       3.52825241       0.00092196      -0.00846123      -0.00455071
C       -1.27184069       3.53060042       3.37543906       0.00255601      -0.00448744       0.00135843
C       -2.48859047       5.68020679       3.61914879       0.00294182      -0.00042539      -0.00251630
C       -3.70494181       7.80881969       3.81806805       0.00223266       0.00805979       0.00415412
C       -4.93080989       9.94694377       3.82729017      -0.00307390       0.00830615      -0.00369067
C        2.47913337       1.39708805       3.63963756       0.00096658      -0.00106177      -0.00631862
S        1.32878363       3.53093718       2.46614785      -0.00547109      -0.00258130       0.00152273
C       -0.08125520       5.65299967       3.25963917       0.01044441       0.00700733      -0.00828659
C       -1.22343557       7.81320567       3.68530828       0.00513448      -0.00833441      -0.00414697
C       -2.46047211       9.94470892       3.82187585      -0.00007405       0.00445712      -0.00031688
C        4.94215305       1.40695279       3.79790193      -0.00421165       0.00604384       0.00393780
N        3.73585340       3.49155162       3.88889054       0.00489145       0.00589322       0.00236206
C        1.27136533       7.89329959       3.72039949      -0.00316665      -0.00502879      -0.00202164
C        0.00625471       9.96200247       3.82618449       0.00426462      -0.00614886      -0.01332789
C        7.40846482       1.41989908       3.78800516      -0.00508025      -0.00122622       0.00661683
C        6.16424498       3.52749530       3.80751012       0.00702249      -0.00149456       0.00882602
C        4.92015415       5.62928537       4.04971635       0.00351959       0.00112908       0.00613370
C        3.68909150       7.88379587       4.13098596      -0.00270705       0.00177076      -0.00289943
C        2.47386396      10.00795161       3.92354075       0.00763714      -0.00755731      -0.00085895
C        9.88686314       1.42585578       3.69421375      -0.01195000       0.00688746       0.00195027
C        8.62003778       3.54717703       3.67639376       0.00242417       0.00690589       0.00855156
C        7.38444350       5.67469227       3.82006439       0.00134670      -0.00766576      -0.00322335
C        6.15885166       7.80681531       3.97966988       0.00811749       0.00129638       0.00019421
C        4.94539089       9.97733974       3.89542591      -0.00019203      -0.00318476       0.01315771
Hg       2.77090423       5.78177993       6.24697583      -0.01314931      -0.00064412       0.00196899
O        2.06258191       5.13357560       8.11693844      -0.00524066      -0.00271590      -0.00743860
O        2.60468951       6.13560153       9.04607632      -0.00534243      -0.00713872      -0.00301643
H        3.24575053       5.57027961       9.51916702      -0.01274605      -0.00826776      -0.00858039
