51
Lattice="12.336457 0.0 0.0 -6.168228499999997 10.683685154694365 0.0 0.0 0.0 15.0" Properties=species:S:1:pos:R:3:initial_magmoms:R:1:forces:R:3 energy=-429.53731635763194 free_energy=-429.53731635763194 stress="-0.001850139789331727 0.0021411712126913674 -1.1787398204405123e-05 0.0021411712126913674 -0.006076900107171116 -9.935197301700033e-06 -1.1787398204405123e-05 -9.935197301700033e-06 2.7198177348209506e-06" pbc="T T T"
C        0.00838908      -0.01517699       3.68233279       0.00000000      -0.00023546       0.00068228       0.00856249
C       -1.20424686       2.14699412       3.58286449       0.00000000      -0.00321555       0.00530438      -0.00295460
C       -2.45593555       4.28028351       3.79881366       0.00000000       0.00150237       0.00086293       0.00347208
C       -3.69803377       6.40202628       3.88570392       0.00000000       0.00197100       0.00591790       0.00406974
C       -4.94422412       8.52297760       3.84287173       0.00000000       0.00107216      -0.00109085      -0.00394333
C        2.47466835      -0.04225352       3.57332679       0.00000000       0.00709679      -0.00222308       0.00602394
C        1.24245810       2.03170662       3.15111735       0.00000000       0.00126754       0.00339734       0.00039514
C       -0.05225588       4.32587170       3.50187452       0.00000000       0.00158349       0.00263477       0.00367662
C       -1.21536727       6.40989964       3.95882414       0.00000000      -0.00037657       0.00030800       0.01306822
C       -2.46470436       8.53467937       3.89571872       0.00000000       0.00080802      -0.00176002       0.00437860
C        4.94104035      -0.01034447       3.68373388       0.00000000      -0.00133137       0.00379765       0.00982648
C        3.74104224       2.00090455       2.99835254       0.00000000       0.00294448       0.00094775       0.00466219
B        1.37062453       6.40369575       4.15036986       0.00000000       0.00181422      -0.00980756       0.00020518
C       -0.00332568       8.57333741       4.01175914       0.00000000      -0.01050445       0.00574190       0.00889640
C        7.40031049       0.03656863       3.84216435       0.00000000       0.00045738      -0.00266628      -0.00645043
C        6.18927625       2.12547384       3.45093173       0.00000000      -0.00282700      -0.00132026       0.00131668
C        5.06690186       4.27113859       3.10285424       0.00000000      -0.00297318      -0.00051919      -0.00436750
P        3.34328331       6.19758327       3.98195113       0.00000000       0.00523392      -0.01025058      -0.00783384
C        2.45465379       8.64077539       4.06667212       0.00000000       0.00050438       0.00059783      -0.00670258
C        9.88981111       0.03122916       3.83859900       0.00000000       0.00310034       0.00503144      -0.00096865
C        8.65602321       2.15164783       3.71884261       0.00000000      -0.00283987      -0.00960211      -0.00302181
C        7.42517688       4.27109098       3.67604358       0.00000000       0.00481869      -0.00271787      -0.00145369
C        6.15572842       6.38561912       3.75498768       0.00000000      -0.00723634      -0.00263104       0.00157989
C        4.93067816       8.54794725       3.92483588       0.00000000       0.00337330       0.00069234       0.00874642
C        0.01889196       1.41070457       3.48221670       0.00000000      -0.00272145       0.00204457      -0.00057697
C       -1.22870230       3.56376003       3.63705341       0.00000000      -0.00060627       0.00547750      -0.00766131
C       -2.45603692       5.69882620       3.89722215       0.00000000       0.00183719       0.00434358      -0.00137035
C       -3.70317187       7.82228218       3.88848400       0.00000000       0.00141290       0.00336041       0.00531196
C       -4.93322548       9.94604555       3.71604765       0.00000000       0.00276645      -0.00220254      -0.00244762
C        2.48665901       1.34702929       3.21195377       0.00000000       0.00307022       0.00058817       0.00137614
S        1.23001985       3.65999952       2.59122682       0.00000000      -0.00113904       0.00667621      -0.00173999
C        0.02452683       5.68745939       3.87535389       0.00000000      -0.00365561      -0.00120383       0.00737443
C       -1.23231762       7.83708623       3.98857078       0.00000000      -0.00466402      -0.00180790       0.00005850
C       -2.46062935       9.95162452       3.73329815       0.00000000       0.00547836      -0.00388345       0.00239556
C        4.95347464       1.39510163       3.38588451       0.00000000      -0.00008165       0.00068371       0.00317566
S        3.89724685       3.48432838       2.09964048       0.00000000       0.00056907      -0.00668382       0.00306791
C        1.24053328       7.92168332       4.09780978       0.00000000      -0.00684628       0.00395184       0.00316283
C        0.00125850       9.99628029       3.87165618       0.00000000      -0.00394217       0.00453640      -0.00291609
C        7.40809193       1.44514004       3.68254727       0.00000000      -0.00439881      -0.00612152      -0.00240590
C        6.22357908       3.54045697       3.40377602       0.00000000      -0.00145164      -0.00018750      -0.00104859
C        4.94918321       5.61786869       3.52668818       0.00000000      -0.00846399      -0.00317215      -0.00126006
C        3.67142177       7.91239866       4.04855108       0.00000000       0.00426520      -0.00280619      -0.00185898
C        2.47310094      10.04520593       3.94504344       0.00000000       0.00506616       0.00414673      -0.00358489
C        9.90131113       1.44841416       3.72617942       0.00000000      -0.00022529       0.00203353      -0.00932027
C        8.65387511       3.56612993       3.74677425       0.00000000       0.00488371      -0.00907715      -0.00124107
C        7.40313698       5.69074741       3.77952473       0.00000000      -0.00009578       0.00323959      -0.00750215
C        6.15411842       7.81039061       3.86546390       0.00000000      -0.00042058      -0.00203478      -0.00744503
C        4.94293046       9.97879932       3.83787786       0.00000000      -0.00094499       0.00111648      -0.00685680
Hg       2.33580729       5.63506010       6.14923667       0.00000000      -0.00199666       0.00202775      -0.01906464
O        1.99493680       5.83135940       8.93134202       1.00000000       0.00119121       0.00034562      -0.00592290
O        2.14808326       4.79087810       8.15438725       1.00000000       0.00510544       0.00328106       0.01711699
