52
Lattice="12.336457 0.0 0.0 -6.168228499999997 10.683685154694365 0.0 0.0 0.0 15.0" Properties=species:S:1:pos:R:3:initial_magmoms:R:1:forces:R:3 energy=-448.53356269291464 free_energy=-448.53356269291464 stress="-0.004158014862935233 0.00157082117420023 1.1625455842257317e-05 0.00157082117420023 -0.0019862038690577235 -2.742776790049079e-06 1.1625455842257317e-05 -2.742776790049079e-06 8.21259943740052e-06" pbc="T T T"
C       -0.01116841      -0.00887520       3.62847239       0.00000000      -0.00000792       0.00089185       0.00268105
C       -1.24292534       2.12505709       3.71855664       0.00000000       0.00261631       0.00204699       0.00357012
C       -2.47166627       4.26268155       3.70767801       0.00000000       0.00222018      -0.00076071       0.00181183
C       -3.70556676       6.40002952       3.60128275       0.00000000      -0.00004266       0.00298471       0.00021067
C       -4.95771087       8.53368738       3.53127567       0.00000000      -0.00382044       0.00047036      -0.00326621
C        2.45316748      -0.00308307       3.68227024       0.00000000      -0.00229169      -0.00240928      -0.00195966
C        1.22119800       2.13381521       3.77347748       0.00000000      -0.00321989       0.00249292       0.00000581
C       -0.02133478       4.26585127       3.87063003       0.00000000       0.00216880       0.00277811       0.00442434
C       -1.25320331       6.40970998       3.78440362       0.00000000       0.00245141      -0.00154611       0.00440104
C       -2.48895024       8.54268280       3.67951909       0.00000000      -0.00307477      -0.00164243       0.00251237
C        4.92570966      -0.01312884       3.73722041       0.00000000       0.00280779       0.00205560       0.00191080
C        3.70187816       2.13489950       3.75728814       0.00000000       0.00054804      -0.00232666      -0.00387624
B        2.47828252       4.32834757       4.03391398       0.00000000      -0.00269917      -0.00110904      -0.00381668
C        1.17397154       6.42794425       4.17992985       0.00000000      -0.00115792      -0.00171322       0.00046128
C       -0.01671735       8.53114764       3.80415660       0.00000000      -0.00057293       0.00025110       0.00076968
C        7.39449898      -0.01787193       3.76395713       0.00000000      -0.00320861       0.00380050      -0.00084927
C        6.17683498       2.10948404       3.71905809       0.00000000       0.00205552      -0.00298637      -0.00127642
C        4.96679583       4.23848118       3.57742421       0.00000000       0.00407119      -0.00136198      -0.00203320
S        3.52153609       6.28489024       2.67880042       0.00000000      -0.00149087      -0.00562072      -0.00711460
C        2.45308302       8.53247461       3.68775741       0.00000000      -0.00221521       0.00052500      -0.00334394
C        9.86256434      -0.01557771       3.67228509       0.00000000      -0.00194561      -0.00086104       0.00198435
C        8.63588429       2.11998390       3.71101119       0.00000000      -0.00304029      -0.00029798       0.00215934
C        7.41579722       4.25627914       3.61440698       0.00000000      -0.00079351       0.00111531      -0.00292003
C        6.16758029       6.39197044       3.39572306       0.00000000       0.00182190       0.00157246      -0.00250657
C        4.91515498       8.53040235       3.43744055       0.00000000       0.00324229      -0.00058362      -0.00260370
C       -0.01163683       1.41350623       3.70736580       0.00000000       0.00063666       0.00160620       0.00347226
C       -1.24779515       3.55028426       3.76121442       0.00000000       0.00403989       0.00104769       0.00308289
C       -2.47357230       5.69030185       3.69376803       0.00000000       0.00169662       0.00161452       0.00235881
C       -3.71665302       7.82600521       3.59477661       0.00000000      -0.00679595       0.00248855       0.00448107
C       -4.94840399       9.96321967       3.60771274       0.00000000      -0.00320406      -0.00060378       0.00325929
C        2.45760207       1.42177363       3.74880773       0.00000000      -0.00331265      -0.00001340      -0.00220161
C        1.19088040       3.55618691       3.87579300       0.00000000      -0.00198225       0.00222826       0.00228327
C       -0.00599383       5.70466450       3.93755785       0.00000000       0.00292794      -0.00132358       0.00011632
C       -1.25557471       7.82920610       3.76011400       0.00000000      -0.00065448      -0.00217750       0.00554735
C       -2.48268645       9.96486929       3.69710719       0.00000000       0.00107348      -0.00139707       0.00029221
C        4.93734912       1.40589573       3.73629846       0.00000000       0.00383339      -0.00001770       0.00036100
C        3.74162511       3.55571197       3.75512419       0.00000000       0.00273703      -0.00160457      -0.00518844
C        1.21927229       7.79590625       3.87661391       0.00000000      -0.00121273      -0.00352937      -0.00137691
C       -0.00975158       9.95484682       3.76530488       0.00000000       0.00141911       0.00233584       0.00274318
C        7.40449422       1.40188780       3.73625371       0.00000000      -0.00249207       0.00132992      -0.00107205
C        6.19824676       3.53051567       3.64153573       0.00000000       0.00308673      -0.00379530      -0.00044293
C        4.98788025       5.62819487       3.30143336       0.00000000       0.00138600       0.00134849      -0.00428998
C        3.65718027       7.87464791       3.35772203       0.00000000       0.00056327       0.00148524      -0.00342126
C        2.45993537       9.95610401       3.72510923       0.00000000      -0.00546353       0.00147512       0.00055366
C        9.86466256       1.40989706       3.70293244       0.00000000      -0.00059428       0.00102388       0.00428694
C        8.64160570       3.54464357       3.67727862       0.00000000      -0.00084468      -0.00101771       0.00121033
C        7.40805894       5.68050640       3.53756301       0.00000000       0.00093748       0.00164895       0.00192975
C        6.14818148       7.81868807       3.41446636       0.00000000       0.00330194      -0.00169367      -0.00223074
C        4.92277626       9.95878688       3.58606072       0.00000000       0.00129773      -0.00122749       0.00271899
Hg       2.46735911       5.66663307       5.78047437       0.00000000       0.01782045       0.00111916      -0.00888927
O        2.17659135       5.93595523       8.57113437       1.00000000       0.00299800       0.00003386      -0.00849075
O        3.25770168       5.89854226       7.85370763       1.00000000      -0.01762096      -0.00015029       0.00757042
