51
Lattice="12.336457 0.0 0.0 -6.168228499999997 10.683685154694365 0.0 0.0 0.0 15.0" Properties=species:S:1:pos:R:3:initial_magmoms:R:1:forces:R:3 energy=-429.30135832586575 free_energy=-429.30135832586575 stress="-0.0018698719016758403 0.00018835746188845684 1.6648034292681908e-05 0.00018835746188845684 -0.009133614086556349 -1.4803988267207103e-06 1.6648034292681908e-05 -1.4803988267207103e-06 -3.191611307767922e-05" pbc="T T T"
C       -0.06829610      -0.04038878       3.59099213       0.00000000      -0.00018569       0.00458470       0.00781699
C       -1.29348943       2.11287104       3.42139894       0.00000000       0.00266012      -0.00430750       0.00113247
C       -2.55028229       4.25213735       3.45706479       0.00000000       0.00390959      -0.00589808      -0.00806490
C       -3.77853268       6.37769273       3.59472190       0.00000000       0.00384140       0.00005858       0.00906677
C       -5.00842865       8.49961508       3.67259600       0.00000000       0.00401621       0.00832595       0.00550778
C        2.39835530      -0.07836432       3.66857306       0.00000000       0.00114921       0.00551892       0.01026717
C        1.19537750       2.01495486       3.38471381       0.00000000      -0.00087687      -0.00006098      -0.00909419
C       -0.15424008       4.26457779       3.01625532       0.00000000      -0.00113579      -0.00125368      -0.01751686
C       -1.32327956       6.39807955       3.26139710       0.00000000      -0.01107399       0.00040271       0.00613057
C       -2.52462847       8.50156553       3.53935067       0.00000000       0.00067571       0.00623644       0.00236564
C        4.86663353      -0.03314012       3.72564572       0.00000000       0.00110973      -0.00314147       0.00114237
C        3.60543346       2.04553761       4.00906957       0.00000000      -0.00358553      -0.00596540       0.00368944
S        1.37612618       6.37871930       2.59643619       0.00000000       0.01613307       0.00890550       0.00382088
C       -0.06674746       8.54232178       3.41789670       0.00000000      -0.00049362       0.00169016       0.00101581
C        7.32724342       0.00303367       3.67979778       0.00000000       0.01081929      -0.00565076       0.01060693
C        6.09769653       2.11509318       3.92190232       0.00000000      -0.00716949       0.00614313      -0.00131915
C        4.91965542       4.27011408       4.27115238       0.00000000      -0.00918244      -0.00386472      -0.00661380
B        3.66112907       6.48505482       4.52112962       0.00000000       0.00601763       0.00295187      -0.00585296
C        2.39784017       8.57765191       3.67164307       0.00000000       0.00087564      -0.01635198       0.00718358
C        9.80998829       0.00231416       3.65700505       0.00000000      -0.00106689      -0.00173084      -0.00371394
C        8.56731217       2.12573656       3.66180736       0.00000000      -0.00011051       0.00861308       0.00679677
C        7.33459391       4.24958196       3.80333909       0.00000000      -0.00385854       0.00157432      -0.00150210
C        6.11030318       6.39051730       3.92557654       0.00000000      -0.00422307      -0.00981494      -0.00260098
C        4.86043521       8.53137692       3.81331643       0.00000000      -0.00204138      -0.00045558       0.00993409
C       -0.06366360       1.38699443       3.44862056       0.00000000       0.00140607      -0.00091109      -0.01487212
C       -1.31922043       3.52846940       3.30100149       0.00000000       0.00555656      -0.00702112       0.00244737
C       -2.55119604       5.67146263       3.43668833       0.00000000      -0.00523239      -0.00711527      -0.00700323
C       -3.77109492       7.79475094       3.59787252       0.00000000       0.00265677       0.00445377      -0.00692393
C       -5.00956927       9.91628338       3.62944026       0.00000000       0.00178630       0.01093836      -0.00432630
C        2.39746967       1.33195125       3.71656792       0.00000000      -0.00166041       0.00090537      -0.00644748
S        1.40227668       3.56027867       2.68674896       0.00000000       0.01509157       0.00254232      -0.00520140
C       -0.15801342       5.66070372       2.98765936       0.00000000      -0.01191091       0.00076289      -0.00552362
C       -1.29388077       7.81281136       3.37920363       0.00000000      -0.00361193       0.00468685       0.00357788
C       -2.52494528       9.91755180       3.65708386       0.00000000      -0.00093681       0.00385262       0.00327947
C        4.86409429       1.38782627       3.91768892       0.00000000      -0.00464925      -0.00416668      -0.00178378
P        3.45284614       3.54828937       4.87810522       0.00000000       0.00237780       0.01049783      -0.01145327
C        1.19239694       7.91300923       3.32069826       0.00000000      -0.00218480      -0.00159040       0.00954934
C       -0.06885269       9.96222127       3.62475611       0.00000000       0.00591161       0.00140176      -0.00967768
C        7.32966913       1.42075368       3.76169694       0.00000000      -0.00153819       0.00474402      -0.01083382
C        6.11266986       3.53168034       4.00345376       0.00000000      -0.00894704       0.00535010       0.00861878
C        4.90842822       5.68506680       4.22046035       0.00000000      -0.01153632      -0.00547253      -0.01110431
C        3.60859860       7.86669747       3.93341603       0.00000000       0.00003462      -0.00679957       0.00383854
C        2.39675696       9.99606203       3.67334982       0.00000000       0.00677492      -0.01846841       0.00323922
C        9.81245701       1.42117717       3.57839316       0.00000000      -0.00122340       0.00152623      -0.00179323
C        8.56058251       3.54394539       3.64100524       0.00000000       0.00013555       0.00749373       0.00306898
C        7.33405697       5.67143472       3.76892125       0.00000000       0.00385443      -0.00418798       0.00143822
C        6.09523958       7.80455408       3.80965319       0.00000000       0.00182832      -0.00293661       0.00704913
C        4.86633147       9.95572776       3.66973104       0.00000000      -0.00003611       0.00200830       0.01151019
Hg       2.35507376       6.03105617       6.19179861       0.00000000       0.00122800      -0.00031428      -0.00701335
O        3.60200216       5.94737744       9.37139476       1.00000000       0.01202857       0.00048714       0.00322963
O        4.80009603       5.87710208       9.06469588       1.00000000      -0.01340732       0.00082324       0.01291242
