52
Lattice="12.336457 0.0 0.0 -6.168228499999997 10.683685154694365 0.0 0.0 0.0 15.0" Properties=species:S:1:pos:R:3:forces:R:3 energy=-442.25039799345893 free_energy=-442.25039799345893 stress="7.784067172413625e-05 0.002146190184301957 -2.3273113245765086e-05 0.002146190184301957 0.0058627467751151 1.8831312385317022e-05 -2.3273113245765086e-05 1.8831312385317022e-05 2.4557121367837373e-05" pbc="T T T"
C        0.11499667       0.06920083       3.81503337       0.00216570       0.00024277       0.00047146
C       -1.11903337       2.19142211       3.72090183      -0.00480229       0.00885322       0.00100945
C       -2.34381930       4.32747711       3.66504752      -0.00120367      -0.00489297       0.00972890
C       -3.58852169       6.46467429       3.72969619       0.00997793      -0.00652836      -0.00820723
C       -4.83170923       8.60859756       3.82379978      -0.00836283       0.00011893      -0.00054465
C        2.57802432       0.11427703       3.79513470       0.01082961       0.00371854       0.00352858
C        1.33425917       2.28766561       3.80058119      -0.00709394      -0.00198906      -0.00509243
C        0.13808284       4.32705892       3.68964251      -0.00551911       0.00208042      -0.00110851
C       -1.11720439       6.46216764       3.66786685       0.00761332       0.00481212       0.00103195
C       -2.36449134       8.60922498       3.73453074      -0.00385119      -0.01298818      -0.00620793
C        5.04101250       0.05319774       3.74036344      -0.00377453      -0.00207649       0.00341633
C        3.85361560       2.20178505       3.83383026       0.00491553      -0.00049499       0.00870696
O        1.26962218       6.49129070       3.67118626      -0.00490971       0.00025711       0.01174261
C        0.10065569       8.58136053       3.72907056       0.00966818       0.00681161      -0.00210375
C        7.51692007       0.02497053       3.73814305      -0.00878815      -0.00051738      -0.00680643
C        6.29764180       2.16860343       3.73343823       0.00400019       0.00528862       0.00039819
C        5.09897525       4.26140539       3.93384708      -0.00179112      -0.00012105      -0.00034584
B        3.89920824       6.44854952       4.43614118       0.00766272       0.00311958       0.01713381
C        2.54912234       8.54830694       3.88412784       0.00342430       0.00298347      -0.00052778
C        9.97587885       0.03135428       3.79281989       0.00219731      -0.00337097      -0.00483294
C        8.75544179       2.17689501       3.69836199      -0.00271053      -0.01050472       0.00451646
C        7.53074353       4.31808839       3.73421499       0.00597328       0.01200624      -0.00353836
C        6.28323154       6.43599403       3.90343688      -0.00561901       0.00575497      -0.00093587
C        5.03227723       8.58705527       3.94829852      -0.00710942      -0.00416706      -0.00378178
C        0.11761228       1.49905550       3.77476542      -0.00834895       0.00216671      -0.00875081
C       -1.11639089       3.61981952       3.67031771      -0.00233942       0.00597466       0.00141821
C       -2.35522332       5.74860517       3.67802973       0.01308797      -0.00538782      -0.00677644
C       -3.60016261       7.89489756       3.76013724      -0.00836859      -0.01047744       0.00129564
C       -4.82041859      10.04812606       3.81543160       0.00786803       0.00405452       0.00552851
C        2.59735001       1.55498334       3.81732208       0.00305056       0.00479165       0.00166822
N        1.28506530       3.63004982       3.82493410      -0.01594111      -0.00623406      -0.00453009
C        0.09059367       5.76692168       3.65183280       0.00048372       0.00069479       0.00283108
C       -1.13844084       7.89166914       3.70138167       0.00957330       0.00481846      -0.00759604
C       -2.36800036      10.05099090       3.75881868       0.00149355      -0.01084971       0.00285820
C        5.05219036       1.48080855       3.75736215       0.00548767      -0.00010298       0.00923290
O        3.91109960       3.57167924       3.97384644      -0.00588101       0.00105347      -0.01642861
C        1.30374570       7.86582869       3.77476069       0.00659857       0.00140250      -0.00215138
C        0.11187428      10.01201078       3.73339841      -0.00662653       0.00364289       0.00968290
C        7.52019692       1.45937179       3.71132514      -0.00410288      -0.00568314       0.00472347
C        6.30430743       3.58432603       3.77445666       0.00566629       0.00869855       0.01004098
C        5.08779953       5.67078086       4.05031105      -0.00299193      -0.00093206      -0.00049796
C        3.79251990       7.87857571       4.06977759      -0.00150449      -0.00312362       0.00722583
C        2.56915068       9.98373655       3.79520421      -0.00404812       0.00287097      -0.01383463
C        9.98399848       1.46292309       3.72797958       0.00160087      -0.00100335       0.00333732
C        8.75739012       3.60476143       3.68546825      -0.00170037      -0.00698343       0.00042913
C        7.52058452       5.74091710       3.77243692       0.00198676       0.01196232       0.00959267
C        6.27114570       7.87360195       3.90753269      -0.01092408       0.00255241      -0.00875470
C        5.04553428      10.01934537       3.84586247       0.00149210      -0.00601066       0.00229143
Hg       2.64577798       5.38326182       5.76913375      -0.00369872       0.00061564      -0.01322792
O        1.06262034       4.18222468       6.53959342       0.00889438       0.00519021       0.00217120
O        0.74109871       4.82610286       7.82549673      -0.00267622      -0.00225822      -0.01591920
H        1.02129152       4.10587464       8.42187751       0.00897606      -0.00983961       0.00648885
