51
Lattice="12.336457 0.0 0.0 -6.168228499999997 10.683685154694365 0.0 0.0 0.0 15.0" Properties=species:S:1:pos:R:3:initial_magmoms:R:1:forces:R:3 energy=-437.86444034521026 free_energy=-437.86444034521026 stress="0.0006604221180735093 0.0021087996156708482 8.788494264550796e-06 0.0021087996156708482 0.006047834187018282 1.0423109307413112e-06 8.788494264550796e-06 1.0423109307413112e-06 -3.227866236377952e-05" pbc="T T T"
C       -0.07735687       0.06938148       3.61404680       0.00000000      -0.00309115       0.00278698       0.00697980
C       -1.31139429       2.19584880       3.52885384       0.00000000      -0.00045113      -0.00071289       0.01178661
C       -2.53571254       4.33119328       3.50936242       0.00000000       0.01221149      -0.00177481      -0.00768472
C       -3.78088579       6.46671851       3.57100302       0.00000000       0.00923333       0.00037682      -0.00406125
C       -5.02399526       8.61060730       3.64726230       0.00000000      -0.00387154      -0.00655457      -0.00671425
C        2.38681049       0.11543240       3.60726722       0.00000000       0.00081495      -0.00038583       0.00008731
C        1.14374742       2.28659387       3.58997492       0.00000000      -0.01186890      -0.00037401      -0.00506875
C       -0.04934521       4.33093833       3.50292965       0.00000000      -0.00042093       0.00046819       0.00132260
C       -1.30631540       6.46510728       3.49586430       0.00000000      -0.00174749       0.00963968       0.00881354
C       -2.55608077       8.61053886       3.55722443       0.00000000       0.00277012       0.00409364      -0.00145532
C        4.84762495       0.05787671       3.57728741       0.00000000       0.00809700      -0.00236949      -0.00110671
C        3.65975812       2.21064623       3.67270013       0.00000000       0.00395987       0.00227665       0.01498580
O        1.08091965       6.49262594       3.54299389       0.00000000      -0.01156334      -0.00967219      -0.00470421
C       -0.09048954       8.58636138       3.55942147       0.00000000       0.00246150      -0.00707088       0.00383599
C        7.32419566       0.02970369       3.57759557       0.00000000      -0.01058110      -0.00686318      -0.01146706
C        6.10377460       2.17482231       3.59804196       0.00000000       0.00559493      -0.01071687      -0.00882583
C        4.90033374       4.26708946       3.80634721       0.00000000       0.00240456       0.00348580      -0.01265080
B        3.70152762       6.45837112       4.33903209       0.00000000      -0.00043689      -0.00772765       0.01099474
C        2.35773608       8.54969860       3.71638951       0.00000000       0.00669311       0.00713904      -0.00490158
C        9.78329699       0.03402030       3.60479908       0.00000000       0.00094470      -0.00053465       0.00489359
C        8.56199959       2.18044456       3.54351601       0.00000000       0.00071149       0.00119913      -0.00697768
C        7.33781119       4.32162289       3.59981284       0.00000000      -0.01476501       0.01186700      -0.00196371
C        6.08704714       6.43926142       3.75560276       0.00000000      -0.00718082       0.00845974      -0.00727846
C        4.83903093       8.58852827       3.77403900       0.00000000       0.00682187       0.00216768      -0.01046612
C       -0.07583709       1.49928156       3.56757039       0.00000000      -0.00857333       0.00170587       0.01283116
C       -1.30899733       3.62461724       3.49646165       0.00000000       0.01026055      -0.00383031       0.00238019
C       -2.54548989       5.75164575       3.51536416       0.00000000       0.01340593      -0.00120498       0.00053288
C       -3.79265085       7.89661381       3.58844781       0.00000000       0.00337276      -0.00064455       0.00269514
C       -5.01190644      10.04950502       3.62482164       0.00000000      -0.00460582      -0.00372924       0.00022694
C        2.40707323       1.55756424       3.62595824       0.00000000      -0.00242681       0.00519465       0.00426983
N        1.09862151       3.62962019       3.58648252       0.00000000      -0.00591075      -0.00211918      -0.01222991
C       -0.09560562       5.77254429       3.49057462       0.00000000      -0.01280943      -0.00240968       0.00002427
C       -1.32810633       7.89420117       3.52675306       0.00000000      -0.00044015       0.00580101       0.00178336
C       -2.55988271      10.05241439       3.58083728       0.00000000       0.00761159       0.00237717       0.01108695
C        4.85875899       1.48624958       3.60679811       0.00000000       0.00583404      -0.00358269       0.00106336
O        3.71367158       3.57597376       3.85501667       0.00000000       0.00491033       0.00744451      -0.00497592
C        1.11240931       7.86865854       3.61521126       0.00000000       0.00319197      -0.00626276       0.00699690
C       -0.08078489      10.01726956       3.57235483       0.00000000      -0.00311129      -0.01209007      -0.00296651
C        7.32642614       1.46467320       3.56378630       0.00000000       0.00293898      -0.01002311      -0.00048339
C        6.10963093       3.59027770       3.64673330       0.00000000      -0.00523301      -0.00727791       0.00194424
C        4.88612558       5.67635603       3.91347629       0.00000000      -0.00011388       0.00362822      -0.00217844
C        3.59970732       7.88047999       3.91182410       0.00000000       0.00903185       0.00228948      -0.01333340
C        2.37620344       9.98725386       3.61848044       0.00000000      -0.00525590       0.00839394       0.00069808
C        9.79084800       1.46621371       3.54614672       0.00000000       0.00189834      -0.00207445       0.01220331
C        8.56424611       3.60788919       3.53990375       0.00000000      -0.00545389       0.01014259      -0.00237792
C        7.32759003       5.74413369       3.62983362       0.00000000      -0.00579133       0.01523442      -0.00902063
C        6.07776876       7.87574125       3.74039403       0.00000000      -0.00074250      -0.00010141       0.00227424
C        4.85290680      10.02085247       3.65284015       0.00000000       0.00364135       0.00150642       0.00925110
Hg       2.51096171       5.55150102       5.87594567       0.00000000       0.00211372      -0.01147154      -0.00620218
O        3.91136032       4.05860383       8.95593133       1.00000000       0.00372041      -0.00180159       0.01193995
O        4.89929592       3.34853413       9.18038531       1.00000000      -0.00820434       0.00570188       0.00319289
