51
Lattice="12.336457 0.0 0.0 -6.168228499999997 10.683685154694365 0.0 0.0 0.0 15.0" Properties=species:S:1:pos:R:3:initial_magmoms:R:1:forces:R:3 energy=-439.0033833992897 free_energy=-439.0033833992897 stress="-0.0058341157304214976 0.0008090848229956049 -1.9426361305034942e-05 0.0008090848229956049 -0.00631481594844409 -2.237403440449069e-05 -1.9426361305034942e-05 -2.237403440449069e-05 4.167987929823879e-05" pbc="T T T"
C       -0.12019774       0.07893794       3.73844104       0.00000000       0.00066609       0.00354642      -0.00405212
C       -1.35064879       2.21749789       3.65802851       0.00000000       0.00148628      -0.00103965       0.00303470
C       -2.59954298       4.35988549       3.50844143       0.00000000      -0.00037919       0.00064090       0.00361953
C       -3.82733643       6.49711910       3.52958993       0.00000000       0.00242357      -0.00295789       0.00405886
C       -5.05671498       8.62975594       3.66138340       0.00000000       0.00083334      -0.00291516       0.00386407
C        2.35246022       0.07850636       3.77113194       0.00000000       0.00213903       0.00516567      -0.00137858
C        1.12326125       2.18017344       3.92063657       0.00000000      -0.00232656      -0.00124325       0.00030256
C       -0.17892571       4.36894030       3.76113746       0.00000000      -0.00309541      -0.00311172       0.00455561
C       -1.37104401       6.50769019       3.63826718       0.00000000      -0.00251456       0.00066166      -0.00275663
C       -2.59022682       8.63744469       3.64892648       0.00000000       0.00387657       0.00088201      -0.00001334
C        4.81707087       0.09623548       3.70505273       0.00000000       0.00169334       0.00229378       0.00188084
C        3.59248374       2.24111826       3.89005872       0.00000000      -0.00611209      -0.00136738       0.00170712
B        1.13048334       6.48249169       4.06109828       0.00000000       0.00310308      -0.00076428      -0.00213633
C       -0.12410028       8.64394322       3.77448852       0.00000000       0.00320825       0.00127193      -0.00074080
C        7.28411137       0.09402835       3.68020584       0.00000000       0.00199396      -0.00038329      -0.00006948
C        6.05696745       2.21299197       3.62393204       0.00000000      -0.00525597      -0.00202547       0.00725446
C        4.84033093       4.32343799       3.76689377       0.00000000      -0.00375079      -0.00025391      -0.00191594
B        3.56421689       6.46640200       4.04547048       0.00000000       0.00456870       0.00214023       0.00038192
C        2.34766603       8.66917163       3.88313521       0.00000000      -0.00031503       0.00083605       0.00781378
C        9.75449047       0.09382051       3.69626652       0.00000000      -0.00189959      -0.00148323       0.00077238
C        8.52118898       2.21934435       3.54634178       0.00000000       0.00224770       0.00084084      -0.00358331
C        7.28499055       4.35239277       3.50854843       0.00000000      -0.00413162      -0.00126603       0.00372310
C        6.05211209       6.48977408       3.65268371       0.00000000       0.00155383      -0.00372564      -0.00113029
C        4.81419362       8.63179812       3.78708917       0.00000000      -0.00204866       0.00142243       0.00087273
C       -0.12043194       1.50223985       3.77300562       0.00000000       0.00125044       0.00239837      -0.00748823
C       -1.36962066       3.64044516       3.61248657       0.00000000      -0.00213978      -0.00196756      -0.00107135
C       -2.60047329       5.78642685       3.52556063       0.00000000       0.00018780      -0.00117095       0.00062280
C       -3.82381641       7.92265176       3.60177613       0.00000000       0.00323603      -0.00196699      -0.00033896
C       -5.05286993      10.05171254       3.72904671       0.00000000       0.00199409       0.00225794       0.00002825
C        2.35767119       1.49463671       3.88501150       0.00000000      -0.00377997       0.00340032      -0.00542032
B        1.09845926       3.65178935       4.06704939       0.00000000      -0.00416021      -0.00899885      -0.00241579
C       -0.17129629       5.78145709       3.77238337       0.00000000      -0.00419909      -0.00119049       0.00157668
C       -1.35947285       7.93084097       3.68357718       0.00000000       0.00305288       0.00154832      -0.00572363
C       -2.58517315      10.05786095       3.70927780       0.00000000       0.00328163       0.00226549       0.00246379
C        4.82737748       1.51299842       3.72907084       0.00000000      -0.00650319      -0.00080425      -0.00009916
C        3.65945663       3.62386917       4.00647525       0.00000000       0.00250263      -0.00475147      -0.00304430
C        1.11833765       7.96293926       3.91936874       0.00000000       0.00096671       0.00004391       0.00251526
C       -0.12035479      10.06629948       3.70997892       0.00000000       0.00289765       0.00121023      -0.00077078
C        7.29014283       1.50850584       3.59294240       0.00000000       0.00019176       0.00073625       0.00249979
C        6.06967268       3.62585379       3.59979035       0.00000000      -0.00620131      -0.00102863      -0.00902568
C        4.85277516       5.75482567       3.77228759       0.00000000       0.00013643       0.00064558       0.00319351
C        3.57120268       7.95258046       3.91930018       0.00000000      -0.00106407       0.00221182      -0.00266302
C        2.35053372      10.08108187       3.74679886       0.00000000      -0.00081706      -0.00293709       0.00189616
C        9.75461444       1.51157076       3.61279584       0.00000000       0.00177997      -0.00191721       0.00315685
C        8.51681881       3.64303606       3.49075543       0.00000000      -0.00181556       0.00202800      -0.00210397
C        7.28516364       5.77927195       3.53412501       0.00000000       0.00237303      -0.00321642       0.00141534
C        6.04658366       7.91782646       3.69882160       0.00000000      -0.00172728      -0.00335445      -0.00785037
C        4.81658760      10.05810146       3.73370973       0.00000000      -0.00065702       0.00229762       0.00059168
Hg       2.34964659       5.02565927       5.18701428       0.00000000      -0.00469530      -0.00143916       0.06093025
O        5.11373657       2.17823048       6.55742357       1.00000000      -0.00262772       0.00479135       0.00333088
O        5.55836755       3.32301085       6.57829564       1.00000000       0.01857223       0.01174327      -0.06227054
