51
Lattice="12.336457 0.0 0.0 -6.168228499999997 10.683685154694365 0.0 0.0 0.0 15.0" Properties=species:S:1:pos:R:3:initial_magmoms:R:1:forces:R:3 energy=-436.3902267692467 free_energy=-436.3902267692467 stress="-0.0022598283228232874 -0.0033890859180962275 -1.2075570804640569e-05 -0.0033890859180962275 -0.0016690386472846986 -2.5928638047211253e-05 -1.2075570804640569e-05 -2.5928638047211253e-05 -7.452660589976767e-06" pbc="T T T"
C        0.00079161       0.00777420       3.67956367       0.00000000      -0.00721915       0.00127170       0.00921033
C       -1.25180411       2.13712745       3.65239042       0.00000000       0.00166150       0.00726372      -0.00277493
C       -2.46792645       4.28900525       3.64932252       0.00000000      -0.00474433       0.00455855      -0.00338330
C       -3.68293883       6.42998054       3.67542909       0.00000000      -0.00794048      -0.01180997      -0.00826014
C       -4.91535972       8.56974435       3.71257372       0.00000000       0.00996719       0.00110345       0.00737000
C        2.46158171       0.03231172       3.65048766       0.00000000      -0.00133479      -0.00027412      -0.00689454
C        1.18299227       2.13586538       3.63524338       0.00000000       0.00205548      -0.00694817       0.01504500
C       -0.03211360       4.22339853       3.78383850       0.00000000       0.00638029      -0.00432456       0.01766675
C       -1.20145233       6.39499350       3.75600913       0.00000000      -0.00049784       0.00884967       0.00347308
C       -2.44777533       8.56042155       3.70953482       0.00000000      -0.01008383      -0.00351037       0.00262544
C        4.93154850       0.02362068       3.62162799       0.00000000       0.00364542       0.00112258      -0.00424162
C        3.67394394       2.14061878       3.32959312       0.00000000      -0.00840952       0.00235770      -0.00705848
B        1.27412814       6.40764949       4.11090669       0.00000000       0.00796449       0.00828831       0.00468550
C        0.00747345       8.56810308       3.81426806       0.00000000       0.00095177       0.00625223      -0.00890635
C        7.39651605       0.02773753       3.69565356       0.00000000       0.00259712      -0.01401711      -0.00545311
C        6.15695863       2.16437607       3.48111278       0.00000000      -0.00071423       0.00018573      -0.00205353
C        4.96355690       4.33595567       3.42326104       0.00000000       0.00089055       0.00857211      -0.00277553
C        3.74795102       6.43994277       4.02765021       0.00000000      -0.01376502      -0.00272662      -0.01158193
C        2.47376350       8.58353280       3.91335414       0.00000000       0.00309717       0.00640904       0.00076401
C        9.86469304       0.01463255       3.71768387       0.00000000       0.00128408      -0.00192393       0.01253775
C        8.62482466       2.15629041       3.61564782       0.00000000      -0.00659544      -0.01130435      -0.00448899
C        7.40834054       4.30162984       3.58466674       0.00000000      -0.00157608       0.00050921       0.00237952
C        6.18880289       6.44778982       3.69829975       0.00000000       0.00616816       0.00286399       0.00945404
C        4.94772402       8.56470991       3.79240632       0.00000000       0.00725133      -0.01003369       0.00668772
C       -0.01544314       1.43314583       3.64747560       0.00000000      -0.00173810       0.00281326      -0.00125003
C       -1.24460449       3.55316621       3.67132331       0.00000000      -0.00035243       0.00675812       0.00969961
C       -2.45067606       5.70726774       3.67946532       0.00000000      -0.00354302       0.00405226       0.00584837
C       -3.68200452       7.85441041       3.70020643       0.00000000      -0.00469772      -0.01436724      -0.00055858
C       -4.92775617       9.99392219       3.69145682       0.00000000      -0.00268276       0.00462161       0.01199430
C        2.43489144       1.46045868       3.54799961       0.00000000      -0.00282100      -0.00314017      -0.00396953
O        1.14230331       3.49508415       3.88651389       0.00000000       0.01270653      -0.00630281      -0.00577984
C        0.00982261       5.63295079       3.84524995       0.00000000       0.00214086      -0.00047902       0.00472115
C       -1.21135848       7.83366798       3.76266772       0.00000000      -0.00455605       0.01023819      -0.00213796
C       -2.46485482       9.99218769       3.66518655       0.00000000       0.00026892      -0.00091947      -0.00134147
C        4.91960187       1.45336178       3.46914453       0.00000000      -0.00305735       0.00421499      -0.00901189
P        3.59962528       3.70739530       2.56909790       0.00000000       0.00070347       0.00056949      -0.00774924
C        1.24950672       7.88682840       3.95137132       0.00000000       0.00201156       0.01065716      -0.00434531
C       -0.00433449       9.99849112       3.71225348       0.00000000       0.00315521      -0.00111831       0.00545877
C        7.38930189       1.45014440       3.59292691       0.00000000      -0.00617612      -0.01634890       0.00526929
C        6.17175545       3.59094223       3.48099026       0.00000000       0.00136697       0.00502599      -0.00448883
C        4.93631620       5.75467944       3.69588087       0.00000000       0.00220065       0.00866465       0.00284667
C        3.70898904       7.83663983       3.91888721       0.00000000      -0.00086089       0.00020011       0.00075307
C        2.46525597       9.99925531       3.77910082       0.00000000       0.00345346      -0.00128457      -0.01261555
C        9.86024299       1.43812787       3.65571219       0.00000000       0.00294153      -0.00185690      -0.00465609
C        8.63141837       3.58281929       3.60807472       0.00000000      -0.00502071      -0.00460265      -0.00168364
C        7.41676902       5.72666519       3.64415259       0.00000000      -0.00361128      -0.00400662      -0.00357873
C        6.18690682       7.86381776       3.74404848       0.00000000       0.01443044       0.00018091      -0.01364596
C        4.93444275       9.98109615       3.73113422       0.00000000      -0.00247782      -0.00973407       0.00593987
Hg       2.55116362       5.46395138       5.57449583       0.00000000       0.00451577       0.00684222      -0.00215393
O        2.52871818       5.06035752       8.51011586       1.00000000       0.00328571       0.01048133      -0.00364870
O        2.46841140       4.23507687       7.53414342       1.00000000      -0.00261968      -0.00389465       0.00605747
