52
Lattice="12.336457 0.0 0.0 -6.168228499999997 10.683685154694365 0.0 0.0 0.0 15.0" Properties=species:S:1:pos:R:3:forces:R:3 energy=-437.2399449274284 free_energy=-437.2399449274284 stress="-0.0008696964804332402 -0.00358584338639644 1.021508849846381e-05 -0.00358584338639644 -0.0055634342576106775 4.523316158737288e-06 1.021508849846381e-05 4.523316158737288e-06 -3.071741905212378e-07" pbc="T T T"
C       -0.00949663      -0.02236797       3.90226041       0.01358750      -0.00162148      -0.00245088
C       -1.26512494       2.10030275       3.84248013      -0.00263692       0.00239550       0.01161145
C       -2.48370299       4.24753689       3.79480407      -0.00822368       0.00715014       0.01178855
C       -3.69596752       6.38421979       3.82146094      -0.00934938      -0.00647125       0.00411861
C       -4.93360157       8.51864867       3.91429266       0.00083691       0.00271418       0.00119899
C        2.45571151      -0.03003202       3.74286462      -0.00012514      -0.00018145       0.00288728
C        1.19106145       2.13428689       3.66690850       0.00685446      -0.00069637       0.01059216
C       -0.01516343       4.16792430       3.70070208      -0.00147814      -0.00446925       0.00005317
C       -1.19741450       6.35598143       3.71504192       0.00630873       0.00731992      -0.00563997
C       -2.44950170       8.50360562       3.76345907      -0.00148780       0.00148568      -0.00384496
C        4.91995222      -0.02692921       3.64478119      -0.00795726       0.00134845      -0.00867238
C        3.65648448       2.04986590       3.32129465       0.00116663      -0.00957985      -0.00020814
S        1.58531149       6.20842943       3.32817354      -0.01496930       0.01013911       0.00380380
C        0.01421583       8.51111758       3.69032373       0.01475919       0.00234239       0.00219773
C        7.37319297       0.00465222       3.76025229       0.00060583       0.00087618       0.00316608
C        6.13120172       2.13446003       3.53279694       0.00608109       0.01099476      -0.00367964
C        4.97440161       4.32183465       3.39579970       0.00049060      -0.00881153      -0.01115743
B        3.60854684       6.38569398       4.20907968       0.01118825       0.00964159      -0.00594889
C        2.46909864       8.58724198       3.91483775       0.00487602      -0.00109922      -0.00576863
C        9.85350404       0.00377127       3.93149148       0.00497844      -0.00182726      -0.00952475
C        8.60053623       2.12779514       3.77470225      -0.00322329       0.00719696       0.00886435
C        7.38981582       4.26361421       3.70976616      -0.00026214      -0.00250126      -0.00267029
C        6.15610452       6.39380875       3.86928167      -0.01141365      -0.00421659       0.00525411
C        4.92730171       8.54173382       4.03101661      -0.01188120      -0.00388555       0.00817068
C       -0.02679062       1.39610818       3.81912974       0.00450975       0.00217380       0.00003698
C       -1.27264559       3.50844573       3.79741576      -0.00906187       0.00272959       0.00028755
C       -2.46181076       5.66489424       3.78181483      -0.00182105       0.00616595      -0.00344614
C       -3.69358016       7.80550618       3.84004061      -0.00386589      -0.00166318       0.00045542
C       -4.94050442       9.94230030       3.87491411       0.00845189       0.00171746      -0.00578314
C        2.43941688       1.38853821       3.58100764       0.00332062      -0.00553034       0.00891049
N        1.15093179       3.47704848       3.64701187       0.00441499       0.00113450      -0.00291141
C       -0.01428835       5.58700851       3.63803948       0.00479567       0.00056305      -0.00167924
C       -1.21023956       7.78776812       3.70546068       0.01127852       0.00712399       0.00082383
C       -2.47050016       9.93713059       3.71728534      -0.00934732       0.00004844       0.00000345
C        4.90586581       1.40497654       3.49675643       0.00679540       0.00286225      -0.00380758
S        3.58529361       3.64567969       2.65560584       0.00245783      -0.01063539       0.00041923
C        1.27584679       7.87394411       3.69600891       0.01142838      -0.00010767       0.00847915
C       -0.00929256       9.95367467       3.70402686      -0.00086205       0.00165402      -0.00079619
C        7.35920145       1.42886204       3.69308365       0.00032823       0.00754107       0.00252210
C        6.15827719       3.55253927       3.53085014       0.00233118       0.00665086       0.00340136
C        4.91790041       5.67624778       3.76950450      -0.00987753      -0.01130169       0.00345925
C        3.67843291       7.88525517       4.06002429      -0.00940384      -0.00744000      -0.00353307
C        2.44369374      10.00745402       3.89418119       0.00371167      -0.00438275      -0.00632108
C        9.83607864       1.41355207       3.86306266      -0.00405539       0.00060422      -0.00134564
C        8.61185431       3.54467635       3.76637959      -0.00363079       0.00373250      -0.00241604
C        7.39944357       5.68206143       3.80316462      -0.00731659      -0.00850015       0.00167946
C        6.16727337       7.81507599       3.97989671      -0.00823736       0.00213469      -0.00740339
C        4.92264773       9.97200209       3.97765097       0.00918414      -0.00441588      -0.00669805
Hg       3.14179682       5.79734676       6.24853345      -0.00407551      -0.01670694      -0.00166399
O        2.72595257       5.07256342       8.17439088       0.00323174       0.00507926       0.00859559
O        3.01313363       6.23242371       9.02391351       0.00305326       0.00411904      -0.00613108
H        3.82014854       5.90207845       9.46510662      -0.00646384      -0.00359453       0.00072118
