51
Lattice="12.336457 0.0 0.0 -6.168228499999997 10.683685154694365 0.0 0.0 0.0 15.0" Properties=species:S:1:pos:R:3:initial_magmoms:R:1:forces:R:3 energy=-438.0555761104593 free_energy=-438.0555761104593 stress="0.0016543776535459125 -0.0016730432406550926 -2.3756393490525527e-05 -0.0016730432406550926 0.00509662649554042 -1.1182429791788626e-05 -2.3756393490525527e-05 -1.1182429791788626e-05 1.743892597412105e-05" pbc="T T T"
C       -0.04048118       0.04136154       3.58270803       0.00000000       0.00048227       0.00350390       0.00964273
C       -1.29534494       2.16149588       3.58625880       0.00000000       0.00261121      -0.00407270      -0.00121976
C       -2.52845085       4.30833647       3.58279981       0.00000000      -0.00240854      -0.00354483       0.00472265
C       -3.74953000       6.45063430       3.57049691       0.00000000       0.00053666      -0.00102939      -0.00125089
C       -4.97078826       8.59450186       3.57105799       0.00000000       0.00283189       0.00322735       0.00089802
C        2.42189535       0.09329717       3.61332678       0.00000000       0.00309545      -0.00083020      -0.00076387
C        1.14646433       2.19532625       3.65362611       0.00000000       0.00421873      -0.00378450       0.00106094
C       -0.08648650       4.25268060       3.76275728       0.00000000      -0.00176909      -0.00176235       0.00127099
C       -1.27484866       6.42248183       3.73406949       0.00000000      -0.00578182      -0.00027332      -0.00400641
C       -2.50821316       8.58780740       3.65293475       0.00000000       0.00178536      -0.00026572      -0.00127287
C        4.87847629       0.04740097       3.65507407       0.00000000      -0.00410021      -0.00236113      -0.00292294
C        3.67565046       2.20787873       3.60546921       0.00000000      -0.00658104      -0.00210318      -0.00019459
B        1.11993424       6.44112817       4.31879538       0.00000000       0.00421127       0.00755900       0.00295710
C       -0.04430735       8.57860145       3.80786855       0.00000000       0.00326067      -0.00124037      -0.00529572
C        7.35200483       0.02788949       3.66833065       0.00000000      -0.00057028      -0.00036622      -0.00457846
C        6.10941374       2.18059629       3.58815040       0.00000000      -0.00424128       0.00040227       0.00181131
C        4.88536533       4.30177251       3.57162467       0.00000000       0.00251148      -0.00298436      -0.00005597
N        3.69835405       6.45588517       3.74871278       0.00000000       0.00074874       0.00173275       0.00446729
C        2.42989039       8.55905105       3.80181633       0.00000000       0.00002028      -0.00052625      -0.00204013
C        9.81860690       0.02061009       3.61545870       0.00000000      -0.00410932      -0.00045910       0.00044896
C        8.57730683       2.16848237       3.57306793       0.00000000       0.00096502       0.00851383      -0.00038832
C        7.33887884       4.31781532       3.54151117       0.00000000       0.00136796       0.00666131       0.00417231
C        6.11163156       6.44507674       3.54355693       0.00000000      -0.00074584      -0.00266673      -0.00146114
C        4.90001283       8.57298942       3.61113292       0.00000000      -0.00247922      -0.00056767      -0.00097892
C       -0.04646341       1.47246067       3.59738246       0.00000000       0.00456614       0.00000736      -0.00277503
C       -1.29861251       3.57639715       3.61551988       0.00000000      -0.00279191      -0.00545688       0.00337483
C       -2.52067613       5.72969485       3.61085745       0.00000000      -0.00433759      -0.00455274      -0.00238083
C       -3.74081227       7.87772044       3.59271623       0.00000000       0.00289522      -0.00032321      -0.00613270
C       -4.96956001      10.03351480       3.58774290       0.00000000       0.00230446       0.00548340       0.00498598
C        2.41563747       1.54608197       3.62326727       0.00000000      -0.00084483      -0.00536791      -0.00254078
O        1.09898178       3.56128457       3.81096597       0.00000000       0.00000763      -0.00753142       0.00585786
C       -0.07305377       5.66122446       3.87635919       0.00000000      -0.00153205       0.00264960       0.00100151
C       -1.27416538       7.85909224       3.74360768       0.00000000       0.00027265       0.00116397       0.00373025
C       -2.52099050      10.03014445       3.64231252       0.00000000      -0.00061575      -0.00259851       0.00028179
C        4.87023501       1.48530901       3.61438977       0.00000000      -0.00838867      -0.00145070       0.00354258
O        3.71682543       3.58536737       3.59044001       0.00000000       0.00316398      -0.00500481       0.00152191
C        1.20030274       7.88521268       3.95867528       0.00000000       0.00316227       0.00045991      -0.00504418
C       -0.05276778      10.00961316       3.70547983       0.00000000      -0.00111747      -0.00039748       0.00394587
C        7.33898801       1.46042559       3.60232756       0.00000000       0.00081108       0.00363563      -0.00020481
C        6.09563155       3.60880714       3.55769823       0.00000000       0.00472961       0.00146505       0.00300167
C        4.84857299       5.74390507       3.59353996       0.00000000      -0.00313751      -0.00256011      -0.00543503
C        3.67706187       7.80661123       3.71759597       0.00000000      -0.00270524       0.00142350       0.00373715
C        2.42387532       9.98586260       3.68506109       0.00000000      -0.00223314      -0.00294304      -0.00033476
C        9.81555025       1.45035573       3.58075719       0.00000000      -0.00037889       0.00128787      -0.00137028
C        8.57268066       3.59702565       3.55316230       0.00000000      -0.00219505       0.00768930      -0.00298592
C        7.34192637       5.73747009       3.53647481       0.00000000       0.00119108       0.00312244       0.00605159
C        6.12919536       7.87252210       3.56387554       0.00000000      -0.00006972      -0.00142745      -0.00195420
C        4.88887420       9.99674982       3.60103552       0.00000000      -0.00254856       0.00126725      -0.00201213
Hg       2.22294980       5.51729565       5.90439400       0.00000000       0.00870828       0.00471875      -0.01490725
O        3.50936296       4.32412653       9.10471589       1.00000000       0.00180482      -0.00174796      -0.00827729
O        3.81829102       4.09415924       7.92555861       1.00000000       0.00341880       0.00422580       0.01029988
