51
Lattice="12.336457 0.0 0.0 -6.168228499999997 10.683685154694365 0.0 0.0 0.0 15.0" Properties=species:S:1:pos:R:3:initial_magmoms:R:1:forces:R:3 energy=-438.17050470199075 free_energy=-438.17050470199075 stress="-0.001437461346770721 0.0006989074346929686 4.974675322486665e-05 0.0006989074346929686 0.006594217385104496 7.726410228591602e-05 4.974675322486665e-05 7.726410228591602e-05 9.207445173502698e-05" pbc="T T T"
C        0.07485587      -0.04533657       3.75377845       0.00000000      -0.00386699      -0.00521380      -0.01949035
C       -1.16045455       2.08238251       3.59424062       0.00000000       0.01584441      -0.02207729       0.01919831
C       -2.38047253       4.22405960       3.50265837       0.00000000       0.00492639       0.00507789      -0.00113592
C       -3.61565909       6.36483016       3.59762776       0.00000000       0.01192473       0.00430528      -0.02727296
C       -4.86001948       8.50917688       3.74096805       0.00000000       0.01688637       0.00006017       0.01919082
C        2.53217152       0.00616370       3.79061274       0.00000000      -0.01470328      -0.01927069      -0.00748592
C        1.27531044       2.11479183       3.74830226       0.00000000       0.00036551      -0.00379023      -0.00062609
C        0.05420340       4.22582849       3.50823107       0.00000000       0.00470712      -0.01448317      -0.02438095
C       -1.15257932       6.35572350       3.49398363       0.00000000      -0.00398619       0.02178499       0.03462584
C       -2.39307880       8.51209455       3.63385027       0.00000000      -0.01824503      -0.00592602       0.00081904
C        5.00695622      -0.03664830       3.74595366       0.00000000      -0.01945977       0.01204616      -0.01369868
C        3.78363041       2.14888666       4.04212050       0.00000000       0.01041747       0.00122221      -0.00827041
O        1.23658705       6.37375326       3.60167538       0.00000000      -0.03011242       0.00105703      -0.01384204
C        0.06615928       8.47739584       3.63255056       0.00000000      -0.00870365      -0.01499320       0.01878933
C        7.48123178      -0.08226835       3.67170038       0.00000000      -0.02276557      -0.01483473       0.02830106
C        6.26440659       2.06170553       3.75814236       0.00000000       0.01397624       0.01422255      -0.04186069
C        5.09040848       4.17779781       4.06540797       0.00000000      -0.00103717      -0.00482825      -0.01027988
B        3.87114836       6.33208509       4.38216938       0.00000000       0.00306967      -0.02305487       0.00377369
C        2.50882122       8.43410369       3.81565703       0.00000000       0.01283533       0.03171227       0.01844279
C        9.93779348      -0.08394945       3.70298349       0.00000000       0.00358249       0.03832419       0.01194289
C        8.71913053       2.06447645       3.59471823       0.00000000       0.00728913      -0.00574500      -0.01714521
C        7.51071733       4.20898250       3.64814315       0.00000000      -0.02716257       0.01641114       0.05170358
C        6.28437737       6.35311978       3.86042822       0.00000000       0.01309693       0.00329716       0.01723568
C        4.99735869       8.47499762       3.88779550       0.00000000       0.02239179       0.03010234       0.02837727
C        0.07222143       1.38850281       3.69752017       0.00000000       0.00133300      -0.00798066      -0.00797555
C       -1.14799313       3.51483727       3.51003973       0.00000000       0.00382837      -0.02183814       0.01806535
C       -2.38288364       5.64524413       3.50515539       0.00000000       0.01373990       0.00300184       0.01256216
C       -3.62823429       7.79664097       3.64576638       0.00000000       0.00470307       0.00033216       0.04035739
C       -4.85825672       9.94632866       3.76292215       0.00000000      -0.01010539      -0.00480715      -0.00578949
C        2.51551968       1.44137067       3.88517363       0.00000000      -0.00139983      -0.01302196      -0.02869143
O        1.22992149       3.49148833       3.62191630       0.00000000       0.01934380       0.00801207      -0.00312519
C        0.05509082       5.64443148       3.49695601       0.00000000      -0.00707184       0.00200353      -0.02299817
C       -1.16854532       7.78585153       3.57207067       0.00000000      -0.00913794       0.01360048      -0.01040565
C       -2.40269456       9.95003518       3.73251453       0.00000000      -0.01507459      -0.02126612      -0.00050735
C        5.01173271       1.38602684       3.84705334       0.00000000       0.02739172       0.01082928       0.02123249
C        3.91037747       3.49599558       4.35455023       0.00000000       0.00746979       0.00307611      -0.00549861
C        1.26551490       7.74733726       3.68862557       0.00000000       0.00009966      -0.00390958       0.02322733
C        0.07315473       9.90962348       3.67985678       0.00000000      -0.03003290      -0.02105685       0.00202503
C        7.49117839       1.34564061       3.65593408       0.00000000       0.01138984      -0.01333317       0.01653020
C        6.29916237       3.47853885       3.79096077       0.00000000      -0.01627245       0.02208189      -0.00005632
C        5.11300737       5.61392783       4.08619923       0.00000000       0.02439773      -0.02347061       0.01082197
C        3.75381268       7.76597018       4.02049449       0.00000000       0.02416401       0.02509632      -0.02695296
C        2.53284895       9.86986913       3.71689243       0.00000000       0.00293452       0.02908884      -0.01793026
C        9.95233319       1.35402273       3.61628942       0.00000000       0.00574525       0.00803504      -0.01018424
C        8.73075027       3.49562731       3.55571817       0.00000000      -0.02133080       0.00347342       0.02447381
C        7.50979057       5.64110808       3.68511806       0.00000000       0.00240616       0.00045249      -0.02709984
C        6.24899662       7.78406418       3.84332753       0.00000000       0.01659738       0.00464629      -0.03988504
C        5.00770318       9.90417611       3.77166502       0.00000000      -0.00294641       0.02221419       0.00499941
Hg       2.68133497       4.87098403       5.44160415       0.00000000      -0.01927406      -0.02474287       0.07084802
O        0.71216736       5.67246631       6.47736991       1.00000000      -0.12711619       0.01061369      -0.08191933
O        0.20586113       6.76642899       6.11365654       1.00000000       0.10294724      -0.05653667      -0.02303491
