53
Lattice="12.336457 0.0 0.0 -6.168228499999997 10.683685154694365 0.0 0.0 0.0 15.0" Properties=species:S:1:pos:R:3:forces:R:3 energy=-452.97635947350057 free_energy=-452.97635947350057 stress="-0.003980142692112138 0.0013645534668383337 3.5226594401653296e-05 0.0013645534668383337 -0.0017828012616625919 5.255305757920447e-05 3.5226594401653296e-05 5.255305757920447e-05 -2.346617563558295e-05" pbc="T T T"
C        0.00160638      -0.00255547       3.71663424       0.00348827      -0.00235417       0.00096207
C       -1.23016102       2.13104522       3.82684757       0.00658192       0.00094508      -0.00112834
C       -2.45786448       4.26920692       3.81743196      -0.01033752      -0.00033995      -0.00960887
C       -3.69158194       6.40662787       3.69296079       0.00157418      -0.00458743       0.00116006
C       -4.94430749       8.54020976       3.61213660       0.00452077      -0.00122150      -0.00221430
C        2.46638986       0.00284344       3.75826455       0.00758654       0.00133380       0.00586855
C        1.23432168       2.13890012       3.86104726       0.00560495       0.00669623       0.00090746
C       -0.00727212       4.27076423       3.97484647      -0.00528355       0.00533426       0.00189027
C       -1.23822632       6.41526801       3.88122453      -0.00085425       0.00053069       0.00291126
C       -2.47460792       8.54813045       3.76463218      -0.00515060       0.00268978       0.00205595
C        4.93942319      -0.00724495       3.80760795       0.00391599      -0.00008785      -0.00152068
C        3.71569724       2.14100826       3.81736804      -0.00704505       0.00678091      -0.00330190
B        2.49211770       4.33339338       4.08968730       0.00281931      -0.00148006      -0.01882890
C        1.19536131       6.43265346       4.23760727       0.00299191       0.00459277       0.01395475
C       -0.00159928       8.53683136       3.87409713      -0.00772628      -0.00565521      -0.00699285
C        7.40790914      -0.01156773       3.83343244      -0.00420537       0.00069201       0.00599308
C        6.19055939       2.11556832       3.78384281      -0.00808672       0.00528514      -0.00365797
C        4.98106005       4.24421150       3.62225792      -0.00279897       0.00470032       0.01103777
S        3.54588560       6.29903437       2.70971343      -0.00136259       0.00560181       0.00539532
C        2.46694307       8.53900876       3.74275281      -0.00011112      -0.00245854      -0.00720912
C        9.87585184      -0.00861544       3.75727437      -0.00094953      -0.00875655      -0.00659675
C        8.64882397       2.12695212       3.80207196       0.00601826      -0.00268296       0.00069706
C        7.43015954       4.26292175       3.69009919      -0.00568000       0.00185969       0.00216284
C        6.18318921       6.39902885       3.45995282       0.00481866      -0.00130492      -0.00693183
C        4.92938316       8.53859790       3.50445976       0.01115857      -0.00031157      -0.00360111
C        0.00097570       1.41924475       3.80538950       0.00871488       0.00157035       0.00102169
C       -1.23453425       3.55584292       3.87585413      -0.00678663       0.00429276      -0.00618984
C       -2.45974430       5.69674884       3.79700695       0.00033411      -0.00277593      -0.00112804
C       -3.70310857       7.83241437       3.68300224       0.00130367      -0.00427063      -0.00490984
C       -4.93561013       9.96967816       3.68796557       0.00638005      -0.00065791       0.01594572
C        2.47106151       1.42797616       3.82200986       0.00108096       0.00250546      -0.00080768
C        1.20459239       3.56097299       3.96380588      -0.00166804       0.00788554       0.00624718
C        0.00917933       5.70928357       4.02831367       0.00380656       0.00387180      -0.00773018
C       -1.24043997       7.83446620       3.84499535      -0.00971171      -0.00020286       0.00376954
C       -2.46911039       9.97046711       3.77373241       0.00611224       0.00316843      -0.00208017
C        4.95125051       1.41192703       3.79965500      -0.00832402       0.00377053      -0.00103252
C        3.75498112       3.56202144       3.80356020      -0.00434296       0.00795041      -0.00518292
C        1.23423895       7.80203667       3.93301620      -0.00297259      -0.00353380      -0.01230952
C        0.00421815       9.96108146       3.83383492      -0.00067226      -0.00554280       0.00390472
C        7.41783504       1.40827154       3.81127383      -0.00231382       0.00394083       0.00147919
C        6.21226405       3.53648385       3.70008264      -0.00552188       0.00447264       0.00338725
C        5.00463340       5.63537571       3.34616667       0.00117951      -0.00125395       0.00874252
C        3.67217422       7.88361538       3.40622231       0.00907896       0.00319359       0.01283573
C        2.47334330       9.96258151       3.79446307      -0.00541810      -0.00345545      -0.00020619
C        9.87734752       1.41659608       3.80139133       0.00896871      -0.00724091       0.00154671
C        8.65533930       3.55170246       3.77245101      -0.00838313      -0.00125050      -0.00061143
C        7.42257535       5.68731589       3.61487971       0.00031839      -0.00129705       0.00700353
C        6.16246208       7.82589589       3.48666945       0.00833692      -0.00102588      -0.01569602
C        4.93593286       9.96561495       3.66872544       0.00224095      -0.00295040      -0.00429955
Hg       2.52669308       5.72070766       5.78766708       0.01300828      -0.00353717       0.00253418
O        3.38073419       6.02815183       7.65255999      -0.00033947      -0.01283588      -0.00234327
O        2.19381669       5.96591743       8.52055996       0.00048440      -0.01654096       0.00752374
H        2.44045207       5.16470744       9.02164083      -0.01638176       0.00594797       0.00518166
