52
Lattice="12.336457 0.0 0.0 -6.168228499999997 10.683685154694365 0.0 0.0 0.0 15.0" Properties=species:S:1:pos:R:3:forces:R:3 energy=-442.1107698816391 free_energy=-442.1107698816391 stress="-0.00035430087664506757 0.004402317316746669 1.3734544156272614e-05 0.004402317316746669 0.005111312639438051 5.264199350120461e-05 1.3734544156272614e-05 5.264199350120461e-05 -3.0653560301328794e-06" pbc="T T T"
C        0.00155243       0.01586191       3.83431312      -0.00325847       0.00632672       0.01050985
C       -1.21887870       2.14557126       3.77172492       0.00335856       0.00011632       0.00776997
C       -2.45249817       4.27561070       3.64870849       0.00107699      -0.00375334      -0.00246217
C       -3.71278216       6.41048464       3.65637297       0.00507490      -0.00157662      -0.01352816
C       -4.95734976       8.55051675       3.76502336       0.00375209       0.00764913       0.00060173
C        2.46493487       0.04968252       3.79077621      -0.00204489      -0.00057429      -0.00295770
C        1.25014012       2.23031132       3.99793011       0.00454885       0.00508680      -0.00272478
C        0.02063998       4.30889814       3.88201556      -0.00072713      -0.00079483      -0.00002574
C       -1.25115703       6.42735477       3.69468512       0.00684864       0.00540115       0.00343742
C       -2.48979921       8.55909741       3.69895279      -0.00038697       0.00893998       0.00739844
C        4.92865878      -0.00153703       3.68298753       0.00467577       0.00134256       0.00113484
C        3.74948424       2.13237451       3.68665445      -0.00185762      -0.00472908      -0.00596303
O        1.12838995       6.46447718       3.61136244      -0.00725914      -0.00249900      -0.00613191
C       -0.02421782       8.54204934       3.70348719      -0.00774727      -0.00114759      -0.01164641
C        7.40992266      -0.02843703       3.67933893      -0.00615704       0.00628267      -0.00212163
C        6.19863790       2.10608457       3.57771844      -0.00816290      -0.00028472      -0.00307179
C        4.99008354       4.19801250       3.60026310       0.00870019      -0.00193980      -0.01037758
B        3.73613640       6.32228741       4.18677287       0.00191871       0.00107248       0.00117309
C        2.43255384       8.49698913       3.82538164      -0.00733078      -0.00292811      -0.00097953
C        9.86812882      -0.01928536       3.77027397       0.00376677      -0.00070943       0.00020717
C        8.65673119       2.12179846       3.63411459      -0.00037820      -0.00567771      -0.00766001
C        7.42444731       4.26111215       3.57708374      -0.00130256      -0.00417222       0.00794729
C        6.15389945       6.37426158       3.72496040      -0.00378530       0.00178475       0.00780416
C        4.90675808       8.52021008       3.87207566       0.00896475       0.00127456       0.00609766
C        0.01925558       1.45412560       3.86674321       0.00380005       0.00429493       0.00618547
C       -1.22070557       3.57555493       3.73624423       0.00020448      -0.00223971       0.00043403
C       -2.47823494       5.69886263       3.65743850       0.01124329      -0.00099165       0.00536046
C       -3.72615142       7.84048370       3.70428876       0.00340097       0.00283599      -0.00348892
C       -4.93868903       9.98885257       3.80948982      -0.00369568       0.00567716       0.00153063
C        2.49563059       1.48743014       3.84521695      -0.00258323      -0.00422928       0.00280129
C        1.16466770       3.61042974       4.24330471       0.00279560       0.00656378       0.00390979
C       -0.04270466       5.74258684       3.75590889      -0.00049196      -0.00298611      -0.01645664
C       -1.26506758       7.85030125       3.68672967      -0.00449550       0.00618350      -0.00511173
C       -2.48409037       9.99597886       3.72176456       0.00397561       0.00681345       0.00262496
C        4.95319068       1.41859203       3.64165080      -0.00437871      -0.00225151      -0.00212058
O        3.80509958       3.49502333       3.52514197       0.00947809      -0.00456611       0.00941498
C        1.17817558       7.83146157       3.72953893      -0.01226966      -0.00442205       0.00375249
C       -0.00147946       9.96455311       3.68537044      -0.00117664      -0.00270041       0.00282734
C        7.42070823       1.40235549       3.61873538      -0.00786288       0.00389997       0.00050434
C        6.20290262       3.52247955       3.54629168       0.00244679      -0.00328225      -0.00303695
C        4.95232466       5.60205085       3.77519641      -0.00126075      -0.00374128       0.00453090
C        3.66452780       7.79566584       3.96320742       0.00388813       0.00275842      -0.00358545
C        2.46022119       9.93314762       3.75220395      -0.00373584       0.00317952       0.00228632
C        9.88181008       1.41130491       3.71610546       0.00458464       0.00033777       0.00193210
C        8.65493257       3.55016175       3.60409468      -0.00042741      -0.00643247      -0.00606091
C        7.39950611       5.68365847       3.63211719      -0.00583767      -0.00046456      -0.00151730
C        6.14256157       7.81064617       3.79918107       0.00693737       0.00377589       0.00518833
C        4.93217088       9.96244604       3.82729806       0.00306490       0.00078409      -0.00243768
Hg       2.45624209       4.91662099       5.34651608      -0.00610398       0.00577512       0.00564702
O        3.12041399       5.59665168       7.26131319       0.00307482      -0.01337915       0.00616897
O        2.22378664       4.90972731       8.20717231      -0.00215876      -0.00310332       0.00639685
H        2.90575137       4.45641128       8.73838782      -0.00470400      -0.01258010      -0.01211125
