52
Lattice="12.336457 0.0 0.0 -6.168228499999997 10.683685154694365 0.0 0.0 0.0 15.0" Properties=species:S:1:pos:R:3:forces:R:3 energy=-433.490821615763 free_energy=-433.490821615763 stress="-0.00024174423935983575 -0.0021284177746134347 1.6963811571248485e-05 -0.0021284177746134347 -0.0112438728432354 3.4433158837363205e-05 1.6963811571248485e-05 3.4433158837363205e-05 9.542499344401356e-06" pbc="T T T"
C        0.01085563      -0.02967251       3.89801976      -0.00186086      -0.00935702       0.00218064
C       -1.23152505       2.12142430       4.00453539      -0.00390769       0.00078885       0.00661908
C       -2.47200380       4.25519071       3.82051024       0.00312157       0.00357609       0.00179514
C       -3.69511958       6.37850985       3.69914608      -0.00102949       0.00124755       0.00315789
C       -4.92856454       8.50026581       3.78279030      -0.00600567      -0.00334713       0.00166097
C        2.48035742      -0.08651740       3.75967525      -0.00239842       0.00396315       0.00489824
C        1.26933355       2.03963824       4.08908851      -0.00271766      -0.00108463      -0.00322349
C       -0.03084583       4.26483203       4.10164485       0.01037176       0.00151412      -0.00379260
C       -1.19965177       6.37294639       3.65533773       0.00346901      -0.00509192      -0.00143703
C       -2.43750796       8.48855861       3.63112105      -0.00192422      -0.00102206       0.00387051
C        4.94158676      -0.03980703       3.56894277       0.00320250       0.00485170      -0.00697626
C        3.66824330       2.01916999       3.48461375       0.00457663       0.00425735       0.00030132
S        1.59643979       6.21847700       3.30532765      -0.01439418      -0.00587076      -0.00880241
C        0.02961094       8.52005608       3.55107858       0.00421043       0.00283810       0.00095978
C        7.39560346       0.01849916       3.61618533       0.00283526       0.00587681       0.00128042
C        6.14702939       2.13683266       3.48620159       0.00005517      -0.00183643      -0.00186937
C        4.95534303       4.31277548       3.39924156       0.00207650      -0.00392457       0.00938039
B        3.60525606       6.42000673       4.12685322      -0.00698062       0.00576567      -0.00989272
C        2.48751658       8.61573028       3.71003911       0.00306588      -0.00274012      -0.00161922
C        9.88125776       0.02563573       3.80644036      -0.00555326      -0.00548569       0.00892934
C        8.62788342       2.13881135       3.72612897      -0.00610007       0.00338952       0.00028840
C        7.39357418       4.26122241       3.62886891       0.00001513       0.00038146      -0.00211136
C        6.15390611       6.38994771       3.74739363       0.00897884       0.00558887       0.00185523
C        4.93855410       8.54841138       3.85192484       0.00274575       0.00263216       0.00357972
C        0.01093079       1.39609752       4.02188053      -0.00220837      -0.00771559       0.00535484
C       -1.24943310       3.53697667       4.00536930       0.00776876       0.00542766       0.00228838
C       -2.45594839       5.66996800       3.72009635       0.00025701       0.00163104       0.00619990
C       -3.68711115       7.79322428       3.70059577      -0.00545101      -0.00091026       0.00363863
C       -4.93069132       9.91585488       3.82601737      -0.00190983      -0.00617639       0.00007758
C        2.47306822       1.32698304       3.80648000       0.00240467       0.00585755       0.00044952
P        1.43384084       3.60889421       4.84568311      -0.00046330       0.00301598      -0.00226038
C       -0.00531546       5.61699387       3.74934910       0.00646957      -0.00155202      -0.01001782
C       -1.19819104       7.78824789       3.57817554       0.00285130      -0.00431888      -0.00215202
C       -2.44785544       9.91065965       3.63871343       0.00003321       0.00413122       0.00038357
C        4.92514777       1.39529342       3.49281721       0.00270605       0.00416745       0.00382407
S        3.45530277       3.62222373       2.89539494      -0.01467508      -0.00441003       0.00459373
C        1.28933264       7.90101038       3.55286075       0.00203395      -0.00189450      -0.00124780
C        0.01274788       9.95802103       3.56972816       0.00535813       0.00709862      -0.00666700
C        7.38410495       1.44090909       3.60221944      -0.00295548       0.00313283       0.00018043
C        6.15353518       3.55278555       3.48371398       0.00263533      -0.00455747      -0.00644666
C        4.90994592       5.67919532       3.70587320       0.01289847       0.00093776      -0.00331274
C        3.68721873       7.90464011       3.86824937       0.00471785       0.00483994       0.00508675
C        2.47168642      10.03270355       3.70568910      -0.00236762      -0.00323589       0.00175585
C        9.87226325       1.43640716       3.84974849      -0.00702553      -0.00164894      -0.00013836
C        8.62805168       3.55266445       3.72581369      -0.00007783       0.00387771       0.00005167
C        7.39865128       5.67721382       3.69078157       0.00313728       0.00181695      -0.00149800
C        6.16929730       7.80871290       3.82484246      -0.00352338       0.00352068      -0.00363171
C        4.94350004       9.98127137       3.85235378      -0.00300604      -0.00357631      -0.00464513
Hg       3.41123384       6.16921105       6.29000908       0.00600831      -0.00082532       0.00043809
O        3.58072571       6.21020785       8.39290812      -0.00239790      -0.00854377      -0.00444576
O        2.24477374       5.79957394       8.83158274      -0.00353368      -0.00898184       0.00443373
H        2.48410124       4.96056631       9.27238186      -0.00553713       0.00198076      -0.00332600
