52
Lattice="12.336457 0.0 0.0 -6.168228499999997 10.683685154694365 0.0 0.0 0.0 15.0" Properties=species:S:1:pos:R:3:forces:R:3 energy=-442.31375111915236 free_energy=-442.31375111915236 stress="0.00019284655331052255 0.0017039236284747165 1.4125963442408865e-05 0.0017039236284747165 0.006783571257751288 -1.4162413505346173e-05 1.4125963442408865e-05 -1.4162413505346173e-05 3.6169430115810747e-06" pbc="T T T"
C        0.12680631       0.07886450       3.82460818      -0.00112834      -0.00906674       0.00275076
C       -1.10452402       2.20775003       3.69164569       0.00226293      -0.01148249       0.00549884
C       -2.33366848       4.34240712       3.65826292       0.00030350      -0.00427185      -0.00342646
C       -3.57685247       6.47711550       3.76071958      -0.00451845       0.01053157      -0.00588804
C       -4.81866267       8.62175882       3.86478689      -0.00192625       0.00705933      -0.00026812
C        2.58254394       0.12629784       3.81466071      -0.00329567      -0.00096776      -0.00157659
C        1.33385851       2.25074382       3.74345714      -0.00340879       0.00585254      -0.00073075
C        0.11583368       4.34319565       3.57862658      -0.00097172       0.01137312      -0.00081132
C       -1.10703206       6.46927470       3.62431344      -0.00310306       0.00069776      -0.00168224
C       -2.35138649       8.62291545       3.73808312       0.00861341      -0.00253924       0.00317961
C        5.05488794       0.07269098       3.75815787      -0.00323185      -0.00226050      -0.00576656
C        3.85321304       2.26228730       3.93724901       0.00459451       0.00117282      -0.00213613
O        1.28543309       6.49396204       3.64238287      -0.00269188       0.00162308      -0.00342682
C        0.11506233       8.59148843       3.71188590       0.00236882      -0.00113044      -0.00626858
C        7.52965408       0.03576844       3.73921803       0.00259312       0.00713351      -0.00103433
C        6.31432950       2.18397655       3.78327252       0.00235362       0.00369574      -0.00337192
C        5.08896365       4.26760009       4.07815987      -0.00153555      -0.00332806       0.00526910
B        3.91388381       6.47409880       4.52929175       0.00873113       0.01050123      -0.00919245
C        2.56200193       8.55941161       3.89725081      -0.00423770      -0.01115194      -0.00348719
C        9.98947062       0.04366168       3.79543324      -0.00084895      -0.00036195       0.00374645
C        8.77133201       2.18793873       3.70804861      -0.00009910       0.00138182       0.00250372
C        7.54531755       4.32806586       3.79493806       0.00254476      -0.00866785      -0.00429482
C        6.30347596       6.45737017       4.00201457      -0.00244698      -0.00903638       0.00206487
C        5.04518386       8.60226050       3.99959504       0.00417860       0.00304387      -0.00201733
C        0.13215384       1.51402763       3.74982858       0.00157319      -0.01104014       0.01349943
C       -1.09591236       3.63845339       3.62468067       0.00612591      -0.00439728       0.00644584
C       -2.34088782       5.76034721       3.66924802      -0.00483067       0.00101383       0.00504539
C       -3.58679118       7.90805075       3.78755220       0.00113625       0.01326826      -0.00786599
C       -4.81114745      10.06264033       3.83846247      -0.00085334      -0.00002914      -0.00928620
C        2.57631558       1.56585062       3.83502687      -0.00350159       0.00284296       0.01192401
O        1.29263733       3.62187802       3.64946717       0.00371852       0.01146706      -0.01016470
C        0.10193410       5.76280287       3.57080122       0.00004725       0.00881849      -0.00227152
C       -1.12467093       7.89930626       3.67968457       0.00693799      -0.00332937      -0.00042738
C       -2.35717294      10.06348382       3.77398012      -0.00212479      -0.00526332       0.00673095
C        5.06670144       1.49654090       3.80732831       0.00514778      -0.00191968       0.00317248
N        3.93384016       3.58168625       4.19152784       0.00023320       0.00002193       0.01104111
C        1.31834472       7.86844803       3.76095479      -0.00626460      -0.00633348       0.00384192
C        0.12461162      10.02325730       3.73369137       0.00114931       0.00127913       0.00101688
C        7.54162672       1.46706137       3.72937312       0.00210530       0.00891185      -0.00263104
C        6.33111374       3.59507464       3.85823747      -0.00030760       0.00125694      -0.00346279
C        5.11663940       5.70907555       4.19283376      -0.00600082      -0.00503823      -0.00756920
C        3.80297476       7.89898888       4.12239257       0.00316900       0.00594048       0.00584499
C        2.58269564       9.99435561       3.79596693       0.00031876      -0.00643920      -0.00144774
C       10.00687590       1.47992720       3.72162955      -0.00431801       0.00036225      -0.00494723
C        8.77466691       3.61670718       3.70708472       0.00186650      -0.00653085       0.00180544
C        7.54003977       5.75639888       3.84287815      -0.00091186      -0.00722609      -0.00327979
C        6.28691118       7.89594108       3.97275269       0.00140894      -0.00306035       0.00926336
C        5.05852978      10.03216738       3.86680702      -0.00098727      -0.00124725      -0.00279438
Hg       2.59457207       5.32865569       5.72128493      -0.01156513      -0.00742383       0.01155722
O        0.93257456       4.06635525       6.23575041       0.01020278       0.00943094       0.00878899
O        0.46416357       4.60769524       7.52370120      -0.00432469       0.00268374      -0.01240587
H        0.70316702       3.85435143       8.09869515      -0.00425042       0.00217916      -0.00105789
