52
Lattice="12.336457 0.0 0.0 -6.168228499999997 10.683685154694365 0.0 0.0 0.0 15.0" Properties=species:S:1:pos:R:3:forces:R:3 energy=-443.23022730889613 free_energy=-443.23022730889613 stress="0.005119075233613999 0.000986687853005689 -4.889430424967427e-05 0.000986687853005689 -0.003759207946677009 1.2875016120493215e-05 -4.889430424967427e-05 1.2875016120493215e-05 -1.927596827531161e-06" pbc="T T T"
C        0.01356194       0.02545459       3.80940507       0.00828662       0.00565855       0.00044013
C       -1.19916802       2.18873243       3.73399168      -0.01075056      -0.00235975      -0.00608860
C       -2.44492046       4.32122936       3.58509666       0.00173760       0.00290003       0.00416944
C       -3.69348762       6.43864253       3.59789088      -0.00254141      -0.00630474      -0.00302289
C       -4.93308600       8.56079503       3.71678010       0.00799008      -0.00115145      -0.00005581
C        2.48676931       0.00192974       3.85554795      -0.00249746       0.00246700      -0.00166177
C        1.27351238       2.12420847       3.93764714       0.00256470      -0.00763713      -0.00150499
C        0.02668627       4.33390339       3.69330235      -0.00201847      -0.00195307      -0.00918332
C       -1.17638006       6.44790569       3.61178212      -0.00305286       0.00613385      -0.00336388
C       -2.44550420       8.56760660       3.71430517       0.00241317       0.00615664       0.00681088
C        4.95419805       0.03871164       3.80717630      -0.00566284      -0.00036368       0.00320505
C        3.71044563       2.18186856       3.94479807       0.00392562       0.00596427       0.00470894
B        1.50321372       6.40280606       3.75736588      -0.00387250       0.01366036      -0.00141334
C        0.03055833       8.58844799       3.77022315       0.00034291      -0.00362906      -0.00847654
C        7.41626343       0.07057590       3.77983588      -0.00701841      -0.01033239      -0.00405034
C        6.17771321       2.18277469       3.72521389       0.00343148       0.00218033       0.00808401
C        4.90113917       4.28855121       3.73050093      -0.00042354      -0.00195356      -0.00189661
B        3.45548769       6.38938296       3.76341639       0.00706399      -0.00639239       0.00514282
C        2.48358548       8.65333768       3.82350459      -0.00131112       0.00028657       0.00566607
C        9.89448225       0.07062628       3.78093633       0.00226903      -0.00711441      -0.00493134
C        8.65697579       2.19564935       3.67492793      -0.00357790      -0.00537899      -0.00606843
C        7.39925256       4.31351150       3.59004209       0.00351868      -0.00347920       0.00692890
C        6.12210122       6.42900499       3.63211091      -0.00022531       0.00741687      -0.00226659
C        4.93023357       8.57867053       3.76892670      -0.00751497       0.00564889       0.00028757
C        0.02491482       1.45534197       3.83133684      -0.00367144       0.00467411      -0.00224848
C       -1.19839757       3.61245564       3.65082186      -0.00593123      -0.00171411       0.00735440
C       -2.43785265       5.74063514       3.57869470      -0.00095677       0.00286357      -0.00399264
C       -3.68948347       7.85836468       3.66801255       0.00798393      -0.00436563       0.00545540
C       -4.92394002       9.98264206       3.80045120       0.00409363      -0.00008395       0.00558278
C        2.48943098       1.41790741       3.94873107       0.00654042       0.00055491      -0.00730997
B        1.33304491       3.61691606       3.97613666      -0.00399399      -0.00685461       0.01013865
C        0.07775326       5.73883082       3.63348400      -0.00285939       0.00136767      -0.00134430
C       -1.20376497       7.86785760       3.69294468       0.00057718       0.00530737      -0.00904012
C       -2.44491801       9.98764250       3.79976429      -0.00681540       0.00617066      -0.00209717
C        4.95258867       1.46373127       3.82688237       0.00363275       0.00208342      -0.00170962
C        3.71382017       3.58386934       4.00878349      -0.00923967       0.00873534       0.00968068
C        1.27956367       7.91619818       3.80528116       0.00091647       0.00504117      -0.00534221
C        0.02118909      10.02167995       3.78843600      -0.00822800      -0.00840580      -0.00643854
C        7.42027087       1.48589287       3.72117254      -0.00324892      -0.00719884      -0.00259351
C        6.16677809       3.59688681       3.65261498       0.00098906       0.00120975       0.00274169
C        4.86981340       5.71681119       3.66101304       0.00758621      -0.00309052      -0.00318279
C        3.68145406       7.90976326       3.80371322      -0.00541176      -0.00426680       0.00576598
C        2.48699750      10.06762884       3.80403683      -0.00117991      -0.00409517       0.00029800
C        9.89894178       1.48999554       3.72537317      -0.00744397      -0.00980695      -0.00140175
C        8.65063844       3.61394832       3.60168460       0.00514866      -0.00204864       0.00189898
C        7.38953826       5.73301215       3.58843071      -0.00294188      -0.00324706       0.00079518
C        6.15954728       7.85586430       3.69704897      -0.00215529       0.00999433       0.00867325
C        4.94647637      10.01469511       3.78828317       0.00852723       0.00454900      -0.00182090
Hg       2.48377089       4.91182154       5.36014976       0.00241939       0.01206422      -0.00160998
O        2.46488007       5.21056923       7.47289713       0.01409333       0.00091703      -0.00269940
O        2.02639404       3.89827339       7.96942151      -0.00376749      -0.00258362       0.00156291
H        2.82997613       3.68309347       8.47649658       0.01226031      -0.00819445       0.00142412
