51
Lattice="12.336457 0.0 0.0 -6.168228499999997 10.683685154694365 0.0 0.0 0.0 15.0" Properties=species:S:1:pos:R:3:initial_magmoms:R:1:forces:R:3 energy=-437.90256706890597 free_energy=-437.90256706890597 stress="-0.0010685674705235052 0.003974731723406419 -7.1056532976940045e-06 0.003974731723406419 0.004748195100427218 7.436970421179062e-06 -7.1056532976940045e-06 7.436970421179062e-06 1.5171949429983606e-05" pbc="T T T"
C       -0.01889319       0.08942715       3.77093698       0.00000000       0.00947638       0.00419928      -0.00202923
C       -1.24179759       2.21676839       3.68331331       0.00000000       0.00404622       0.00273620       0.00149597
C       -2.47390302       4.34849739       3.54062250       0.00000000      -0.00718300       0.00360036       0.00297555
C       -3.73088525       6.48604172       3.56155208       0.00000000      -0.00548699      -0.00521017       0.00434501
C       -4.97440800       8.62647401       3.70172274       0.00000000       0.00645447      -0.00127069      -0.00212255
C        2.44558799       0.12508505       3.70881750       0.00000000      -0.00283704       0.00360455       0.00566889
C        1.22678422       2.30581000       3.92060240       0.00000000       0.00530451      -0.00653687       0.00388112
C       -0.00329939       4.38082391       3.78617477       0.00000000       0.00475817       0.00027922       0.00223999
C       -1.27159382       6.50206072       3.57569884       0.00000000      -0.00287645       0.00049899       0.00015432
C       -2.50870137       8.63484667       3.59807907       0.00000000      -0.00713777       0.00365022       0.00243905
C        4.90982245       0.07244242       3.58864520       0.00000000      -0.00085963       0.00605759      -0.00601240
C        3.73094993       2.20513672       3.61010278       0.00000000      -0.00893358       0.00266291       0.01020463
O        1.10610955       6.54114747       3.52147159       0.00000000       0.00736959      -0.00278183       0.00145113
C       -0.04373226       8.61607115       3.60506926       0.00000000       0.00258810       0.00174109       0.00027800
C        7.39031027       0.04373474       3.59093691       0.00000000       0.00587990       0.00610787      -0.00314603
C        6.17882397       2.18046062       3.48674427       0.00000000       0.00086760      -0.00415621       0.00268381
C        4.97565822       4.27712799       3.55581890       0.00000000       0.00631002      -0.01042052       0.00723524
B        3.74300295       6.41123877       4.21448296       0.00000000      -0.01182958      -0.00660954      -0.01228863
C        2.41465535       8.56885067       3.77474140       0.00000000      -0.00418076      -0.00226831      -0.00725967
C        9.84762701       0.05283853       3.69833000       0.00000000      -0.00275154       0.00040182       0.00022475
C        8.63608030       2.19374871       3.53317386       0.00000000       0.00056068      -0.00034005       0.01198656
C        7.40568403       4.33607052       3.49424880       0.00000000       0.00338895      -0.00142300      -0.00254885
C        6.13968635       6.45023601       3.68989611       0.00000000       0.00114531       0.00608622      -0.00915196
C        4.89126284       8.59696082       3.84254429       0.00000000      -0.00420643       0.00337756      -0.01069500
C       -0.00399900       1.52622755       3.79055062       0.00000000       0.00420780       0.00724268       0.00140725
C       -1.24481887       3.64621289       3.63495288       0.00000000      -0.00457055       0.00554288       0.00045062
C       -2.49744827       5.77293667       3.54724679       0.00000000      -0.00709976      -0.00606209      -0.00069246
C       -3.74412442       7.91632815       3.61503709       0.00000000      -0.00094011      -0.00069826       0.01005548
C       -4.95757620      10.06455518       3.74082842       0.00000000       0.00633769       0.00079017       0.00744145
C        2.47581128       1.56177564       3.76704160       0.00000000      -0.00198393      -0.00324267       0.00174105
C        1.12746633       3.67868377       4.16982560       0.00000000       0.01037786      -0.00030263      -0.00251553
C       -0.06522407       5.81591409       3.64540162       0.00000000       0.00601882       0.00131125       0.00641058
C       -1.28412906       7.92523391       3.57371978       0.00000000      -0.00297436       0.00607704       0.01199329
C       -2.50303033      10.07151188       3.62912553       0.00000000      -0.00598492       0.00378579       0.00202889
C        4.93426359       1.49187544       3.55095658       0.00000000      -0.00528892      -0.00280172      -0.00035384
O        3.79254121       3.57150317       3.49370594       0.00000000      -0.00474374       0.00200709      -0.00656887
C        1.15901845       7.90433779       3.65452513       0.00000000       0.00030616      -0.00528944      -0.00745383
C       -0.02082405      10.03799494       3.59239150       0.00000000       0.00704994       0.00086822      -0.00427038
C        7.40010360       1.47469687       3.52293389       0.00000000       0.00525974       0.00461281      -0.00183181
C        6.18486936       3.59801037       3.46984659       0.00000000       0.00586975      -0.00068282      -0.00186649
C        4.94204994       5.67896282       3.76071617       0.00000000       0.00445666      -0.00523323      -0.00651725
C        3.64960024       7.87616301       3.94655350       0.00000000      -0.00942189       0.00144325      -0.00210546
C        2.44033778      10.00442124       3.68019561       0.00000000      -0.00410824      -0.00445783       0.00472172
C        9.85981619       1.48238053       3.62557499       0.00000000      -0.00254909      -0.00125921       0.00636325
C        8.63452616       3.62267734       3.50263785       0.00000000      -0.00320853      -0.00350445      -0.00229509
C        7.38194932       5.75889624       3.56130811       0.00000000       0.00031297      -0.00651619      -0.00578904
C        6.12733912       7.88702263       3.76415566       0.00000000       0.00378151       0.00357222      -0.00794963
C        4.91243559      10.03676837       3.77257710       0.00000000       0.00446461       0.00274502       0.00313353
Hg       2.45853772       5.02463668       5.27347602       0.00000000      -0.00908539      -0.00206831      -0.00721552
O        2.87821916       3.37531117       8.55382859       1.00000000       0.01255307      -0.00263562      -0.00386055
O        2.99046216       2.93481600       7.40107491       1.00000000      -0.00890432       0.00076938       0.00352894
