52
Lattice="12.336457 0.0 0.0 -6.168228499999997 10.683685154694365 0.0 0.0 0.0 15.0" Properties=species:S:1:pos:R:3:forces:R:3 energy=-441.0371287651855 free_energy=-441.0371287651855 stress="-0.001859368016449028 -0.0009591474025991709 3.134714987739319e-05 -0.0009591474025991709 -0.004354689281062832 -4.156878383701446e-05 3.134714987739319e-05 -4.156878383701446e-05 -1.0228982981693755e-05" pbc="T T T"
C       -0.01559627      -0.05816221       3.79538860      -0.00129939       0.00392170       0.01341774
C       -1.24755728       2.08955464       3.91839220       0.01208912       0.00140124       0.00982993
C       -2.48932350       4.22590883       3.82076239      -0.00409188      -0.00118919       0.00260697
C       -3.71601548       6.35917280       3.68192284      -0.00689563      -0.00188345      -0.00646395
C       -4.94572502       8.49329316       3.66999649      -0.00406753      -0.00054145       0.00547885
C        2.45485201      -0.09608552       3.63417621      -0.00218588       0.00244263       0.00373228
C        1.25375230       2.00968127       3.96668794      -0.00266716      -0.00747720      -0.00892465
C       -0.06193130       4.28312296       4.17822847       0.00737582      -0.00597587      -0.00176695
C       -1.27941061       6.38560745       3.89439208       0.00105048       0.00304411       0.00067229
C       -2.48107786       8.49026863       3.66038385       0.00787185      -0.00158142      -0.00563571
C        4.92581636      -0.06394567       3.54566566       0.00125247      -0.00506398       0.00951171
C        3.65774399       2.01901365       3.36285451      -0.00143717       0.00586028      -0.00383646
C        1.08724264       6.45872096       4.54678745      -0.00361905       0.01622401       0.01016168
C       -0.01771377       8.50075323       3.83448765       0.00718650      -0.00010883      -0.01201609
C        7.38842310      -0.05245185       3.69389375      -0.00475357      -0.01243136      -0.00154160
C        6.14698001       2.09156986       3.46652987       0.00330690       0.00324211       0.00702832
C        4.92884151       4.29441097       3.35148148       0.01121368      -0.00179640       0.00147764
N        3.74312944       6.40076166       3.59872170      -0.00369400      -0.00476524      -0.00303479
C        2.45936270       8.48131730       3.89410411      -0.00546032      -0.00422622       0.01077878
C        9.85229314      -0.05180890       3.78995934      -0.00813462      -0.00044934      -0.00639195
C        8.61680038       2.08840755       3.70725046      -0.00305842       0.00473182       0.00137498
C        7.37925569       4.22767844       3.59624315      -0.00106295       0.00529426      -0.00098216
C        6.17151372       6.38771942       3.60149844       0.00312026      -0.01099304      -0.00426904
C        4.92675013       8.50037406       3.71759319      -0.00258798      -0.00296267       0.01436073
C       -0.01272734       1.36499131       3.92001266       0.00333201       0.00065305       0.00889912
C       -1.24738454       3.52284588       3.97089838       0.00714653      -0.00331399       0.00072710
C       -2.49044527       5.65062861       3.78553094      -0.00437453      -0.00023521      -0.01390024
C       -3.71284855       7.77931427       3.66001716       0.00008601       0.00099455       0.01030895
C       -4.95400511       9.90588707       3.70755555      -0.00677846       0.00568882       0.00364586
C        2.45604468       1.30654483       3.64445489       0.00180690       0.00302486       0.01108240
P        1.54636891       3.65675613       4.48873428      -0.00005260       0.00495852      -0.00064367
C       -0.05878385       5.71474458       4.19747075       0.00957436       0.00537520      -0.00282569
C       -1.25324081       7.79345180       3.78201509       0.01000311      -0.00027215      -0.00281929
C       -2.47246770       9.90085814       3.59126451      -0.00116455      -0.00155847      -0.00868422
C        4.91820656       1.36465552       3.42147040       0.00363111      -0.00146505       0.00754272
P        3.34789830       3.67310654       2.84774608       0.00507304       0.00827461      -0.01624688
C        1.20964671       7.77497106       4.09255465      -0.00447892       0.00733586      -0.00855290
C       -0.01065563       9.91448960       3.67092037      -0.00093109      -0.00452412       0.00919031
C        7.38047907       1.37772180       3.61132362      -0.00199527      -0.00482765      -0.00317290
C        6.12714912       3.53199364       3.46013692       0.00912741       0.00563080      -0.00617275
C        4.91931491       5.72542391       3.50651090       0.00256446      -0.00215435      -0.00999001
C        3.70286755       7.75114072       3.73650724      -0.00813361      -0.00052280      -0.00394445
C        2.45386003       9.90063378       3.79006158      -0.00784072      -0.01070608      -0.01080414
C        9.85479370       1.37822758       3.80699639       0.00464561       0.00244502      -0.00287298
C        8.61388864       3.51559341       3.70139250      -0.00744119       0.00702853       0.00115487
C        7.38726987       5.65078815       3.62465910       0.00120599      -0.00421936      -0.00846067
C        6.15951803       7.79600043       3.66576138      -0.00129586      -0.01115973       0.01089892
C        4.91700086       9.91901401       3.77728774      -0.00084337       0.00291825       0.00135621
Hg       2.29768658       5.75386476       6.10064751      -0.00327134      -0.01225993      -0.00788879
O        3.50647184       5.61430924       7.76051374       0.00048954      -0.00117010       0.01157681
O        2.54000700       5.59612308       8.87639084      -0.00653157       0.00687944      -0.00612214
H        2.83256248       6.41589202       9.31928663      -0.00300459       0.01246496       0.00114988
