51
Lattice="12.336457 0.0 0.0 -6.168228499999997 10.683685154694365 0.0 0.0 0.0 15.0" Properties=species:S:1:pos:R:3:initial_magmoms:R:1:forces:R:3 energy=-435.0321679282818 free_energy=-435.0321679282818 stress="0.004848723596567231 -0.0006798032369572936 -1.4891215336868586e-05 -0.0006798032369572936 -0.0006768289292495057 -3.0023061781804187e-05 -1.4891215336868586e-05 -3.0023061781804187e-05 6.904234774770904e-05" pbc="T T T"
C        0.01876080      -0.01754684       3.55244969       0.00000000      -0.00706920       0.00998858       0.00474703
C       -1.22634805       2.12487330       3.38031063       0.00000000      -0.00277813      -0.00894344       0.00320023
C       -2.47969635       4.26340152       3.54944487       0.00000000       0.00962704      -0.00497988       0.00177465
C       -3.70597055       6.38850666       3.72536875       0.00000000       0.00014162       0.00219023       0.00497125
C       -4.92437892       8.52001220       3.71038108       0.00000000      -0.00137378       0.00081179       0.00805885
C        2.49474382      -0.01577692       3.65192736       0.00000000      -0.00509454      -0.00302275      -0.00061669
C        1.27128410       2.07664429       3.21736552       0.00000000       0.00248310       0.00074409       0.00615023
C       -0.03707042       4.27169695       3.24516706       0.00000000      -0.00338005      -0.00118542      -0.00518101
C       -1.19727895       6.37840528       3.73456451       0.00000000      -0.00360131       0.00032559       0.00294837
C       -2.44286529       8.51315526       3.79523077       0.00000000       0.00460152       0.00091066       0.00702046
C        4.94824016      -0.02719828       3.77227659       0.00000000       0.00382988      -0.00281594      -0.00296347
C        3.74279066       2.10316959       3.63155045       0.00000000       0.00422734       0.00465774       0.00695539
P        1.70273518       6.15476085       4.18492624       0.00000000       0.00839499      -0.00571914      -0.00652814
C        0.03739023       8.52149104       3.90944121       0.00000000      -0.00637721       0.00350542       0.00416914
C        7.40867717       0.00772543       3.77221075       0.00000000       0.00842194       0.00248252      -0.00655866
C        6.16614553       2.13277431       3.73108264       0.00000000      -0.00622393       0.00084453       0.00794504
C        4.91402233       4.23048040       3.78822858       0.00000000       0.00083890       0.00777862       0.00587011
C        3.59903546       6.43371135       3.86417102       0.00000000       0.00361218       0.00355803       0.01247870
C        2.49792962       8.59655299       3.86056456       0.00000000      -0.01042276      -0.00088742       0.00027532
C        9.88910374       0.01079798       3.63724298       0.00000000       0.00591319      -0.00135913      -0.00140420
C        8.63807672       2.13747755       3.61717881       0.00000000      -0.00372471       0.00064297      -0.00006283
C        7.37892713       4.27124659       3.70357309       0.00000000      -0.00139649      -0.00206975       0.00081652
C        6.10841689       6.37220682       3.76174636       0.00000000       0.00093491      -0.00395641      -0.00380829
C        4.95442715       8.53953867       3.71699290       0.00000000       0.00086140      -0.00273506      -0.00771370
C        0.02250582       1.40671916       3.37112112       0.00000000      -0.00213560       0.00355238      -0.00762703
C       -1.25800313       3.54194462       3.36050430       0.00000000       0.00475954      -0.01160557      -0.00587453
C       -2.46274926       5.68324174       3.66896005       0.00000000       0.00031304      -0.00068984      -0.00151586
C       -3.68975186       7.80943706       3.75119856       0.00000000       0.00341093       0.00375263       0.00630483
C       -4.91559703       9.94808202       3.63968402       0.00000000      -0.01201251       0.00276691      -0.00112705
C        2.50729869       1.41186388       3.50802049       0.00000000       0.00562924       0.00008622      -0.00590654
P        1.31835588       3.60848783       2.37417322       0.00000000       0.00193121      -0.00644593       0.00611075
C        0.02875951       5.63519266       3.61695083       0.00000000      -0.00786686      -0.00176850       0.00008399
C       -1.20513881       7.80343969       3.84578140       0.00000000      -0.00109313       0.00113348      -0.00061723
C       -2.44953309       9.94505423       3.75799783       0.00000000       0.00027142      -0.00044412       0.01273535
C        4.94273133       1.40844195       3.71955199       0.00000000      -0.00111158      -0.00226154       0.01033848
O        3.75545816       3.47884478       3.78722573       0.00000000       0.00359376       0.00821504      -0.00085761
C        1.30380300       7.87855888       3.99640865       0.00000000      -0.01033453      -0.00419928      -0.00224491
C        0.01897594       9.95504141       3.83344697       0.00000000       0.00693246       0.00223158       0.00300971
C        7.39810570       1.43242809       3.70968865       0.00000000      -0.00460638       0.00233057      -0.00234659
C        6.13823251       3.55671295       3.74286275       0.00000000      -0.00475375       0.00142201      -0.00348012
C        4.82625938       5.65795443       3.81393220       0.00000000       0.00205662       0.00449628      -0.01044794
C        3.71565047       7.83427668       3.80849691       0.00000000      -0.00506755       0.00157412      -0.00423232
C        2.48571774      10.00613824       3.75810364       0.00000000       0.00651087       0.00012439      -0.00383944
C        9.88096051       1.42581871       3.54084329       0.00000000      -0.00437567      -0.00398655      -0.00130263
C        8.62128697       3.56000283       3.61931433       0.00000000       0.00408114       0.00096082      -0.00395764
C        7.36506415       5.68591977       3.72871501       0.00000000      -0.00040807      -0.00224431      -0.00067421
C        6.16614640       7.80360530       3.72578577       0.00000000       0.00141414      -0.00487450       0.00197528
C        4.95341533       9.96586063       3.63361427       0.00000000       0.00251921      -0.00021727       0.00171286
Hg       1.69136230       5.67442661       6.52007257       0.00000000       0.00356401      -0.00510384      -0.00862057
O        1.65487610       6.11393667       9.24670573       1.00000000      -0.00051844       0.01387693      -0.01232640
O        1.70127216       4.98403959       8.59075233       1.00000000       0.00485056      -0.00344855      -0.00781693
