52
Lattice="12.336457 0.0 0.0 -6.168228499999997 10.683685154694365 0.0 0.0 0.0 15.0" Properties=species:S:1:pos:R:3:forces:R:3 energy=-439.32639338594703 free_energy=-439.32639338594703 stress="0.003306888861022539 -0.004831193466120654 1.94596006188651e-05 -0.004831193466120654 -0.0037355212198787744 -7.468126471439957e-05 1.94596006188651e-05 -7.468126471439957e-05 -1.9817145051473806e-05" pbc="T T T"
C        0.02836244      -0.03268079       3.72865069      -0.00150949       0.00007854      -0.00688987
C       -1.22849010       2.10360234       3.68769614      -0.00661846       0.00158897      -0.01206548
C       -2.45396370       4.25092416       3.73252913      -0.00004863       0.00107397      -0.00905073
C       -3.66876081       6.37904605       3.80751786      -0.00273045       0.00033632      -0.00325697
C       -4.89490770       8.51340259       3.80851565       0.00010797       0.00012609      -0.00634648
C        2.48759478      -0.02989524       3.75322659       0.00787042      -0.00801996       0.00061853
C        1.20963907       2.07768387       3.69609605      -0.00063926       0.00684832      -0.00362693
C       -0.00274434       4.16801503       3.81170692      -0.00320497      -0.00367869      -0.00166876
C       -1.14157721       6.33633483       3.85822248       0.00070385      -0.00309379      -0.00088929
C       -2.41073726       8.49849839       3.84222670      -0.00052805       0.00325633       0.01148859
C        4.95731047      -0.03109573       3.73353687       0.00451986       0.00266460       0.00010344
C        3.69009375       2.07962789       3.41130909      -0.00746227       0.00136774       0.00333341
P        1.78087297       6.18295113       4.29814538      -0.00220764      -0.00027807       0.00047227
C        0.05933249       8.51374833       3.93205719      -0.00426935       0.00299654       0.00745725
C        7.40921577       0.00901641       3.74965307       0.00348820      -0.00025656       0.00020901
C        6.15905588       2.13694772       3.58116522      -0.00119166      -0.00937023      -0.01176372
C        4.93893296       4.30180603       3.50285807       0.00619025       0.00029402       0.00099605
C        3.62765323       6.45581220       3.84409931       0.00533714       0.00076855       0.00144461
C        2.51339986       8.60426345       3.88158230       0.00096823      -0.00556901      -0.01451492
C        9.89320819       0.00318615       3.71620252      -0.00279636      -0.00505800       0.00067922
C        8.63485234       2.13276460       3.67300273       0.00358214       0.00322974       0.00511335
C        7.40075865       4.26786326       3.70233854      -0.00182217      -0.00524316      -0.00047629
C        6.15791243       6.39836139       3.79965704      -0.00243675       0.00235341      -0.01014715
C        4.97491832       8.54327125       3.77302620      -0.00071641      -0.00552063      -0.00455457
C        0.00869550       1.38932062       3.69429493      -0.00324600       0.00661385      -0.00322341
C       -1.22688023       3.51299842       3.71392673      -0.00478410      -0.00162716      -0.00275898
C       -2.41860567       5.66388405       3.79572478      -0.00051173      -0.00027974       0.00514640
C       -3.65650017       7.79922073       3.82744678      -0.00095569       0.00291491       0.00856471
C       -4.90447552       9.93854356       3.77590006       0.00284740      -0.00100879       0.00610005
C        2.45944967       1.39551127       3.63510027      -0.00347142      -0.00540517      -0.00906222
O        1.17461843       3.43616178       3.91574820       0.00882319       0.01215161      -0.01232233
C        0.08353834       5.56047537       3.87720933       0.00140667      -0.00706942      -0.00067002
C       -1.16661756       7.77818278       3.89115499      -0.00479117      -0.00100556       0.00902916
C       -2.43576155       9.93084152       3.78655584       0.00916662      -0.00057739      -0.00736347
C        4.93413546       1.40244138       3.56758569      -0.00532987      -0.00201134       0.00456799
P        3.62676617       3.62343139       2.59794393       0.00883178       0.00805045       0.00210979
C        1.32979863       7.87567949       4.03816243      -0.00100069       0.00172343      -0.00031391
C        0.02637505       9.95138090       3.81271422       0.00244163       0.00217386      -0.00454728
C        7.39608911       1.42933540       3.66450431       0.00440136       0.00031881       0.00745297
C        6.15917606       3.56302920       3.59168930      -0.00121505      -0.00933938      -0.00332109
C        4.88006122       5.71485393       3.74498848       0.00125873       0.00313857      -0.00242171
C        3.73387739       7.85736438       3.82319702       0.00214604      -0.00289874       0.01189039
C        2.48743905      10.00752364       3.77346437      -0.00000324      -0.00455068       0.00298867
C        9.88019241       1.41819155       3.68290989      -0.00247779      -0.00319916      -0.00117599
C        8.63505497       3.55354941       3.69720655       0.00209337       0.00221569       0.00338943
C        7.40688431       5.68791120       3.77329818      -0.00344684      -0.00355646       0.01182578
C        6.19969907       7.81559602       3.80023181      -0.00090577       0.00048520       0.01427366
C        4.96097522       9.96018020       3.73572922      -0.00199114      -0.00597960       0.00384095
Hg       1.96380001       5.73649835       6.61153459       0.00318731      -0.00125166       0.00345106
O        2.20821501       5.08659146       8.56694303      -0.00185877       0.01206412       0.00507815
O        1.38554236       6.06126990       9.30892018      -0.00144243       0.00978029       0.00070045
H        2.09482113       6.45034713       9.85708059      -0.00375855       0.00723443       0.00010625
