52
Lattice="12.336457 0.0 0.0 -6.168228499999997 10.683685154694365 0.0 0.0 0.0 15.0" Properties=species:S:1:pos:R:3:forces:R:3 energy=-438.9912029274908 free_energy=-438.9912029274908 stress="-0.0006415626681045446 -0.0013540394481526153 3.822437786169457e-05 -0.0013540394481526153 -0.003869315933273608 -3.631970404597002e-05 3.822437786169457e-05 -3.631970404597002e-05 -1.7753617903930524e-05" pbc="T T T"
C       -0.02321189      -0.05601785       3.78550032       0.00137342      -0.00049339       0.00617842
C       -1.25411215       2.09231408       3.91557557       0.00345716      -0.00256625      -0.00348492
C       -2.49653437       4.22633704       3.82881525      -0.00776141       0.00565963       0.00387349
C       -3.72230759       6.35748746       3.69446212      -0.00545321      -0.00138388      -0.00467606
C       -4.95914172       8.48808287       3.67520276       0.00339063       0.00053749       0.00671897
C        2.44819532      -0.10157825       3.61604747      -0.00283998       0.00615280       0.01225865
C        1.24709236       2.00839904       3.93266549       0.00050757      -0.00695191       0.01095258
C       -0.06515455       4.28391419       4.17107896       0.00363985      -0.00713862      -0.00233077
C       -1.28033943       6.38358198       3.88859450      -0.00006676       0.00497963       0.00129210
C       -2.48486727       8.48724920       3.65743965       0.00125926       0.00093201      -0.00627749
C        4.92194504      -0.06571274       3.54220830       0.00985656      -0.00758187       0.00187606
C        3.65235590       2.01501242       3.34898660      -0.00238037       0.00278159      -0.00045363
C        1.09606056       6.45461326       4.52627120      -0.00799792       0.00960622       0.00081201
C       -0.01338544       8.49536745       3.81683533      -0.00068038      -0.00524180      -0.00264400
C        7.38533820      -0.05117850       3.69117056      -0.00261598      -0.00224827      -0.00784636
C        6.13650532       2.10199248       3.48323670       0.00262963       0.00821612       0.00963615
C        4.90696273       4.32269295       3.38358963       0.00446395       0.00088050      -0.00710603
O        3.75306363       6.42910942       3.61135340      -0.00501613      -0.00371122      -0.01084059
C        2.47205243       8.47394639       3.87985698      -0.00605934       0.00032576      -0.00376663
C        9.84528114      -0.04955702       3.78730099      -0.00360940       0.00085414       0.00344794
C        8.60825305       2.09230313       3.71935205       0.00074569      -0.00081066      -0.00589196
C        7.36488283       4.23084824       3.62189693       0.00253673      -0.00352370      -0.00625245
C        6.15729686       6.38540663       3.62323801       0.00302384      -0.00495258       0.01041194
C        4.91608020       8.50267488       3.73371667       0.00186783      -0.00352074       0.00458963
C       -0.01935640       1.36740871       3.90216880       0.00322464      -0.00544456       0.00739608
C       -1.25260182       3.52470630       3.97107523      -0.00246133       0.00044722      -0.00088813
C       -2.49383798       5.64991462       3.78964340      -0.00505967       0.00832882       0.00345384
C       -3.71862165       7.77777467       3.66649225      -0.00020951       0.00043570       0.00111298
C       -4.96162931       9.90434538       3.69754489       0.00001346       0.00209721       0.00703129
C        2.44952359       1.30134238       3.61801216      -0.01090654       0.00703382       0.00427320
P        1.53794312       3.64475552       4.48381944       0.00717379      -0.00091144      -0.00843251
C       -0.05681727       5.71423183       4.18509327      -0.00277536      -0.00056798       0.00859642
C       -1.25410478       7.79071679       3.77320266       0.00055006       0.00007353      -0.00529329
C       -2.47679328       9.89728254       3.58221734       0.00227036       0.00136597      -0.00679935
C        4.91278878       1.36498903       3.42342300       0.00500494      -0.00160291       0.00611335
P        3.34046221       3.66774375       2.84001919       0.01340123       0.00080978      -0.01099068
C        1.21130340       7.76658686       4.06870425      -0.00812636       0.00407991       0.00184409
C       -0.01348847       9.91334534       3.66306633       0.00575315      -0.00975180       0.00543502
C        7.37208714       1.38221470       3.62180711      -0.00113391       0.00212707      -0.00242400
C        6.11384271       3.54269445       3.48833211       0.00536292       0.00826661      -0.00615021
C        4.94189735       5.72291664       3.52134015       0.00112920       0.00069929      -0.00691787
C        3.71193325       7.80200585       3.76003025      -0.00309440      -0.00140511       0.00632333
C        2.45303961       9.90156390       3.78248065      -0.00449748      -0.00044559      -0.01691945
C        9.84794969       1.38440386       3.80852078       0.00087862       0.00000669       0.00267687
C        8.60598680       3.51737460       3.71903425      -0.00124843      -0.00253809      -0.00206849
C        7.38211538       5.64794568       3.64688706       0.00031892      -0.00681224      -0.00849761
C        6.15171759       7.79611188       3.68183186       0.00568063      -0.00415360       0.00287894
C        4.90787777       9.92754323       3.77815061      -0.00113271       0.00030630       0.00424276
Hg       2.32331426       5.77927066       6.07323606       0.00590091      -0.01149656      -0.00453060
O        3.56781637       5.64448609       7.70602059       0.00991346       0.00126592       0.00502368
O        2.62975616       5.53225812       8.84072797      -0.01405340       0.00301759       0.00667161
H        2.91266462       6.33040387       9.32712288      -0.00614843       0.01396744      -0.00363832
