51
Lattice="12.336457 0.0 0.0 -6.168228499999997 10.683685154694365 0.0 0.0 0.0 15.0" Properties=species:S:1:pos:R:3:initial_magmoms:R:1:forces:R:3 energy=-436.1050995692383 free_energy=-436.1050995692383 stress="0.002581579290609824 0.004558075186617732 -1.4826970635734905e-05 0.004558075186617732 -0.0054656561546833245 -1.3918256273060348e-06 -1.4826970635734905e-05 -1.3918256273060348e-06 -6.8768056158656445e-06" pbc="T T T"
C       -0.00063939      -0.00115986       3.74553638       0.00000000       0.00411930      -0.00233007       0.00359799
C       -1.18762224       2.17356193       3.50809396       0.00000000      -0.00245836      -0.00160655      -0.00291573
C       -2.43866536       4.30758597       3.52273005       0.00000000      -0.00514980      -0.00495109      -0.00338042
C       -3.70717316       6.41852646       3.63398019       0.00000000       0.01203596      -0.00194148       0.00194111
C       -4.96223965       8.53288326       3.78217425       0.00000000      -0.00638676       0.00109237      -0.00228709
C        2.46277350      -0.01391235       3.83999924       0.00000000       0.00923559      -0.00558557      -0.00115732
C        1.28255812       2.06336794       3.45415030       0.00000000      -0.00606653      -0.00900020       0.01054636
C        0.00296704       4.35180975       3.28216428       0.00000000      -0.00028163      -0.00021388      -0.00010507
C       -1.20081500       6.44195593       3.57522051       0.00000000       0.01073938       0.01048505      -0.01128184
C       -2.47869272       8.55244157       3.73993587       0.00000000      -0.00235593      -0.00059426      -0.00647828
C        4.93581709       0.01387873       3.78825934       0.00000000      -0.00210051       0.00332849      -0.01083402
C        3.71650220       2.15041318       3.95196855       0.00000000      -0.00423298       0.00066396      -0.00438677
C        1.33640190       6.50092730       3.56388965       0.00000000      -0.00677459       0.00335830       0.00286256
C       -0.01703890       8.58973500       3.66976275       0.00000000       0.00782766       0.00240508      -0.00028326
C        7.40730706       0.04479034       3.71029357       0.00000000      -0.00920229       0.00440103      -0.00578461
C        6.19204215       2.14088461       3.71901683       0.00000000       0.00171761       0.00188252       0.00576211
C        4.94838041       4.22066943       3.81466954       0.00000000       0.00851906      -0.00364004      -0.00272088
P        3.17497187       6.18755961       3.92770667       0.00000000      -0.00604247       0.00287766      -0.00621351
C        2.44486979       8.63997145       3.80415473       0.00000000       0.00240834      -0.00262240       0.00127746
C        9.89082961       0.04704697       3.73412691       0.00000000      -0.00791627       0.00171417       0.00491803
C        8.66641370       2.17124100       3.60929577       0.00000000       0.00055953      -0.00113393      -0.00847726
C        7.41682604       4.28610091       3.59690961       0.00000000      -0.00141350       0.00258434       0.00224155
C        6.11657891       6.39552912       3.68635300       0.00000000      -0.00432404      -0.00001917       0.00782293
C        4.89885068       8.54308939       3.87031715       0.00000000      -0.00505166       0.00631275      -0.01181619
C        0.02295106       1.42918598       3.56887620       0.00000000      -0.00482238      -0.00716883      -0.00586654
C       -1.18933233       3.60065454       3.43337539       0.00000000      -0.00473205      -0.00161570      -0.01268470
C       -2.44463661       5.72737583       3.56891668       0.00000000       0.01508133      -0.00206621       0.00964641
C       -3.71698131       7.83634471       3.72321458       0.00000000      -0.00446716      -0.00041534      -0.00326821
C       -4.94583299       9.95959784       3.80557273       0.00000000       0.00833890      -0.00046593      -0.00620247
C        2.47727452       1.40448342       3.80586232       0.00000000      -0.00338250      -0.00704736       0.00953178
S        1.43326424       3.60406689       2.69484684       0.00000000      -0.00009116      -0.00828709      -0.00243400
C        0.07949877       5.76032482       3.47702647       0.00000000       0.00240336       0.00245447       0.00470906
C       -1.23819487       7.85912108       3.66023342       0.00000000       0.00694603       0.00887096       0.01173225
C       -2.46796005       9.96911738       3.81627465       0.00000000       0.00501558      -0.00414784       0.00093359
C        4.95299701       1.43070037       3.82700428       0.00000000      -0.00192821       0.00384989       0.00480224
C        3.79379293       3.51666213       4.20759077       0.00000000       0.01209128      -0.00112430      -0.00136039
C        1.22658921       7.90284101       3.66865666       0.00000000       0.00425246      -0.00158926       0.00680668
C        0.00021015      10.00562431       3.72043315       0.00000000      -0.00391888       0.00187757       0.00651651
C        7.42846869       1.45303770       3.67180383       0.00000000       0.00100133       0.00474043       0.01078918
C        6.20145550       3.55000607       3.67349627       0.00000000       0.00493467      -0.00132910       0.00051824
C        4.89312082       5.63927046       3.70569078       0.00000000      -0.00487465      -0.00034087      -0.00569146
C        3.62446494       7.89246915       3.94220107       0.00000000       0.00123992      -0.00023639       0.01401016
C        2.47550124      10.04469702       3.75491309       0.00000000      -0.01032909      -0.00097375      -0.00624827
C        9.91139545       1.47040205       3.61913837       0.00000000      -0.00037087      -0.00091230      -0.01504587
C        8.66333931       3.59025955       3.56613049       0.00000000      -0.00781265      -0.00347470       0.00372416
C        7.38676775       5.70702193       3.62177962       0.00000000       0.00517216       0.00235271       0.01291201
C        6.13008494       7.82325044       3.78452079       0.00000000      -0.00945032       0.00335329      -0.00799870
C        4.92890800       9.98046286       3.79732713       0.00000000      -0.00252392       0.00581343      -0.00264862
Hg       2.73657873       4.59343494       5.80373294       0.00000000       0.00069947       0.00341952       0.01468802
O        3.05960813       4.23032209       8.48805022       1.00000000       0.00857862      -0.00484439       0.00355439
O        1.94453342       4.25358111       7.79566845       1.00000000      -0.00445639       0.00184001      -0.00827329
