52
Lattice="12.336457 0.0 0.0 -6.168228499999997 10.683685154694365 0.0 0.0 0.0 15.0" Properties=species:S:1:pos:R:3:forces:R:3 energy=-441.54714496860544 free_energy=-441.54714496860544 stress="0.003860291626158277 -0.00441487458892338 1.2910096917748949e-05 -0.00441487458892338 -0.004713420384373811 -4.7490606441564346e-05 1.2910096917748949e-05 -4.7490606441564346e-05 -2.9013125748646774e-05" pbc="T T T"
C        0.02863308      -0.02683475       3.73556901      -0.00070190       0.00086217       0.00879736
C       -1.22060352       2.10768509       3.66121736       0.01008200       0.00131009       0.00445269
C       -2.44091478       4.24862131       3.70925869       0.00546622      -0.00026076      -0.00155928
C       -3.66354555       6.37654392       3.82047816      -0.00106564      -0.00611222       0.00577312
C       -4.89282563       8.51259560       3.82745342      -0.00202670      -0.00321076       0.00738243
C        2.49791791      -0.04685030       3.72196966      -0.00673517       0.00812059      -0.00093883
C        1.23419850       2.10976622       3.59736361       0.00159184       0.00064325      -0.01736892
C        0.05627014       4.17006802       3.67122891      -0.00478836       0.00627552      -0.00720205
C       -1.13494138       6.34469630       3.84771955       0.00095409       0.00305828       0.00647484
C       -2.40620695       8.49677829       3.84727394      -0.00306584      -0.00278980       0.00775732
C        4.96303173      -0.02970052       3.73250046       0.00271483      -0.00135152      -0.01658998
C        3.69362590       2.06992888       3.39677146       0.00888221       0.00468483       0.00933488
P        1.76334788       6.18590387       4.32333968       0.00093068      -0.01458402       0.00767744
C        0.06134476       8.52119339       3.95443930       0.00099881      -0.00193749      -0.00355364
C        7.41397271       0.01408999       3.77053487       0.00014395       0.00378825       0.00980876
C        6.16059905       2.13868524       3.60183014      -0.00242426       0.01145413      -0.00695089
C        4.92555418       4.30040319       3.57490601      -0.00223879      -0.00488941       0.00713329
C        3.62570102       6.45803123       3.89910209       0.00304756      -0.00573800       0.01021527
C        2.51519320       8.60959093       3.92350501      -0.00822064       0.00113375       0.00883100
C        9.89658750       0.00777949       3.74525611       0.00630169       0.00099907      -0.00206658
C        8.63980221       2.13638226       3.67894132      -0.00426432      -0.00563848       0.01024046
C        7.40149098       4.26755697       3.72266148       0.00441458       0.00099107       0.00858003
C        6.15851670       6.39742919       3.84865207       0.00107924      -0.00290568       0.00270670
C        4.97743253       8.54667715       3.82171768      -0.00281681      -0.00255996       0.00499787
C        0.00955981       1.38970417       3.67000407       0.00643492      -0.00077743      -0.00914527
C       -1.21480022       3.51623753       3.65461092       0.00503970       0.00246858      -0.00355394
C       -2.41610630       5.66502779       3.78689755       0.00243879       0.00096473      -0.00789295
C       -3.65348967       7.79729408       3.84002014      -0.00249819      -0.00736110       0.00661372
C       -4.90211112       9.93159600       3.77352333      -0.00630332       0.00042700       0.00080663
C        2.48007116       1.36364587       3.56573993       0.00438530       0.00832980      -0.00213787
N        1.23273817       3.46782292       3.60238253      -0.01460757      -0.00276521      -0.00370016
C        0.08759844       5.59180018       3.83730467      -0.00243725       0.00358294      -0.00084153
C       -1.16349333       7.78551006       3.90179860       0.00046143       0.00217711       0.00391550
C       -2.42610878       9.92411808       3.77567563      -0.00456388       0.00228153       0.00293469
C        4.94277821       1.40138778       3.57059928       0.00655459       0.00361389      -0.01191332
P        3.54701229       3.66534345       2.71871565      -0.00201593      -0.00530895       0.00421764
C        1.32905357       7.88639186       4.07324000      -0.00390273      -0.01216644      -0.01323320
C        0.03100841       9.95688608       3.82812387       0.00345443      -0.00033486       0.00061564
C        7.39978390       1.43375994       3.68024160      -0.01023225       0.00311268       0.00452113
C        6.15060224       3.56530876       3.62756165       0.00295767       0.00840512       0.00079523
C        4.87626368       5.71327163       3.80856544       0.00374727      -0.00476262      -0.00825131
C        3.73565683       7.85924506       3.87766801      -0.00636599      -0.00235399      -0.00077485
C        2.49093209      10.01165951       3.80840710       0.00152472       0.00395450      -0.00479271
C        9.87936862       1.41902802       3.68892198       0.00648112       0.00052214      -0.00417151
C        8.64021018       3.55605975       3.69680671       0.00362410      -0.00423670       0.00226449
C        7.40739765       5.68628441       3.80407902      -0.00038035      -0.00066538      -0.00811472
C        6.20015967       7.81458142       3.84450300      -0.00089356      -0.00292693      -0.01179293
C        4.96276303       9.96320689       3.76962622       0.00256014      -0.00249050      -0.00977106
Hg       1.87538837       5.69455499       6.63095461      -0.00032274      -0.00914682      -0.00107057
O        2.04484479       5.02741668       8.58738153       0.00342663       0.00395168       0.00614250
O        1.28538985       6.06341305       9.31057790      -0.00992837       0.01169643      -0.00319133
H        2.01553767       6.41469444       9.85654559       0.00310207       0.00846592       0.00758875
