51
Lattice="12.336457 0.0 0.0 -6.168228499999997 10.683685154694365 0.0 0.0 0.0 15.0" Properties=species:S:1:pos:R:3:initial_magmoms:R:1:forces:R:3 energy=-436.8441369011208 free_energy=-436.8441369011208 stress="0.005606475535627286 -0.0034615318165258147 1.0849951751522932e-05 -0.0034615318165258147 -0.0039886730162851155 -1.3155725048592325e-05 1.0849951751522932e-05 -1.3155725048592325e-05 1.9856613108843264e-05" pbc="T T T"
C        0.00009171      -0.01629647       3.81864949       0.00000000       0.00242737      -0.00405237       0.01913018
C       -1.24787597       2.11970518       3.81085042       0.00000000       0.00106552       0.00918667       0.00396906
C       -2.46798898       4.25954732       3.70283240       0.00000000       0.00072158      -0.00316877       0.00565953
C       -3.69159384       6.38756034       3.66057536       0.00000000       0.00107874      -0.00016538      -0.00565452
C       -4.92215565       8.52282025       3.75154366       0.00000000      -0.00393297      -0.00136121      -0.00838731
C        2.46681745      -0.03124331       3.64111470       0.00000000       0.01088606      -0.00760175       0.00861153
C        1.20457534       2.12559516       3.62278944       0.00000000      -0.00166365      -0.00013235      -0.01549404
C        0.02760726       4.18336630       3.61993591       0.00000000      -0.00496186       0.00301284       0.00349389
C       -1.16268825       6.35936655       3.54456749       0.00000000       0.00742216      -0.00256123       0.00502784
C       -2.43791223       8.50841447       3.59780677       0.00000000       0.00457454       0.00297175       0.00580274
C        4.93355988      -0.02028116       3.50528907       0.00000000      -0.00446493      -0.00111467       0.00710816
C        3.65890309       2.07838211       3.25741378       0.00000000      -0.00159658       0.00247095       0.00888051
P        1.69696899       6.24260009       2.94036972       0.00000000       0.00225018      -0.00916032      -0.00840421
C        0.02985547       8.52654212       3.46793362       0.00000000      -0.00085659       0.00060977      -0.00108273
C        7.38510017       0.02124565       3.62969667       0.00000000      -0.00945720       0.00222658      -0.00125328
C        6.13561821       2.14862567       3.44885071       0.00000000      -0.00173785      -0.00704117       0.00092060
C        4.91184461       4.31083567       3.28203748       0.00000000       0.00651521      -0.00335742      -0.00449147
C        3.59963723       6.47374926       3.46590996       0.00000000       0.01530372      -0.00018241       0.01018453
C        2.48263708       8.60874792       3.63526804       0.00000000      -0.00141392      -0.00571714       0.00495025
C        9.86379833       0.01377310       3.82643442       0.00000000      -0.00371615       0.00660766      -0.00345751
C        8.60960486       2.14470057       3.71144573       0.00000000       0.00357366       0.00443402       0.00022141
C        7.37507748       4.27658206       3.59142683       0.00000000       0.00152831       0.00068812       0.01101107
C        6.12931437       6.40762688       3.64122442       0.00000000      -0.01255949       0.00469051       0.00739299
C        4.94350355       8.54944965       3.80151571       0.00000000      -0.00851074       0.00004416      -0.00223881
C       -0.01595791       1.40243137       3.78668221       0.00000000      -0.00271486      -0.00008986      -0.00081293
C       -1.23971897       3.52924812       3.74560667       0.00000000      -0.00134178       0.00541585      -0.00717383
C       -2.44287544       5.67736255       3.63774146       0.00000000       0.00489034      -0.00589540       0.00885117
C       -3.68327652       7.80886898       3.67580142       0.00000000       0.00194181       0.00312520      -0.00950199
C       -4.93043530       9.94385304       3.75958350       0.00000000       0.00764051      -0.00382405       0.00110848
C        2.44865731       1.38119073       3.50936711       0.00000000       0.00458901      -0.00487879       0.01437720
N        1.19752999       3.47909509       3.54040818       0.00000000      -0.00420737       0.00510991       0.00514867
C        0.06557739       5.61542298       3.48606870       0.00000000       0.00611389       0.00004667      -0.00511513
C       -1.19252846       7.79698935       3.51449345       0.00000000       0.00194013       0.00052124      -0.00166750
C       -2.45807962       9.93618746       3.57951972       0.00000000       0.00455437      -0.00247428      -0.00661624
C        4.91532401       1.41320067       3.39359165       0.00000000      -0.00339834      -0.00677882      -0.00528280
P        3.52691585       3.62512036       2.47209057       0.00000000       0.00660620       0.00892591      -0.00169767
C        1.30157611       7.87626961       3.39627389       0.00000000       0.00093078      -0.00640133       0.00053655
C        0.00244729       9.96283574       3.53327669       0.00000000      -0.00944941      -0.00020452       0.00684961
C        7.37071528       1.44308975       3.60799690       0.00000000       0.00085162       0.00291688       0.00050921
C        6.12748441       3.57575766       3.43709676       0.00000000       0.00128629      -0.00560208       0.01496347
C        4.84682670       5.73062698       3.46854969       0.00000000      -0.00098487       0.00044129      -0.00962142
C        3.70021287       7.86010194       3.67714854       0.00000000       0.00180081      -0.00233638      -0.01649355
C        2.45820688      10.01138325       3.73637408       0.00000000      -0.00593445       0.00038482      -0.00729989
C        9.84864184       1.42814474       3.81065263       0.00000000       0.00313497       0.00968578      -0.00898124
C        8.61210074       3.56502617       3.68074269       0.00000000       0.00392918      -0.00009225      -0.01010698
C        7.37872760       5.69672157       3.63983242       0.00000000      -0.00774393       0.00503185      -0.01566076
C        6.16936808       7.82135263       3.75604905       0.00000000      -0.01173016       0.00331616       0.00385166
C        4.93230571       9.96856205       3.84720260       0.00000000      -0.00429594      -0.00075240       0.00622514
Hg       0.25408796       6.95841304       8.41818690       0.00000000      -0.00093912       0.00087349      -0.00868942
O        2.82838536       5.59726401      10.13128218       1.00000000       0.00564527      -0.00891131       0.00435593
O        2.93049734       4.36976605      10.24650438       1.00000000      -0.00559007       0.01111959      -0.00395613
