52
Lattice="12.336457 0.0 0.0 -6.168228499999997 10.683685154694365 0.0 0.0 0.0 15.0" Properties=species:S:1:pos:R:3:initial_magmoms:R:1:forces:R:3 energy=-448.45504181875987 free_energy=-448.45504181875987 stress="0.0012675957095513505 0.0025708664255622545 -7.5934034897541256e-06 0.0025708664255622545 0.0011839047750430366 2.5667092810260603e-06 -7.5934034897541256e-06 2.5667092810260603e-06 -5.034202470755345e-06" pbc="T T T"
C       -0.02110804       0.00360745       3.65053089       0.00000000      -0.00148292      -0.00830794      -0.00393861
C       -1.23048675       2.15609181       3.69722268       0.00000000       0.00381209       0.00922572      -0.00677516
C       -2.45731632       4.27873970       3.69407865       0.00000000      -0.00818947       0.00206998      -0.00090719
C       -3.72183437       6.40559169       3.63459618       0.00000000      -0.00004981      -0.00138550       0.00346632
C       -4.96686034       8.54073896       3.58766811       0.00000000      -0.00078443      -0.00151980       0.00022105
C        2.44321093      -0.00243235       3.67117725       0.00000000       0.01233672       0.00048613       0.01109364
C        1.23422784       2.16016729       3.64406554       0.00000000      -0.00286892      -0.00441201       0.00384514
C        0.03750678       4.32842729       3.67431335       0.00000000      -0.00177025      -0.00725192      -0.00184118
C       -1.25074402       6.41825651       3.71975059       0.00000000       0.00607368      -0.00350622       0.00051801
C       -2.49024971       8.54392360       3.69793851       0.00000000      -0.00391829       0.00406877      -0.00315442
C        4.91659137      -0.00084165       3.72954320       0.00000000       0.01068889      -0.00107802       0.00163228
C        3.68362695       2.12550871       3.63109892       0.00000000       0.00235229      -0.00034058       0.00722559
N        2.48903056       4.22513948       3.36458711       0.00000000       0.00038252       0.00967609      -0.01255097
O        1.12871044       6.46801883       3.89865190       0.00000000      -0.00795844       0.00795155      -0.00027654
C       -0.02622167       8.54565103       3.75722364       0.00000000      -0.00861496      -0.00034361      -0.00726021
C        7.39022048      -0.00639729       3.76092915       0.00000000      -0.00846384       0.00335442      -0.00382824
C        6.16162673       2.12967771       3.69426104       0.00000000      -0.00111507       0.00562409       0.01081820
C        4.92986239       4.24901871       3.45365574       0.00000000       0.00334914      -0.00121400      -0.00425670
P        3.55093184       6.32327066       2.50130828       0.00000000       0.00476455       0.00112891       0.00448428
C        2.42248301       8.51503815       3.64390575       0.00000000       0.00308508      -0.01182561       0.00105997
C        9.85189748      -0.00345141       3.69863957       0.00000000      -0.01039956       0.00120195       0.00717616
C        8.63263695       2.13665613       3.72553054       0.00000000       0.00852124       0.00057591      -0.00055723
C        7.39927526       4.26629836       3.63026359       0.00000000      -0.00247864       0.00029701       0.00180471
C        6.15025797       6.40015957       3.43844355       0.00000000      -0.00686466       0.00017600       0.00446289
C        4.89415576       8.53174763       3.49511910       0.00000000       0.00367916      -0.00062562      -0.00261715
C       -0.00350761       1.44144074       3.67629978       0.00000000      -0.00480030      -0.00728405      -0.01677435
C       -1.20020434       3.59442357       3.69460894       0.00000000      -0.00635121       0.00849190       0.00690325
C       -2.48091144       5.69505302       3.68286113       0.00000000       0.00331881      -0.00072110       0.00633646
C       -3.72963417       7.83206412       3.63837207       0.00000000      -0.00167894      -0.00118907      -0.00261351
C       -4.96058760       9.96871778       3.63554654       0.00000000       0.00743329      -0.00280291       0.00859653
C        2.45292103       1.42457662       3.65577914       0.00000000      -0.00013777      -0.00212076      -0.00696106
C        1.29337466       3.59782840       3.57060660       0.00000000       0.00164453      -0.00245655      -0.00663713
C       -0.03402912       5.73718470       3.75108842       0.00000000       0.00347533      -0.00568706      -0.00256080
C       -1.26230573       7.84048725       3.73335588       0.00000000      -0.00690863       0.00045682       0.01006701
C       -2.49038750       9.97209106       3.70179021       0.00000000       0.01321050       0.00430933       0.00621408
C        4.92007735       1.42315524       3.69228432       0.00000000       0.00261294      -0.00345267       0.00023473
C        3.65762083       3.55112814       3.48497385       0.00000000       0.00142018       0.00293688       0.00267018
C        1.17216805       7.83632530       3.73840631       0.00000000      -0.00556926       0.00452434      -0.01139275
C       -0.01598881       9.97611341       3.75633884       0.00000000      -0.00122005      -0.00364923      -0.00319933
C        7.39503857       1.42246745       3.73952043       0.00000000       0.00203943       0.00444004      -0.00168947
C        6.15732259       3.55079292       3.61401751       0.00000000      -0.00106233       0.00244858      -0.00083940
C        4.93854092       5.65547609       3.28208067       0.00000000       0.00229861      -0.00365804      -0.00174748
C        3.64976055       7.83169533       3.39093232       0.00000000       0.01246067      -0.00114922      -0.00117080
C        2.44411670       9.95152840       3.72830804       0.00000000      -0.01247853      -0.00555300       0.00560894
C        9.86683444       1.42946994       3.71891382       0.00000000       0.01101246       0.00542766       0.00063645
C        8.63631724       3.56059291       3.69174244       0.00000000      -0.00322917       0.00152707      -0.00160899
C        7.38758455       5.68979707       3.57314562       0.00000000      -0.00500507       0.00334377      -0.00062487
C        6.13634004       7.82410215       3.48010876       0.00000000      -0.00306490       0.00098533       0.00034034
C        4.91294630       9.96858614       3.62900340       0.00000000      -0.00890042      -0.00206447      -0.00238423
Hg       0.79189325       5.95038711       8.20829277       0.00000000       0.00429079      -0.00094593       0.00261750
O        3.18304238       5.39676226      10.65543633       1.00000000       0.00033533       0.00007336      -0.00282142
O        4.27844319       5.21047395      10.11144785       1.00000000       0.00076760      -0.00025669       0.00295553
