52
Lattice="12.336457 0.0 0.0 -6.168228499999997 10.683685154694365 0.0 0.0 0.0 15.0" Properties=species:S:1:pos:R:3:initial_magmoms:R:1:forces:R:3 energy=-453.99370447556913 free_energy=-453.99370447556913 stress="-0.0013144010461540888 -1.0270187333048998e-06 -1.7058677737972617e-05 -1.0270187333048998e-06 -0.0012844212714113305 3.2843191995467556e-05 -1.7058677737972617e-05 3.2843191995467556e-05 1.0289240685183463e-05" pbc="T T T"
C       -0.08943985       0.00233371       3.60743239       0.00000000      -0.00020481      -0.00277987      -0.00189978
C       -1.31770010       2.14535474       3.62667963       0.00000000      -0.00523176      -0.01063876       0.00019278
C       -2.54821915       4.27522294       3.62429949       0.00000000      -0.00155179       0.00352000      -0.00084921
C       -3.78945455       6.41053102       3.60782026       0.00000000      -0.00814256       0.00555609       0.00311426
C       -5.02022301       8.55058853       3.59560275       0.00000000      -0.00109425      -0.00058165       0.00607019
C        2.37903419      -0.00205766       3.58486471       0.00000000      -0.00780326      -0.00067906       0.01239969
C        1.14613605       2.12826962       3.60784018       0.00000000       0.00285902       0.00595130       0.00029678
C       -0.05540539       4.29389876       3.62670152       0.00000000       0.00145925       0.00336815      -0.00949813
C       -1.33070064       6.41747124       3.60730103       0.00000000       0.00351798      -0.00065695      -0.00088224
C       -2.55939411       8.54981624       3.58918263       0.00000000       0.00010275       0.00998895       0.00446048
C        4.84626015       0.00244018       3.60342817       0.00000000       0.00787636      -0.00128705      -0.00054871
C        3.61127482       2.12901416       3.61257805       0.00000000      -0.00115918       0.00112743      -0.00251789
N        2.37812178       4.18122888       3.65011839       0.00000000       0.00199439       0.01479435       0.01135805
N        1.06148127       6.45938190       3.67508072       0.00000000      -0.00347129       0.00826570      -0.00774073
C       -0.09854708       8.55359775       3.61354235       0.00000000       0.00399081      -0.01252528      -0.00945919
C        7.31668077      -0.00537091       3.63105410       0.00000000      -0.00148248       0.00406249       0.00319694
C        6.07519455       2.14536754       3.63105059       0.00000000       0.00008323      -0.00126265      -0.00469192
C        4.81189760       4.29501917       3.65101945       0.00000000       0.00889766      -0.00321053      -0.00121462
N        3.69610525       6.46026879       3.72639197       0.00000000      -0.00814661       0.00026999      -0.01064681
C        2.37833248       8.51020292       3.64474184       0.00000000       0.00100944       0.00341209       0.00205515
C        9.77695892      -0.00487446       3.63520921       0.00000000      -0.00297913      -0.00697712      -0.00670663
C        8.54696396       2.13821533       3.63430412       0.00000000      -0.00428385       0.00626246       0.01012778
C        7.30528623       4.27585639       3.63354562       0.00000000      -0.00318433      -0.00355318       0.00078721
C        6.08749901       6.41838028       3.63174166       0.00000000      -0.00143691      -0.00644973      -0.01132591
C        4.85438278       8.55330288       3.62765690       0.00000000       0.00953462      -0.00663786      -0.00365092
C       -0.08962331       1.42903597       3.61501981       0.00000000       0.00227318      -0.00292386      -0.01479784
C       -1.29183654       3.58058234       3.62553265       0.00000000      -0.00025612      -0.00227059       0.00824404
C       -2.55402331       5.69682737       3.61245407       0.00000000      -0.00296453       0.00460215      -0.00654234
C       -3.78988134       7.83366271       3.59403574       0.00000000       0.00085734       0.00716987      -0.00116948
C       -5.02496931       9.97444327       3.59065994       0.00000000      -0.00597506      -0.00454597       0.00874780
C        2.37899633       1.41914146       3.59592743       0.00000000      -0.00396145      -0.00306521       0.01736627
C        1.19046665       3.56979803       3.62448529       0.00000000       0.00255573       0.00735734       0.00026441
C       -0.06029370       5.73488120       3.62656231       0.00000000       0.00476313       0.00433003       0.00699070
C       -1.32859382       7.83978901       3.59981298       0.00000000      -0.00107603      -0.00152775       0.00783587
C       -2.55406289       9.97368380       3.58807344       0.00000000       0.00072339       0.01032884       0.00364883
C        4.84688125       1.42936084       3.61397598       0.00000000      -0.00078395      -0.00139578       0.00871924
C        3.56625332       3.57066921       3.63769088       0.00000000       0.00213709       0.00627804      -0.00964441
C        1.12725873       7.79375010       3.63534794       0.00000000       0.00697425       0.00128156       0.00259653
C       -0.08613016       9.97335649       3.61643984       0.00000000       0.00534660      -0.01118210      -0.00527743
C        7.31192113       1.42542962       3.63418238       0.00000000       0.00000077       0.00326435      -0.00924964
C        6.04866394       3.58119864       3.63936393       0.00000000       0.00335791      -0.00769426       0.00469784
C        4.81693320       5.73599219       3.66385623       0.00000000       0.00237422      -0.00330805       0.00839879
C        3.62894766       7.79326073       3.65941147       0.00000000       0.00264970       0.00899010      -0.00299289
C        2.37863982       9.93781104       3.63866604       0.00000000      -0.00495714       0.00380900       0.00160313
C        9.78212460       1.42585799       3.63408095       0.00000000      -0.00850250      -0.00719558      -0.00990551
C        8.54676704       3.56401260       3.63065801       0.00000000      -0.00394719       0.00850688       0.00164046
C        7.31130781       5.69761002       3.62406045       0.00000000      -0.00673419      -0.00163710      -0.00368613
C        6.08517959       7.84058006       3.61678222       0.00000000       0.00500128      -0.00594699       0.00001283
C        4.84268046       9.97314806       3.62195805       0.00000000       0.00316785      -0.00696760       0.00504312
Hg       2.15272640       6.13070827       7.64173687       0.00000000       0.00346847      -0.01483570      -0.00783610
O        4.41309524       5.30378593      10.56445695       1.00000000       0.00691121      -0.00141021      -0.00448301
O        5.33315812       5.12472695       9.75647733       1.00000000      -0.00455729       0.00064929       0.00734828
