51
Lattice="12.336457 0.0 0.0 -6.168228499999997 10.683685154694365 0.0 0.0 0.0 15.0" Properties=species:S:1:pos:R:3:initial_magmoms:R:1:forces:R:3 energy=-437.1778068031931 free_energy=-437.1778068031931 stress="0.002584867474575992 -0.0005123543003599912 -1.1127808261207558e-05 -0.0005123543003599912 0.010515544788009805 -4.1154362982675775e-06 -1.1127808261207558e-05 -4.1154362982675775e-06 1.4172725870137557e-05" pbc="T T T"
C       -0.02959359       0.02620813       3.67740443       0.00000000       0.00433144      -0.00044712      -0.00201541
C       -1.27489748       2.14879886       3.69794946       0.00000000       0.00626926      -0.00056109       0.00574380
C       -2.50148902       4.29242552       3.64476993       0.00000000      -0.00670021       0.00064242      -0.00561793
C       -3.73407735       6.43461925       3.58292380       0.00000000       0.00293120      -0.00368805       0.00307153
C       -4.96952463       8.57601873       3.61181153       0.00000000       0.00360128       0.00289108      -0.00122563
C        2.43441384       0.08840245       3.65950565       0.00000000      -0.01049409       0.00318818       0.00328291
C        1.16334019       2.19435443       3.72993120       0.00000000       0.00118539      -0.00235502       0.00071966
C       -0.06247204       4.27820158       3.79807769       0.00000000       0.00361993      -0.00475739       0.00134849
C       -1.26819899       6.42173509       3.67659594       0.00000000       0.00279674       0.00296039      -0.00206442
C       -2.50290717       8.58129966       3.63270125       0.00000000      -0.00770917       0.00489900       0.00456010
C        4.89585046       0.03220292       3.66965496       0.00000000       0.00044206      -0.00162375      -0.00131920
C        3.69660879       2.21118225       3.67958923       0.00000000      -0.00541440      -0.00212634      -0.00031888
N        1.10241600       6.42273368       4.13526787       0.00000000      -0.00325330       0.00347153      -0.00537911
C       -0.03055749       8.53957056       3.73841498       0.00000000       0.00354780      -0.00153399       0.00402282
C        7.37474547      -0.01472141       3.70356720       0.00000000       0.00713301      -0.00063814      -0.00047484
C        6.13709725       2.15858636       3.63845499       0.00000000       0.00223525       0.00565461       0.00407197
C        4.92201029       4.29892040       3.59967227       0.00000000       0.00112753      -0.00685317      -0.00861132
O        3.73783194       6.42727469       3.64399524       0.00000000      -0.00910421      -0.00746613       0.00675353
C        2.44774863       8.47406510       3.78300601       0.00000000      -0.00129644      -0.00548813      -0.00050860
C        9.82986582      -0.01783111       3.69937939       0.00000000      -0.00542401       0.00673339       0.00405089
C        8.60060208       2.14135596       3.65414250       0.00000000      -0.00337869       0.00128758       0.00308895
C        7.36764814       4.29408116       3.58557672       0.00000000       0.00537096      -0.00385893       0.00231463
C        6.13184610       6.41925470       3.56577933       0.00000000       0.00457063      -0.00139051      -0.00195847
C        4.89940389       8.53816331       3.66351355       0.00000000      -0.00473397       0.00794230      -0.00450055
C       -0.02781140       1.46525587       3.70374354       0.00000000       0.00563140      -0.00187977      -0.00099604
C       -1.26323611       3.57821366       3.70996178       0.00000000      -0.00240308       0.00192209       0.00125366
C       -2.49820651       5.71382138       3.61765719       0.00000000       0.00208954      -0.00176875       0.00523408
C       -3.73271350       7.86458375       3.59909484       0.00000000      -0.00209949       0.00066587       0.00629991
C       -4.95795660      10.02227500       3.65046886       0.00000000      -0.00077713       0.00146169      -0.00670528
C        2.43156772       1.54615035       3.69076862       0.00000000      -0.00445185      -0.00264730       0.00393118
O        1.11800393       3.57419409       3.83288802       0.00000000       0.00814642      -0.00322405       0.00327063
C       -0.03747378       5.71164979       3.84303414       0.00000000       0.00387825      -0.00323722       0.00341406
C       -1.27199246       7.85086484       3.67577980       0.00000000      -0.00164895       0.00476779      -0.00615202
C       -2.50916988      10.02449243       3.65118285       0.00000000      -0.01022899       0.00498091       0.00780901
C        4.88974758       1.47283434       3.66166559       0.00000000      -0.00022855      -0.00014366      -0.00123300
O        3.73644413       3.59306871       3.71322871       0.00000000      -0.00306589      -0.00080140      -0.00939687
C        1.17771890       7.77244211       3.88577434       0.00000000      -0.00177534      -0.00111367       0.00023580
C       -0.03282110       9.97454702       3.69994442       0.00000000       0.00942508      -0.00485767      -0.00587641
C        7.36327088       1.42815352       3.66066184       0.00000000       0.00054847       0.00407135       0.00569959
C        6.12919673       3.58831732       3.59676629       0.00000000       0.00564625       0.00398974      -0.00332091
C        4.92488094       5.71134969       3.57378473       0.00000000      -0.00082277      -0.00577951      -0.00720210
C        3.69758487       7.81059992       3.70175881       0.00000000      -0.00742604      -0.00233288      -0.01404680
C        2.43659196       9.92077377       3.72801734       0.00000000       0.00034017      -0.00566778       0.00359517
C        9.83709627       1.42617643       3.68186932       0.00000000      -0.00222662       0.00415286       0.00271149
C        8.60332840       3.57269477       3.62179318       0.00000000      -0.00455695      -0.00387164      -0.00207162
C        7.37012128       5.71285227       3.56739456       0.00000000       0.00891314      -0.00788522      -0.00206973
C        6.14222473       7.84978669       3.60451207       0.00000000       0.00328290       0.00433371       0.00720466
C        4.89916900       9.97526393       3.68469571       0.00000000      -0.00052323       0.00881437      -0.00135164
Hg       2.31256182       5.35394223       5.64204426       0.00000000      -0.00150007       0.01190863       0.01509885
O        3.00410280       4.72315169       8.41105002       1.00000000       0.00929852      -0.00497450      -0.00424447
O        3.48381595       4.39097117       7.25408460       1.00000000      -0.00511919       0.00223327      -0.01012614
