51
Lattice="12.336457 0.0 0.0 -6.168228499999997 10.683685154694365 0.0 0.0 0.0 15.0" Properties=species:S:1:pos:R:3:initial_magmoms:R:1:forces:R:3 energy=-433.5268818114023 free_energy=-433.5268818114023 stress="-0.0010433421657329524 -0.000990832672839911 -5.389617794393331e-06 -0.000990832672839911 -0.0013602422099052306 -2.223300375553465e-05 -5.389617794393331e-06 -2.223300375553465e-05 -3.0234230652001583e-05" pbc="T T T"
C       -0.10333758      -0.00405506       3.76852042       0.00000000      -0.00511606       0.00472689       0.00632262
C       -1.33561292       2.14481406       3.86873701       0.00000000       0.00989765       0.00182057      -0.00029377
C       -2.57153390       4.28211793       3.72148826       0.00000000       0.00632409      -0.00083004       0.00081644
C       -3.79776525       6.41626958       3.61598802       0.00000000      -0.00325720      -0.00122981      -0.00582789
C       -5.03701745       8.54760101       3.65169527       0.00000000      -0.00200265      -0.00571656      -0.00524548
C        2.37021607      -0.03074552       3.61759752       0.00000000      -0.00185304      -0.00312702       0.00341662
C        1.16520638       2.08012330       3.95095714       0.00000000      -0.00319836      -0.00101323       0.00513375
C       -0.14208656       4.34923533       4.02702092       0.00000000       0.00718064      -0.01384843      -0.01186743
C       -1.35401238       6.43836785       3.68198123       0.00000000       0.00261049      -0.00052201       0.01049436
C       -2.56581955       8.54790759       3.56925241       0.00000000      -0.00167367       0.00330836       0.00451263
C        4.84016383      -0.00446844       3.46893981       0.00000000       0.00109364       0.00821526       0.01450580
C        3.56905896       2.08054585       3.34569717       0.00000000      -0.00185940      -0.00138687       0.01096871
N        1.06864824       6.44107952       3.94059085       0.00000000       0.00486578      -0.00163782       0.00580284
C       -0.09134562       8.53764814       3.60148299       0.00000000      -0.00214375       0.00873644      -0.00869347
C        7.30964865      -0.00830582       3.55440787       0.00000000      -0.00618587      -0.00680691       0.01028582
C        6.05660220       2.15765918       3.40165070       0.00000000       0.00345265      -0.00543089       0.00703080
C        4.87605099       4.38376451       3.27589786       0.00000000       0.00272415      -0.00340313      -0.00554709
O        3.68029615       6.46438302       3.38122050       0.00000000       0.00327076      -0.00426468      -0.00163937
C        2.38840031       8.49394883       3.64267975       0.00000000       0.00208738       0.00129820       0.00449258
C        9.76274593      -0.00824877       3.70019102       0.00000000      -0.00976451       0.00710500       0.00544196
C        8.53196852       2.14101928       3.62753182       0.00000000       0.00015515       0.00045413       0.00473741
C        7.30011439       4.28599186       3.53378090       0.00000000      -0.00396235       0.00576662       0.00711488
C        6.08876216       6.44007160       3.56585840       0.00000000       0.00170048      -0.00200547       0.00160895
C        4.83195681       8.54463366       3.66221337       0.00000000       0.00170206       0.00316635      -0.00043953
C       -0.09768278       1.42440813       3.89053775       0.00000000       0.00132233       0.00490617       0.00875939
C       -1.32882879       3.58373969       3.87932741       0.00000000       0.00835214      -0.00651790      -0.00932809
C       -2.56724609       5.70519922       3.66588848       0.00000000      -0.00016805      -0.00224931      -0.00613638
C       -3.79828308       7.83739524       3.60928311       0.00000000      -0.00152300      -0.00174444      -0.00172623
C       -5.03912567       9.96552596       3.68984577       0.00000000      -0.00578057      -0.00226955       0.00496494
C        2.36890997       1.38205451       3.64691390       0.00000000      -0.00484668      -0.00310307      -0.00251330
P        1.37212823       3.69102634       4.60880538       0.00000000      -0.01248138      -0.00089276      -0.00212135
C       -0.10464999       5.77801943       3.87211471       0.00000000       0.00675708      -0.01053949      -0.00360664
C       -1.33538364       7.84330258       3.59970199       0.00000000       0.00057816       0.00406493      -0.01244422
C       -2.55878511       9.96516337       3.53296159       0.00000000       0.00292276       0.00335852       0.00251839
C        4.82665942       1.43423881       3.37547516       0.00000000       0.00100755       0.00063976       0.00555632
S        3.33108521       3.73477680       2.87895545       0.00000000      -0.00060557      -0.00179814       0.00697046
C        1.12722601       7.77342743       3.71843502       0.00000000      -0.00186662       0.00255606      -0.00712188
C       -0.08887352       9.96232365       3.52460146       0.00000000      -0.00457319       0.00563535       0.00123120
C        7.29204154       1.43313274       3.51985494       0.00000000       0.00106984      -0.00939865       0.00151547
C        6.05179915       3.59422354       3.40109506       0.00000000       0.00166090      -0.00045570      -0.00447899
C        4.88571314       5.78108685       3.40963097       0.00000000       0.00563532      -0.00339238      -0.00825756
C        3.63334017       7.83233713       3.58394449       0.00000000       0.00311635       0.00018297      -0.00364790
C        2.37301364       9.93342025       3.63243289       0.00000000      -0.00731342      -0.00068979      -0.01129149
C        9.76810285       1.43056417       3.73748626       0.00000000       0.00468012       0.00526910      -0.00585526
C        8.53680336       3.56734911       3.62692662       0.00000000      -0.00134528       0.00507108      -0.00126190
C        7.31133940       5.70182261       3.57766296       0.00000000      -0.00097536       0.00283877      -0.00793882
C        6.07470561       7.85148664       3.64436979       0.00000000       0.00049462      -0.00480408      -0.00881521
C        4.82624137       9.97295838       3.72499871       0.00000000      -0.00586144       0.00772310      -0.00950351
Hg       2.03972733       4.05475707       7.21647475       0.00000000       0.00085807       0.01090784       0.00229256
O        4.49540937       4.44639694      10.27686511       1.00000000      -0.00136958       0.00071063       0.01379023
O        4.93986694       4.44887663       9.12173833       1.00000000       0.00420683       0.00061602      -0.00468239
