53
Lattice="12.336457 0.0 0.0 -6.168228499999997 10.683685154694365 0.0 0.0 0.0 15.0" Properties=species:S:1:pos:R:3:forces:R:3 energy=-457.75496731120444 free_energy=-457.75496731120444 stress="-0.0012849288009506843 6.4432211194813464e-06 -5.9651415713610774e-06 6.4432211194813464e-06 -0.0013001596414619317 7.99992211553935e-06 -5.9651415713610774e-06 7.99992211553935e-06 3.771239877028923e-05" pbc="T T T"
C       -0.00429380      -0.00229125       3.62833571      -0.00081811      -0.00015716       0.00805917
C       -1.23298897       2.14079574       3.63747866       0.00288175      -0.00081612       0.01747669
C       -2.46340937       4.27118281       3.64750907       0.00165934      -0.00205847       0.01426111
C       -3.70483034       6.40617818       3.64803310      -0.00127950       0.00052096       0.00106324
C       -4.93486535       8.54561861       3.63473869      -0.00656620       0.00023604       0.00345277
C        2.46380356      -0.00742556       3.63638947       0.00144703       0.00700686       0.00141177
C        1.23150937       2.12416748       3.64178822      -0.00475124       0.00126939      -0.00046204
C        0.03021568       4.29002787       3.64961348      -0.00463237      -0.00514344       0.00174620
C       -1.24487951       6.41260185       3.64768658       0.00194972       0.00140616       0.00241411
C       -2.47393364       8.54508795       3.64176973      -0.00098921       0.00672819       0.00102918
C        4.93179432      -0.00295112       3.65065476       0.00103282       0.00328782       0.00696517
C        3.69621852       2.12377722       3.66408614      -0.00066335       0.00505587      -0.00409785
N        2.46343969       4.17783831       3.69591239      -0.00088464      -0.00192926       0.00310498
N        1.15077479       6.45334450       3.64367184      -0.00598784       0.00299389       0.00169541
C       -0.01230125       8.54761654       3.65021197       0.00034513       0.00298061       0.00133071
C        7.40174914      -0.00949492       3.65453054      -0.00414698       0.00077840       0.01139287
C        6.16004453       2.14069230       3.66865766      -0.00272559      -0.00201734       0.00306830
C        4.89643365       4.29038104       3.68723024       0.00678527      -0.00135291      -0.00551284
N        3.77687299       6.45508414       3.71467320       0.00946315      -0.00288527      -0.00185840
C        2.46341083       8.50629797       3.65580696       0.00581486      -0.00451567       0.00624138
C        9.86208673      -0.00919510       3.64266646      -0.00079486      -0.00065915       0.01202449
C        8.63155714       2.13444922       3.65761383       0.00255928      -0.00282309      -0.00464987
C        7.38965832       4.27145625       3.66417999       0.00239636      -0.00235345       0.01213752
C        6.17155114       6.41330417       3.65878744      -0.00379998      -0.00205570       0.00473414
C        4.93952396       8.54829093       3.64184545      -0.00071555      -0.00005358       0.00604291
C       -0.00443835       1.42463111       3.63254032      -0.00080579      -0.00081302       0.00020063
C       -1.20666021       3.57636091       3.64333823      -0.00280208      -0.00432775       0.00502126
C       -2.46915411       5.69269178       3.64808143       0.00257243       0.00063512      -0.00244381
C       -3.70448821       7.82914999       3.64061222      -0.00385846       0.00337465      -0.00127601
C       -4.94008601       9.96926099       3.63040361       0.00064149       0.00287136      -0.00232964
C        2.46390959       1.41379813       3.64551044      -0.00232257       0.00772271       0.00277897
C        1.27616191       3.56618784       3.65952946      -0.00257811      -0.00024973      -0.00127910
C        0.02655721       5.73086728       3.64720688      -0.00068665      -0.00535463      -0.01395628
C       -1.24319073       7.83475170       3.64786725      -0.00011134       0.00411630      -0.00641115
C       -2.46890547       9.96876795       3.64117768       0.00211576       0.00692437       0.00561694
C        4.93198842       1.42406913       3.66271538      -0.00280198       0.00060048      -0.00624382
C        3.65095532       3.56590234       3.68347198       0.00395311       0.00472965      -0.00395348
C        1.21406130       7.78827122       3.64944066       0.00154066       0.00143009      -0.00746055
C       -0.00053411       9.96778469       3.65237850      -0.00169099       0.00156589      -0.00103796
C        7.39685308       1.42128479       3.66223692      -0.00292271       0.00183282      -0.01071584
C        6.13321388       3.57645720       3.67506351       0.00399381      -0.00285528      -0.00273875
C        4.89993771       5.73159835       3.68555845       0.00481283      -0.00461155      -0.00075085
C        3.71296920       7.78907055       3.66694289       0.00667634      -0.00574495      -0.00403566
C        2.46370762       9.93409676       3.65180339      -0.00227180      -0.00294517      -0.00727764
C        9.86656860       1.42153306       3.64619219       0.00434764      -0.00026768      -0.01234365
C        8.63129697       3.56028116       3.65789513       0.00375593      -0.00422265      -0.01154250
C        7.39568640       5.69310575       3.65780100      -0.00365948      -0.00164777      -0.00859663
C        6.17052534       7.83551543       3.64260618      -0.00547058      -0.00243242      -0.00088755
C        4.92803257       9.96841639       3.63427527      -0.00172775      -0.00060285      -0.00067788
Hg       2.27775273       5.94950140       8.15994639      -0.00199182      -0.00219326      -0.00328804
O        3.28267048       4.98823430       9.98714031       0.00682986      -0.00372536       0.00211706
O        2.51375838       5.36918549      11.12607444      -0.00141786       0.00785940      -0.00829341
H        3.07594892       6.06856048      11.51805606      -0.00169918      -0.00511232      -0.00126579
