51
Lattice="12.336457 0.0 0.0 -6.168228499999997 10.683685154694365 0.0 0.0 0.0 15.0" Properties=species:S:1:pos:R:3:initial_magmoms:R:1:forces:R:3 energy=-433.8628970790536 free_energy=-433.8628970790536 stress="0.0023452436172936865 -0.0018172796833485706 -1.3949695852128355e-05 -0.0018172796833485706 0.007170520914431899 -7.598389043474137e-07 -1.3949695852128355e-05 -7.598389043474137e-07 2.0289816737373653e-05" pbc="T T T"
C       -0.13982627       0.09679427       3.53058146       0.00000000       0.00221637      -0.00529993       0.00111979
C       -1.38435716       2.22643454       3.52520617       0.00000000      -0.00457506       0.00658390       0.00285403
C       -2.60837639       4.36045873       3.50657475       0.00000000       0.00316501      -0.00162400       0.00044425
C       -3.83161986       6.49847142       3.49211903       0.00000000       0.00150847      -0.00430038       0.00181119
C       -5.06986588       8.64370146       3.49363408       0.00000000      -0.01106731      -0.00146393       0.00165851
C        2.31896451       0.11505787       3.59029145       0.00000000       0.00680623       0.01342259      -0.00605569
C        1.05456003       2.25798524       3.61385824       0.00000000      -0.01235228      -0.00127052      -0.00934824
C       -0.16230511       4.35961183       3.49067891       0.00000000       0.00703258      -0.00124166      -0.00509394
C       -1.35476564       6.47496946       3.48511168       0.00000000       0.00866739       0.00202289      -0.00459173
C       -2.59223625       8.63177853       3.52223591       0.00000000       0.00553362      -0.00648855       0.00265877
C        4.79875301       0.07757379       3.67355106       0.00000000      -0.00407775      -0.00164856      -0.00855316
C        3.54093493       2.18747682       4.02376294       0.00000000       0.01217543       0.00041221       0.00344366
O        1.04570130       6.47913103       3.49776628       0.00000000      -0.01082818      -0.00220465       0.00850088
C       -0.11929844       8.59447326       3.56083512       0.00000000       0.00615543       0.00252456       0.00312143
C        7.26685631       0.05784860       3.63115485       0.00000000      -0.00867088       0.00441970       0.00064078
C        6.02157494       2.23144566       3.78135681       0.00000000      -0.00263134       0.00116562       0.01371143
C        4.83286295       4.45281491       3.99117267       0.00000000       0.01765705       0.00092556       0.00677590
O        3.63999929       6.53076928       3.78651374       0.00000000       0.01165367      -0.00286699      -0.00070655
C        2.33082988       8.54163601       3.58348248       0.00000000       0.00056217      -0.00843181      -0.00253747
C        9.71568904       0.05972440       3.56012581       0.00000000       0.00684155      -0.00193037       0.00141202
C        8.48470437       2.21477401       3.59266676       0.00000000      -0.00278296      -0.00103662      -0.00034001
C        7.26049143       4.36585872       3.60984027       0.00000000      -0.00479336       0.00435327       0.01058802
C        6.04487260       6.51972411       3.57494741       0.00000000      -0.01110404       0.00224301       0.00188530
C        4.79133649       8.62039521       3.53858630       0.00000000      -0.00568059      -0.00040010       0.00793827
C       -0.14233082       1.53431707       3.54655032       0.00000000      -0.01226629      -0.00486204      -0.00548464
C       -1.36995463       3.65651158       3.50156743       0.00000000       0.00694977       0.00634374       0.00314306
C       -2.59722900       5.77494398       3.48659002       0.00000000       0.01110081      -0.00112685      -0.00112079
C       -3.83175051       7.92644522       3.49139995       0.00000000      -0.00315207      -0.00436783      -0.00205648
C       -5.07268583      10.07819464       3.52156978       0.00000000       0.00702991       0.00219513      -0.00435669
C        2.29735796       1.54712528       3.72596267       0.00000000      -0.00159967       0.01660867      -0.00352500
O        1.02363448       3.64120568       3.50417887       0.00000000      -0.00275564      -0.00305492       0.00114311
C       -0.14345295       5.77291587       3.48382813       0.00000000      -0.00094012      -0.00364554       0.00099979
C       -1.36267684       7.90349688       3.51645884       0.00000000       0.01236363       0.00063730       0.00860997
C       -2.60826016      10.06708051       3.59409434       0.00000000       0.00165695      -0.00190446      -0.01059889
C        4.78538309       1.50916198       3.83076990       0.00000000       0.00156365       0.00022483      -0.00494709
P        3.51434110       3.72432384       4.87873999       0.00000000       0.00126061       0.00507321      -0.00502164
C        1.07565604       7.86019100       3.55138662       0.00000000      -0.00094876      -0.00406840      -0.00104467
C       -0.13100907      10.03607105       3.62457115       0.00000000      -0.00667309       0.00097545      -0.00658309
C        7.25225481       1.50301230       3.66427866       0.00000000      -0.00724131       0.00400017       0.00089802
C        6.02072228       3.67324270       3.78207412       0.00000000       0.00307084      -0.00166716       0.01011333
C        4.83802328       5.85564472       3.78752433       0.00000000       0.00021644      -0.00552402      -0.01237560
C        3.59921955       7.89721925       3.61128168       0.00000000       0.00278279      -0.00470872       0.01137686
C        2.32433326       9.99564195       3.58847762       0.00000000      -0.00080783      -0.00123923       0.00068039
C        9.72375970       1.50475132       3.55278922       0.00000000       0.00119886       0.00379991      -0.00177707
C        8.48889792       3.64373101       3.56364877       0.00000000      -0.00453735      -0.00112717      -0.01220282
C        7.27341119       5.78683458       3.54571782       0.00000000      -0.01115702       0.00567064       0.00927412
C        6.04171918       7.93322123       3.51600980       0.00000000      -0.01569886       0.00054483       0.00491259
C        4.78862663      10.05406873       3.53096642       0.00000000       0.00447032      -0.00472178      -0.00197997
Hg       4.03685834       3.45890093       7.50104144       0.00000000       0.00279275      -0.00218444      -0.01432023
O        6.23469817       2.14008992      10.60636222       1.00000000       0.00287572      -0.00130224      -0.00883727
O        6.82863258       1.82215666       9.56811414       1.00000000      -0.00296626       0.00156565       0.01374330
