52
Lattice="12.336457 0.0 0.0 -6.168228499999997 10.683685154694365 0.0 0.0 0.0 15.0" Properties=species:S:1:pos:R:3:forces:R:3 energy=-431.8628216527079 free_energy=-431.8628216527079 stress="-0.0006545166848632056 0.003046629060379439 7.058308820910036e-06 0.003046629060379439 -0.0030155641078013586 1.5332665630441914e-05 7.058308820910036e-06 1.5332665630441914e-05 3.585015652847818e-05" pbc="T T T"
C       -0.01415239      -0.01881958       3.79939025      -0.00073478      -0.00214098      -0.00307986
C       -1.21738618       2.14665253       3.97393067      -0.00079802       0.00360109      -0.00306299
C       -2.46806153       4.27218666       3.85498672       0.00102742       0.00281010      -0.00178787
C       -3.72073530       6.39232375       3.67652545       0.00156435       0.00074322      -0.00036274
C       -4.97463274       8.51492354       3.62738668      -0.00482817      -0.00368751       0.00076189
C        2.44883151      -0.04767736       3.67158013      -0.00414171       0.00168385       0.00049233
C        1.26678647       2.07421346       3.94207182       0.00219094       0.00049921       0.00440360
C       -0.04703658       4.36311822       4.14837875       0.00276085       0.00544932       0.00282356
C       -1.27095360       6.42406722       3.87347768      -0.00291588       0.00041115      -0.00005105
C       -2.49109735       8.52371624       3.71785804      -0.00060593      -0.00575485       0.00476262
C        4.92442705      -0.02687815       3.64249419       0.00094395      -0.00022327       0.00398432
C        3.68681455       2.03429967       3.28455749       0.00520368       0.00071236      -0.00373319
O        1.13482225       6.46373535       4.06205462      -0.01180754       0.00340645       0.00537588
C       -0.02124841       8.53020749       3.81212505       0.00418153      -0.00114418      -0.00247085
C        7.39048355      -0.01444126       3.77103128       0.00194274      -0.00256526       0.00158617
C        6.17396871       2.10818807       3.46290257       0.00341976       0.00087646       0.00680841
C        5.04974778       4.25208471       2.97532702       0.00433886       0.00226409       0.00247391
S        3.55231849       6.39298865       2.49829027      -0.00096131       0.00529079      -0.01319781
C        2.42302481       8.51636179       3.71910065       0.00272598       0.00143006       0.00243439
C        9.85823850      -0.01160442       3.83007281       0.00318491      -0.00384396      -0.00604365
C        8.63871223       2.12830825       3.77702557      -0.00447009      -0.00265108      -0.00032325
C        7.41537934       4.25254777       3.54243218       0.00362030       0.00311463      -0.00312458
C        6.17239021       6.39580107       3.35177386       0.00272612       0.00124715       0.00767954
C        4.89814581       8.53045361       3.53264512      -0.00045368      -0.00136896      -0.00432832
C        0.00961064       1.42032429       3.93589707      -0.00103639       0.00006002       0.00404079
C       -1.22102547       3.58069297       4.00312041       0.00310085       0.00672597      -0.00003664
C       -2.48872295       5.68558739       3.80657268       0.00018245       0.00245281       0.00047205
C       -3.73169228       7.81185691       3.67057570      -0.00355978      -0.00210317       0.00349225
C       -4.96384660       9.93966439       3.71416503      -0.00411646      -0.00338181      -0.00500376
C        2.46396259       1.36859072       3.62884142       0.00238689       0.00334102      -0.00245854
S        1.47750938       3.67618062       4.54921429      -0.00370518      -0.00136171      -0.00334678
C       -0.06473308       5.76459872       4.03638800      -0.00549520       0.00216693       0.00178393
C       -1.26579985       7.83318831       3.79967547       0.00382107      -0.00254791       0.00253712
C       -2.48101815       9.94302408       3.66540382      -0.00275980      -0.00324650       0.00284979
C        4.93360616       1.39467265       3.45478001       0.00614231       0.00083735      -0.00202464
S        3.60644556       3.49066146       2.37525815      -0.01386918      -0.00364447       0.00709789
C        1.17376227       7.82805040       3.82975653       0.00171008      -0.00012917       0.00419097
C       -0.00731273       9.95880249       3.74383475       0.00321764      -0.00167939      -0.00237828
C        7.39624695       1.41550481       3.68149461      -0.00210253      -0.00382731       0.00296472
C        6.19950062       3.52308247       3.33590915       0.00358233       0.00297310       0.00658910
C        5.03020762       5.65354270       3.00348416       0.00478745       0.00239380      -0.00589562
C        3.65012987       7.87876690       3.36698789      -0.00093808       0.00171700      -0.00158092
C        2.44816049       9.94827147       3.81054246       0.00253613      -0.00007241      -0.00078867
C        9.88003963       1.42675274       3.88212639      -0.00273491      -0.00281060       0.00049691
C        8.64036460       3.54849876       3.73621256       0.00048105      -0.00047969      -0.00562195
C        7.39918198       5.67419927       3.53179891       0.00283875       0.00350865       0.00732962
C        6.13285380       7.81288057       3.48243082      -0.00276318      -0.00142677      -0.00022161
C        4.91404870       9.95735782       3.75226506       0.00297001      -0.00491869      -0.00202979
Hg       3.11995467       5.49829404       8.62418704       0.00030285      -0.00389798      -0.00441798
O        2.29700589       4.82837511      10.64591314      -0.00606838      -0.00092445      -0.00237276
O        2.93291683       5.64931558      11.62769007      -0.00303019      -0.00007075      -0.00569520
H        3.55812726       5.01576201      12.03521775       0.00600513       0.00018625      -0.00199243
