52
Lattice="12.336457 0.0 0.0 -6.168228499999997 10.683685154694365 0.0 0.0 0.0 15.0" Properties=species:S:1:pos:R:3:initial_magmoms:R:1:forces:R:3 energy=-448.61635478944606 free_energy=-448.61635478944606 stress="0.0054004943478325 2.3114978409449453e-05 -1.3926617934861624e-05 2.3114978409449453e-05 0.005396368232321837 -8.094974335406988e-06 -1.3926617934861624e-05 -8.094974335406988e-06 -3.0464191887564046e-06" pbc="T T T"
C       -0.02252681       0.00085391       3.57181351       0.00000000      -0.00627651       0.00331933      -0.00436333
C       -1.24366221       2.14912931       3.57272281       0.00000000      -0.00937590      -0.00436194       0.00560700
C       -2.46946508       4.27176192       3.57347685       0.00000000       0.00277871      -0.00621807       0.00740837
C       -3.71883301       6.40332778       3.57075123       0.00000000      -0.00429346      -0.00574721       0.00263627
C       -4.96070371       8.54022379       3.57164331       0.00000000       0.00264305       0.01039603      -0.00131525
C        2.44892420       0.00715628       3.56712666       0.00000000       0.00966085      -0.00162791       0.00265808
C        1.22368010       2.15450339       3.56927186       0.00000000       0.00529289      -0.00175672       0.00856767
C        0.04542579       4.30796094       3.57878272       0.00000000      -0.01172362      -0.00030825      -0.00834664
C       -1.23109262       6.40601078       3.56884068       0.00000000      -0.00289266       0.00280962      -0.00070259
C       -2.47792746       8.54048752       3.56539091       0.00000000       0.00587946       0.01051338       0.00809906
C        4.92131295       0.00103820       3.57480592       0.00000000      -0.00728234       0.00223936      -0.01270319
C        3.67500759       2.15462060       3.57348940       0.00000000       0.00132170      -0.00469247       0.00188898
O        2.44949675       4.21816197       3.59581808       0.00000000       0.00407022       0.00486164      -0.00373027
O        1.16764454       6.43645327       3.61075356       0.00000000       0.00913377      -0.00029099      -0.00358320
C       -0.00526165       8.52945567       3.57189165       0.00000000      -0.00449182      -0.00432801       0.00728407
C        7.39220006      -0.01418791       3.57893672       0.00000000      -0.00228540      -0.01065637      -0.00140166
C        6.14293472       2.14905721       3.57834862       0.00000000      -0.00546170       0.00390959       0.00616629
C        4.85339943       4.30809544       3.58575481       0.00000000       0.00396906       0.00360089       0.00241801
O        3.72843906       6.43486481       3.58977487       0.00000000       0.00399067       0.00215573       0.00277013
C        2.44920805       8.47285452       3.58245420       0.00000000       0.00144544      -0.00248743       0.00915564
C        9.84259924      -0.01488714       3.57532023       0.00000000       0.00970673       0.00388935       0.00707538
C        8.61770393       2.13528076       3.57501384       0.00000000       0.00433517       0.00523234       0.00920061
C        7.36818572       4.27161378       3.57847700       0.00000000       0.00392470      -0.00533988       0.00077863
C        6.12923644       6.40549770       3.58282860       0.00000000      -0.00477961      -0.00219677      -0.00475187
C        4.90352121       8.52888128       3.57877401       0.00000000      -0.00406776      -0.00956616       0.00656449
C       -0.01781665       1.43258938       3.57005721       0.00000000      -0.00755912       0.00032923       0.00343272
C       -1.21200970       3.58257665       3.57611054       0.00000000      -0.00528779      -0.00445117      -0.00816191
C       -2.47674701       5.69164577       3.57031975       0.00000000      -0.00183845      -0.01024870      -0.00122867
C       -3.71941413       7.82906981       3.56805001       0.00000000       0.01120869       0.00251243       0.00246322
C       -4.95599829       9.97108806       3.56938403       0.00000000       0.00007201       0.00925203       0.00044594
C        2.44925143       1.42989376       3.56787196       0.00000000       0.00461890      -0.01233910       0.00615519
C        1.25020436       3.55112556       3.57910243       0.00000000      -0.00190671       0.00104220      -0.00805359
C       -0.00851036       5.72981429       3.57822774       0.00000000      -0.00198133       0.00571611      -0.00139350
C       -1.24571141       7.82981785       3.56657997       0.00000000      -0.00232629       0.00607771       0.00644342
C       -2.48233153       9.97140448       3.56878130       0.00000000       0.00580043       0.00649107      -0.00162491
C        4.91698211       1.43271141       3.57537614       0.00000000      -0.00970399      -0.00170695       0.00280812
C        3.64840046       3.55161616       3.58331242       0.00000000       0.00613715      -0.00085577      -0.00011037
C        1.19128351       7.80823403       3.58312290       0.00000000       0.00185173       0.00252275      -0.00914269
C       -0.00901932       9.96568459       3.57621976       0.00000000      -0.01470337      -0.00607725      -0.00670922
C        7.38431559       1.42367916       3.57850244       0.00000000       0.00310799      -0.00705055      -0.00689192
C        6.11083756       3.58245380       3.58159264       0.00000000      -0.00025460       0.00209864      -0.00414970
C        4.90580083       5.72993172       3.58892562       0.00000000       0.00174911       0.00035756      -0.01206895
C        3.70687067       7.80732084       3.58439862       0.00000000      -0.00111128      -0.00082532      -0.00605429
C        2.44888072       9.92464385       3.57923058       0.00000000       0.01022002       0.00323484      -0.00174560
C        9.85101725       1.42318461       3.57347966       0.00000000       0.00235621       0.00243241       0.00269566
C        8.61757230       3.55926410       3.57563356       0.00000000       0.00573054       0.00917656      -0.00309673
C        7.37570430       5.69135658       3.57712934       0.00000000      -0.01180472      -0.00074061       0.00271645
C        6.14399740       7.82925010       3.57821939       0.00000000      -0.00601640       0.00432724      -0.00185246
C        4.90782239       9.96530569       3.57568196       0.00000000       0.00020592      -0.00823182      -0.00492886
Hg       1.42885045       5.81009640       8.05223313       0.00000000       0.00635613       0.00364766       0.00415803
O        2.83974255       5.65302529      11.29307692       1.00000000      -0.00090243       0.00003805      -0.00339155
O        4.03948810       5.39721914      11.13284516       1.00000000       0.00076003      -0.00007834       0.00190551
