52
Lattice="12.336457 0.0 0.0 -6.168228499999997 10.683685154694365 0.0 0.0 0.0 15.0" Properties=species:S:1:pos:R:3:forces:R:3 energy=-438.1688773900188 free_energy=-438.1688773900188 stress="0.0023791947392233143 -0.0018519913646931443 2.4792508144814057e-05 -0.0018519913646931443 0.0071346014758469955 2.1310186125080074e-05 2.4792508144814057e-05 2.1310186125080074e-05 -1.6995323263211784e-05" pbc="T T T"
C       -0.03782482       0.04076415       3.61874510       0.00267689       0.00179796      -0.00457316
C       -1.28315352       2.17084363       3.60541240      -0.00281873       0.00207749      -0.00178684
C       -2.50634719       4.30510221       3.58393520      -0.00361157       0.00292767       0.00304838
C       -3.72835566       6.44308860       3.58044429      -0.00179961       0.00624302       0.00513049
C       -4.96771241       8.58839185       3.58677811       0.00075038      -0.00160182      -0.00302887
C        2.42135467       0.06034137       3.67253179       0.00315460       0.00504849      -0.00435884
C        1.15518735       2.20313752       3.69084451       0.00494338       0.00150954      -0.00100542
C       -0.06165570       4.30411888       3.56043061       0.00973719       0.00070666       0.00307782
C       -1.25147029       6.42066720       3.56154596      -0.00898457      -0.01122644       0.00473595
C       -2.48939288       8.57651172       3.60903963      -0.00544993      -0.00513794      -0.00982883
C        4.90031824       0.02277604       3.76090545       0.00079425       0.00024687      -0.00704742
C        3.64098246       2.12641394       4.12579625      -0.00282223       0.00354335      -0.00638558
O        1.14807480       6.42309247       3.58273944       0.00633984      -0.00039351       0.00939212
C       -0.01648255       8.53956619       3.64861128       0.00193867      -0.00003262       0.00015163
C        7.36808636       0.00314034       3.72600850       0.00747166      -0.00138744      -0.00322500
C        6.12296399       2.17720267       3.88362233       0.00339941      -0.01073116      -0.00192577
C        4.93944942       4.40055631       4.09917679      -0.00253063      -0.00170307      -0.00237086
O        3.74237693       6.47503694       3.88264247      -0.00631020      -0.00047313       0.00778830
C        2.43257348       8.48600559       3.68279874       0.00227265       0.00632952      -0.00723420
C        9.81787362       0.00439540       3.65594845      -0.01147345      -0.00225782      -0.00508706
C        8.58613096       2.15966313       3.68301204      -0.00163997       0.00409263      -0.00361721
C        7.36329440       4.31137625       3.70721966       0.00009571       0.00356823      -0.00087600
C        6.14789744       6.46552022       3.67760777       0.00762000      -0.00135814      -0.00502282
C        4.89317251       8.56533392       3.64220046      -0.00292482       0.00209399       0.00237523
C       -0.04119001       1.47822668       3.62696585       0.00203504       0.00333408      -0.00034063
C       -1.26862553       3.60067299       3.57496414       0.00173480       0.00543802       0.00473269
C       -2.49365500       5.71982928       3.56457607      -0.01394374       0.00066873       0.00807791
C       -3.72905745       7.87105334       3.58120133      -0.00484767       0.00064066      -0.00658206
C       -4.97021052      10.02300890       3.60740151       0.00428221       0.00004335       0.00609911
C        2.40130430       1.49337478       3.81010110       0.00128853       0.00552957       0.00138696
O        1.12334696       3.58478104       3.57461680       0.00923748      -0.00147596       0.00235074
C       -0.04115292       5.71760972       3.55889364       0.00174853      -0.00046320       0.00019075
C       -1.25940573       7.84900465       3.60123794      -0.00428203      -0.00992662      -0.00373928
C       -2.50613699      10.01188747       3.67752300      -0.00132989      -0.00207107       0.00149946
C        4.88483183       1.45472957       3.92653515      -0.00272607      -0.00369208       0.00156921
P        3.61033275       3.66997135       4.98756580      -0.00084464      -0.00404433       0.00534679
C        1.17782248       7.80427341       3.64189885       0.00620429       0.00262175       0.00398392
C       -0.02940593       9.98117731       3.71328320       0.00687791       0.00471760       0.00604122
C        7.35266486       1.44893381       3.76031368       0.00725290      -0.00521794       0.00713375
C        6.12261848       3.62032709       3.88700429       0.00056606      -0.00619471      -0.00174264
C        4.94027265       5.79904430       3.88951119       0.00220445       0.00040957      -0.00036767
C        3.70139304       7.84244626       3.71610995      -0.00319255       0.00096827      -0.01107851
C        2.42598152       9.94057779       3.68650643      -0.00358472      -0.00096410      -0.00315617
C        9.82522274       1.44954510       3.64096009      -0.00759420      -0.00368322       0.00037019
C        8.59087036       3.58851491       3.64961268      -0.00171474       0.00625088       0.00307943
C        7.37621579       5.73260950       3.64318233       0.00967581       0.00455134      -0.00164068
C        6.14361833       7.87830181       3.61695330       0.00124439      -0.00016385       0.00250513
C        4.89085025       9.99843597       3.62717898      -0.00531735       0.00442759       0.00029022
Hg       4.25872819       3.34615706       7.27978260       0.00259764       0.00912119       0.00062134
O        4.88301434       3.10663682       9.26002963      -0.00531196      -0.01682002      -0.00049980
O        3.71207853       3.53089281      10.05560218       0.00515837      -0.01317549       0.00835375
H        4.12748725       3.50276273      10.93926156      -0.00824777       0.01528765      -0.00281115
