51
Lattice="12.336457 0.0 0.0 -6.168228499999997 10.683685154694365 0.0 0.0 0.0 15.0" Properties=species:S:1:pos:R:3:initial_magmoms:R:1:forces:R:3 energy=-1431900.2008841366 free_energy=-1431900.2008841366 stress="3095.3493910522843 -818.9681452850058 -2236.9397504989706 -818.9681452850058 4864.975033436366 -1850.9951858845238 -2236.9397504989706 -1850.9951858845238 3179.505288029408" pbc="T T T"
C       -5.06861450      -2.79425625       3.39483420       0.00000000    2856.91197875   -3738.49060779    8212.31576711
C       -5.11416805       2.12123267       4.46810741       0.00000000     196.42387503      54.51250177     -18.00850144
C       -2.45685271       6.04486298       1.81875531       0.00000000      55.51181112     -12.57075442      10.24594454
C        0.30827562       6.67927016       1.56035421       0.00000000     713.60344996     -51.81350922    -305.09645633
C       -9.12332072      11.12151512       5.81984715       0.00000000     -73.40670167     198.78149315       5.79774282
C        2.52590231      -1.50063237      13.29813094       0.00000000     -20.08077490      13.26754324       0.71294175
C        2.92313468      -1.19417148       1.78480540       0.00000000      -1.06996330      15.53508499       2.79459648
C        0.31863295       4.30889855       0.72096904       0.00000000     607.07809293   -1083.43096774   -1676.70354579
C       -0.12651520       4.06272365       4.47301811       0.00000000   34575.55634595   34206.07995381   30804.48316527
C       -4.98486360       4.53033562      12.35343970       0.00000000      -3.61141663      -3.70635919       0.81171844
C        3.43791142      -2.08072416      -1.70560993       0.00000000      21.24258843     -13.39795793       0.78856988
C        3.33099025       6.07990394       3.00118205       0.00000000     -89.50479559   -1642.43452457   -2987.95468317
B       -0.55135862       6.33421227       7.96096101       0.00000000   42566.05453016   -6972.46765317  -29897.99340087
C        4.13015670       4.82218587       4.17765920       0.00000000 -176008.83989160   58883.78129559  153699.32816852
C        6.34494379       2.34217754       0.23696367       0.00000000    -117.29789279      61.01302611     118.61165844
C       15.70404348       3.45992464       1.40440486       0.00000000    -682.28142238   -1839.76232309   -5109.91711904
C        4.90829706       1.01650776      -6.85341415       0.00000000     110.16693240     -94.89182137      50.09687756
C        2.95913929       4.63239422       3.40775471       0.00000000 -116158.08996069   79718.39641447  301826.88550164
C        1.50212848       6.43477627       3.08530958       0.00000000    8830.64485086   -9349.43379634   26629.56243464
C       11.72595652       1.39809681       2.11475727       0.00000000     -91.22807828     -50.68282020     -42.43281148
C       12.78871759      -3.49250058       1.94554727       0.00000000    -123.95277632     -98.66801642      59.23539308
C       13.38716337      10.03327872       0.72422511       0.00000000      -5.95622714     -15.72638388      33.69932943
C        3.92967345       3.42984053       3.54724116       0.00000000   15129.18336015  -24760.11739045   57804.21120116
C        4.14366053       9.40188440       2.69690709       0.00000000     182.42415684     106.41315627    -137.88234612
C        1.01108533       4.04680742       0.62430110       0.00000000   -1915.03950153     198.89742414    -910.85995000
C        0.25179280       4.53024655      -1.46297912       0.00000000      11.48836084      28.47990148     -88.32057956
C        7.98188715      10.99952048       5.58403743       0.00000000     -72.02793123   -3278.75714312    -296.73856103
C       -4.02131404      -1.11271260      -3.09121012       0.00000000      -1.86130750       1.56254063       0.31596573
C       -8.27043311      10.42855879       5.96863245       0.00000000     268.13933766     916.64109528     125.32111159
C        2.20583842       3.74232507       6.14720796       0.00000000 -1019810.39717442 6166814.88527285 -1347184.21590557
N       -1.11547368       1.00420984       7.32813568       0.00000000    -763.42962880   -1266.83495452     455.94473239
C        0.05894918       5.67254355       7.43507715       0.00000000   35576.15169731   42360.25850149    4689.47294063
C       -9.75888463       9.85000918       3.09287493       0.00000000     -49.78640861     447.76616863    -425.62191710
C       -7.62929448       6.88984082       9.90628232       0.00000000     297.95057214      63.28399337      92.93158997
C       -0.17816427       2.67329734       4.59039643       0.00000000   -6717.52278100   -5643.72474124   -2051.51561265
P        4.13828850       3.08888890       4.35305150       0.00000000  -66041.97454456   77393.59145591  -30964.07923364
C        1.07656377      16.97163878       8.63213512       0.00000000      34.54510737      20.26037639      45.05122944
C        3.97860079      12.99894373       2.51116878       0.00000000     -46.29228337      36.93764633     -65.26112656
C        7.41153727       1.61593127       6.84959848       0.00000000     -20.36500961      16.59309869     -43.08169936
C        5.61389403       4.52285599      -3.27753827       0.00000000       4.89317409     -10.97298736       5.06348333
C        2.71029996       5.88105787       4.48145227       0.00000000 -1727496.81753772 -1120502.92993016 3079208.00043979
C        4.49849532      -1.27813427       7.69478710       0.00000000    -453.36206173     411.60087601     186.25528738
C       -1.26150313      12.52306867       4.79072585       0.00000000    -962.16632189    2157.28834790   -1152.90854204
C       14.28065555       4.96500157       2.32314705       0.00000000    7535.80178219    8040.77062386    3820.28002166
C       13.57053022       2.07031725       2.02696215       0.00000000      46.36413035   -1803.74153141   -2471.64576166
C        3.87729568       8.84771778       4.86274552       0.00000000   -1981.96218652   -3738.78405007    1657.34260137
C        6.02622964       8.45775092       8.53767614       0.00000000     135.10026397      45.37733391     125.77508669
C        6.53557609      10.49794604       1.36469734       0.00000000      12.52194229      16.39130333      34.74020745
Ir       1.95857592       5.27502229       5.80537219       0.00000000 -19328354.48258584 -3795065.91996679 7183160.35707637
O        2.28170898       6.12663337       6.38908747       1.00000000 -4457728.16513626 1456106.75257960 2388858.68878978
O        1.87351640       5.44595493       5.96960638       1.00000000 26756023.21396107 -2947295.85881877 -11815894.88382094
