52
Lattice="12.336457 0.0 0.0 -6.168228499999997 10.683685154694365 0.0 0.0 0.0 15.0" Properties=species:S:1:pos:R:3:initial_magmoms:R:1:forces:R:3 energy=-451.91596984901605 free_energy=-451.91596984901605 stress="-0.0028240597197546004 0.003773088056998412 1.3166730371188836e-05 0.003773088056998412 -0.0018632903289589955 4.2282524487361256e-05 1.3166730371188836e-05 4.2282524487361256e-05 -3.5056211281232115e-06" pbc="T T T"
C       -0.12611475       0.00371014       3.84932935       0.00000000      -0.00254093      -0.00678605      -0.00521448
C       -1.33305099       2.15712377       3.90989376       0.00000000       0.00535539       0.00430233       0.00305366
C       -2.56103961       4.29137989       3.93237747       0.00000000       0.00003462       0.00484793      -0.00295142
C       -3.81526495       6.42375721       3.89282302       0.00000000      -0.00064429      -0.01289407      -0.00985775
C       -5.08059172       8.54010072       3.80935163       0.00000000       0.00385563      -0.00577082      -0.00711287
C        2.33545987       0.00735720       3.96457227       0.00000000      -0.00398649       0.00119667      -0.00974305
C        1.12694527       2.16258082       3.79302206       0.00000000       0.00284334      -0.00077221      -0.00453449
C       -0.11486280       4.30002506       3.56315725       0.00000000       0.00397386       0.00383285      -0.00677191
C       -1.36617486       6.43805672       3.63115670       0.00000000       0.00235711       0.00344717       0.00265765
C       -2.59627108       8.56110271       3.88380936       0.00000000      -0.00444119       0.00335037       0.00288171
C        4.81048398       0.01043298       4.10869488       0.00000000      -0.00468162       0.00399603       0.00545409
C        3.59931940       2.12648480       4.03078504       0.00000000      -0.00494708      -0.00176244      -0.01040287
B        2.44558912       4.30953557       3.43583260       0.00000000       0.00247441      -0.00656453       0.00156083
S        0.95855970       6.56318431       2.33364431       0.00000000      -0.00013495      -0.00602193       0.00653986
C       -0.15493560       8.60903569       3.68498433       0.00000000       0.00099359      -0.00159668      -0.00194508
C        7.28624047       0.02442790       4.06005435       0.00000000      -0.00313751      -0.00304527       0.00855040
C        6.07492852       2.13177136       4.22130071       0.00000000       0.00022213      -0.00073224      -0.01142942
C        4.90302860       4.20420356       3.84190940       0.00000000       0.00020550       0.00128590      -0.01051545
S        4.73447483       5.40689728       1.38352847       0.00000000       0.00781407       0.01770215      -0.00110896
C        2.30614127       8.64734398       3.50540522       0.00000000      -0.00215512       0.00238120       0.00383171
C        9.76370932       0.02048445       3.92011290       0.00000000      -0.00366532      -0.00074799       0.00212266
C        8.54434002       2.15084269       4.12368808       0.00000000       0.00500715       0.00132489       0.00203348
C        7.32468503       4.27873783       4.04204006       0.00000000      -0.00049117      -0.00336225       0.00093600
C        6.08295711       6.38988296       3.63389600       0.00000000       0.00608478       0.00731143      -0.01501486
C        4.77634578       8.53204839       3.60953375       0.00000000      -0.00788869       0.00199588      -0.00042214
C       -0.10911741       1.43766914       3.85469661       0.00000000       0.00371873      -0.00259194       0.00126189
C       -1.33618440       3.58313269       3.83023339       0.00000000       0.00102055       0.00660131      -0.01185501
C       -2.58023554       5.71469412       3.85675528       0.00000000       0.00442069      -0.00017690       0.00222481
C       -3.83743210       7.84511941       3.86302368       0.00000000       0.00129266      -0.01099928       0.00340682
C       -5.06809816       9.96800558       3.86959867       0.00000000      -0.00006895      -0.00529998      -0.00251169
C        2.35039525       1.43431420       3.93613050       0.00000000      -0.00272560      -0.00083366      -0.00306602
C        1.11564587       3.58501414       3.58964096       0.00000000       0.00223842      -0.00009004      -0.00554356
C       -0.20052750       5.69886341       3.30898435       0.00000000       0.00289117       0.00439481      -0.00178994
C       -1.37308676       7.86442412       3.70585240       0.00000000      -0.00145127       0.00356333       0.00926052
C       -2.59631059       9.98464335       4.00204404       0.00000000      -0.00454107       0.00627057      -0.00475325
C        4.82911089       1.42477773       4.17948248       0.00000000      -0.00397415       0.00386304      -0.00934131
C        3.68992819       3.52853020       3.84075795       0.00000000       0.00063184      -0.00115126       0.00584851
C        1.05501355       8.03480581       3.26693567       0.00000000       0.00427415      -0.01214442       0.01463670
C       -0.12547519      10.00282474       4.00162406       0.00000000      -0.00518838      -0.00184180       0.00524672
C        7.30670140       1.43678862       4.18934544       0.00000000       0.00332025      -0.00136169       0.01149110
C        6.10434637       3.55028337       4.11039039       0.00000000      -0.00201772       0.00120963       0.00858261
C        5.01220811       5.49655275       3.16817443       0.00000000       0.00416021       0.00682829      -0.00739465
C        3.51247951       7.94081845       3.38375239       0.00000000      -0.00637708       0.01265559       0.00897267
C        2.34568720      10.02827142       3.87973537       0.00000000      -0.00362194       0.00005413       0.00485954
C        9.77377508       1.44466624       4.01547519       0.00000000       0.00531899       0.00094416       0.00575445
C        8.54990389       3.57487313       4.07319761       0.00000000       0.00099732       0.00209961       0.00199261
C        7.29387499       5.70382940       3.88244050       0.00000000      -0.00098515      -0.00563031      -0.00320442
C        6.02494399       7.79765800       3.65366037       0.00000000      -0.00356888       0.00302695       0.00727665
C        4.80865794       9.97262601       3.79369612       0.00000000      -0.00653145      -0.00447227       0.01331861
Ir       3.09558295       6.09312604       2.72121037       0.00000000       0.00291092       0.00345196      -0.00281542
O        5.23607975       5.34476690       6.45234766       1.00000000       0.00944338      -0.00783780       0.00950248
O        4.82451862       6.49037137       6.29524220       1.00000000      -0.00809487      -0.00745035      -0.00395874
