52
Lattice="12.336457 0.0 0.0 -6.168228499999997 10.683685154694365 0.0 0.0 0.0 15.0" Properties=species:S:1:pos:R:3:forces:R:3 energy=-450.11570096499605 free_energy=-450.11570096499605 stress="-0.007853419111255287 -0.003149757676554797 1.535862962636542e-05 -0.003149757676554797 -0.0036947193134473783 -5.884218518515833e-06 1.535862962636542e-05 -5.884218518515833e-06 -9.17664601397094e-06" pbc="T T T"
C       -0.01064508      -0.04092182       3.88479007       0.01276565      -0.00035853      -0.00225897
C       -1.26816922       2.08341701       3.92689991       0.00685085      -0.00167001       0.00102007
C       -2.50288690       4.23645382       3.79397078       0.00362707      -0.00056869      -0.00837371
C       -3.69386629       6.39156743       3.67924271      -0.00541832      -0.00169142      -0.00453979
C       -4.92028845       8.53180114       3.75332848       0.00526751      -0.00762242      -0.00119408
C        2.46977387      -0.04195964       3.84782395      -0.00009715       0.00584724      -0.00844793
C        1.22575123       2.06653626       4.04667584      -0.00799967       0.00414950       0.00680139
C       -0.11631575       4.25015766       4.11525993      -0.00370412      -0.00878186       0.01325866
C       -1.27560887       6.39060835       3.90044618      -0.00632608      -0.00261971      -0.00300312
C       -2.45950990       8.52272677       3.78839662      -0.00990344      -0.00087942       0.00509333
C        4.92950751      -0.02328544       3.69663734       0.00625498      -0.00179011      -0.00561934
C        3.65436634       2.06485176       3.53896441      -0.01205006      -0.00102326      -0.00015081
B        1.20882035       6.35089651       4.19286796       0.01331086      -0.00690199      -0.00225730
C        0.00210092       8.51883246       3.86493339       0.00750476       0.00909743      -0.00279838
C        7.39654340      -0.03892734       3.70379204       0.00220697      -0.00476060      -0.00451789
C        6.15070277       2.11316385       3.47106590      -0.00238562      -0.00357286       0.00243483
C        5.02114837       4.34077376       3.23006081       0.00268824      -0.00216355      -0.00728671
N        3.83919703       6.37269950       3.77927541      -0.00194957       0.00340727       0.00480483
C        2.48446029       8.49271671       3.85844034      -0.00262794       0.00365025      -0.01334709
C        9.85891181      -0.04699086       3.79222961      -0.01125695      -0.00367260      -0.00403206
C        8.61803233       2.09799848       3.67080692      -0.00555478      -0.00146280      -0.00077504
C        7.40997934       4.25559731       3.50513528       0.00930625       0.00828564       0.00464725
C        6.22522602       6.43173862       3.51609088       0.01006936       0.00019383      -0.00260720
C        4.94618331       8.50614062       3.74979758       0.00546144       0.00615730       0.01319630
C       -0.01865888       1.38177363       3.97964337       0.00610990       0.00019775       0.00024796
C       -1.29499659       3.50497460       3.95589349       0.00194952      -0.00555508       0.00453677
C       -2.49023808       5.66619093       3.78340195      -0.01024979      -0.00050306      -0.00598626
C       -3.68958376       7.81497175       3.73705088      -0.00715085      -0.01047793       0.00913695
C       -4.93596108       9.94403009       3.85333775       0.00746418      -0.00609981      -0.00846332
C        2.45630606       1.37874155       3.85566443      -0.01105796       0.00720302      -0.00140771
B        1.21429076       3.54076666       4.31957733      -0.01466806      -0.00362532       0.00970255
C       -0.11072742       5.63576028       4.06626840      -0.00518994      -0.00649124       0.00530225
C       -1.23594990       7.81193227       3.85271326      -0.00236125       0.00599152       0.00277169
C       -2.46335982       9.94551276       3.77707269       0.00090446       0.00303040       0.00890842
C        4.91414169       1.40913600       3.54659549      -0.00488074      -0.00151863       0.00602636
S        3.46253523       3.67397256       2.90232578      -0.00331301      -0.00719335      -0.00819527
C        1.24547268       7.82816018       3.96785708       0.00330250       0.00026747      -0.00927702
C       -0.00508674       9.94290327       3.74380945       0.00984559       0.00767031       0.00675111
C        7.38035428       1.39329786       3.59812507      -0.00675129      -0.00759684       0.01524512
C        6.17210592       3.54783880       3.37597380       0.00832225       0.00237610       0.00440091
C        5.00605658       5.74113368       3.43131100       0.00496118       0.00662481      -0.01056388
C        3.73138702       7.74614622       3.80115197       0.00011242       0.00904165       0.01116033
C        2.46786646       9.91893211       3.77421069      -0.00928473      -0.00245369      -0.01049195
C        9.84676234       1.37828081       3.79396179      -0.00067470      -0.00274066       0.00753671
C        8.61850209       3.52580410       3.64801308       0.00500608       0.00374144      -0.00546174
C        7.42512633       5.68157029       3.54387497       0.00772983       0.00452778      -0.00964620
C        6.19086558       7.83227433       3.67523393       0.00664221       0.00068319       0.00112425
C        4.92787743       9.92648760       3.81680642       0.00329332       0.00920172       0.00090516
Ir       2.55052119       4.92391589       4.56263039      -0.00349652      -0.00472234       0.00072529
O        3.02303340       5.90250781       6.19528294       0.00356880       0.00614141      -0.01407627
O        2.53168622       5.15512285       7.35250345       0.00440132       0.00105211       0.00947784
H        3.38262393       4.94627305       7.79309121      -0.01057493      -0.00002137      -0.00043732
