53
Lattice="12.336457 0.0 0.0 -6.168228499999997 10.683685154694365 0.0 0.0 0.0 15.0" Properties=species:S:1:pos:R:3:forces:R:3 energy=-463.2804834871381 free_energy=-463.2804834871381 stress="-0.004974981172103747 0.006244056471008946 9.518646036440763e-06 0.006244056471008946 -0.0045588317941995405 -1.2118878852496159e-05 9.518646036440763e-06 -1.2118878852496159e-05 2.4880365873670247e-05" pbc="T T T"
C        0.03501765      -0.02393966       3.75791538       0.00221822      -0.00419534       0.01279701
C       -1.16533060       2.13044995       3.81161478       0.00428801       0.00022358       0.00367590
C       -2.38954778       4.25994429       3.86566816       0.00128411      -0.00101095      -0.01093207
C       -3.66138486       6.38781917       3.83421168      -0.00192267      -0.00553776       0.00349431
C       -4.92195760       8.51448291       3.77940833      -0.00597062       0.00152109       0.00442972
C        2.49189487      -0.02144545       3.71576482       0.00024020      -0.00191343      -0.00774069
C        1.29041977       2.14162916       3.72402231      -0.00244273       0.00554515       0.00238957
C        0.08111233       4.28932602       3.89679422       0.00140927       0.00011841       0.00385634
C       -1.19781550       6.41448677       3.92299763       0.00496711      -0.00004901       0.01298992
C       -2.45695185       8.53207159       3.81241697      -0.00705900      -0.00664560      -0.00297455
C        4.96834047      -0.02956572       3.70154401       0.00043434       0.00753371      -0.00275795
C        3.76500284       2.07305579       3.58158069      -0.00704593      -0.00389946      -0.00347548
B        2.63195365       4.34854790       3.75422018       0.00460853      -0.00572956       0.00903981
N        1.18747255       6.51138101       4.12155303      -0.00071737      -0.00333986      -0.00977381
C       -0.01059339       8.54623718       3.82776002       0.00229325       0.00345399      -0.00170231
C        7.44339576      -0.02762477       3.74716047      -0.00575868       0.00096514      -0.00481798
C        6.24958253       2.07190039       3.63370414       0.00133241       0.00175405       0.00702275
C        5.07064662       4.14835852       3.55389065       0.00270478      -0.00349696      -0.00283765
P        3.49160703       6.10462351       2.81219783       0.00571563      -0.00177867       0.00395570
C        2.45446261       8.54859051       3.75503497       0.00123698       0.00751459      -0.00204099
C        9.91866368      -0.01967552       3.77960201      -0.00000029       0.00227419      -0.00099283
C        8.70980337       2.11034131       3.76730294      -0.00400024      -0.00613974       0.01017313
C        7.49635188       4.23392948       3.74037150       0.00158530      -0.00366646       0.00367357
C        6.21350971       6.36577363       3.76746730       0.00373706       0.00301046      -0.00351832
C        4.94186707       8.49859674       3.75711758       0.00035234       0.00035714      -0.00281881
C        0.05483495       1.41165951       3.76517731       0.00259008      -0.00204338       0.00051960
C       -1.15358450       3.56298796       3.86759521       0.00280567       0.00109144      -0.00384493
C       -2.41571055       5.68538408       3.87926865       0.00397430       0.00042645       0.01135011
C       -3.68653402       7.81045182       3.81582407      -0.01147373      -0.00591678      -0.00745793
C       -4.91175409       9.94108267       3.75144584       0.00169566      -0.00052935       0.00169320
C        2.50831327       1.39586484       3.66714998      -0.00793159      -0.00108098      -0.00456413
C        1.29287270       3.58085929       3.76486943       0.00163676       0.00524810       0.00761392
C        0.06519706       5.74429689       3.99618001       0.00177831      -0.00413837      -0.00701378
C       -1.22781564       7.82797106       3.86796609       0.00182880       0.00054815       0.00104008
C       -2.44457375       9.95115114       3.73854275       0.00138986      -0.00229130      -0.00353870
C        5.00138555       1.37385973       3.61844371      -0.00074022       0.00667799      -0.00469586
C        3.84872240       3.46521899       3.50960049       0.00123493      -0.00555730       0.00293560
C        1.20537691       7.84329293       3.86292943       0.00233960       0.00007196       0.00110813
C        0.02972639       9.95511926       3.75479827      -0.00249742       0.00395352      -0.01482856
C        7.47456880       1.38463143       3.71265840      -0.00489416      -0.00325347       0.01873697
C        6.29167847       3.48732885       3.62176042       0.00362952      -0.00155349       0.00141569
C        4.99221696       5.57177062       3.75712067       0.00715292      -0.00135619      -0.00008675
C        3.66236960       7.80009348       3.75727129       0.00290820       0.01038400      -0.00264047
C        2.50300560       9.95462845       3.77186863      -0.00351305       0.00700962      -0.00864734
C        9.93716107       1.40586528       3.79295667       0.00129457       0.00135340      -0.00033331
C        8.72192702       3.53529546       3.79725185       0.00046756      -0.00528298      -0.01888173
C        7.45151920       5.66480111       3.78700593      -0.00006163      -0.00353865       0.00980784
C        6.17885729       7.78699189       3.77292998      -0.00048562       0.00303609      -0.00119769
C        4.96647815       9.93070731       3.77289504       0.00009455      -0.00239918       0.00322983
Ir       3.19575768       5.91390354       4.87525344      -0.00170381       0.00394107       0.00863164
O        3.14572699       5.89911333       6.77978779      -0.01295167       0.00639852      -0.00095847
O        1.92077398       6.60132096       7.01242018      -0.00007857       0.00849873       0.00487687
H        2.01321697       6.71879020       7.98315130       0.00602018      -0.00656633      -0.01538415
