52
Lattice="12.336457 0.0 0.0 -6.168228499999997 10.683685154694365 0.0 0.0 0.0 15.0" Properties=species:S:1:pos:R:3:forces:R:3 energy=-449.8789816411016 free_energy=-449.8789816411016 stress="-0.008544540202074988 -5.1906917795665606e-05 1.630817500618069e-05 -5.1906917795665606e-05 -0.003976144328039068 -2.414595671468225e-05 1.630817500618069e-05 -2.414595671468225e-05 7.219880043028815e-06" pbc="T T T"
C        0.07388890       0.02383792       3.83287149      -0.00977913      -0.00378376      -0.00387853
C       -1.16542702       2.14818855       3.54795072      -0.00555953      -0.00618554      -0.00954688
C       -2.43108133       4.29911283       3.51939960       0.00090864       0.00426961      -0.00380416
C       -3.63834744       6.44609647       3.72690932      -0.00127249       0.00544339       0.00255726
C       -4.85368171       8.58118209       3.89428123       0.00070432      -0.00222580      -0.00139585
C        2.54341822       0.01073249       3.94040901      -0.00481722       0.00163722       0.00672414
C        1.33292808       2.10328648       3.61469753       0.00457754      -0.00665692       0.00056738
C       -0.06748585       4.33457956       3.12984818      -0.00784976      -0.00603574      -0.00697607
C       -1.22419165       6.46557020       3.50590072      -0.00314811      -0.00723844      -0.00301411
C       -2.39208355       8.57777850       3.82166897       0.00530184       0.00670737      -0.00227876
C        5.01582867       0.01999726       3.95443187       0.00511258      -0.00084066      -0.01573561
C        3.77225967       2.12936116       4.02952177       0.00615787       0.01162032      -0.00206765
B        1.22593336       6.41241144       3.66277186       0.01583582      -0.00257682       0.01016052
C        0.07129103       8.57906021       3.79055810      -0.00666873      -0.00081073       0.00207733
C        7.48659957       0.01591012       3.90116120       0.01170251      -0.00452148       0.00100680
C        6.25527259       2.15862242       3.95653695      -0.00468082      -0.00498987      -0.00671241
C        5.08546528       4.35266738       4.03638652       0.00906144       0.00415200       0.00965490
N        3.87748270       6.43063280       4.13630483      -0.00176889      -0.00017005      -0.00188105
C        2.55830028       8.55142539       3.93065745      -0.00568938      -0.00297846      -0.00053433
C        9.94956156       0.01495381       3.85032716      -0.00378535       0.00347441      -0.00160686
C        8.71264645       2.15502811       3.75753924      -0.00552791       0.00657894       0.01012331
C        7.48583885       4.30438745       3.81372634       0.00528631      -0.00600201      -0.00514229
C        6.27783948       6.47027878       3.92781599       0.00817366      -0.00900854       0.00108658
C        5.01477195       8.55780901       3.97092834      -0.00130244      -0.00256254      -0.01190360
C        0.07677335       1.44944614       3.65170273      -0.00088339      -0.00447457       0.00517561
C       -1.21164083       3.56309223       3.35724440      -0.00361323      -0.00516973       0.01095672
C       -2.43539593       5.72895467       3.55992940      -0.00622965       0.00203308       0.00015722
C       -3.62763875       7.86805380       3.81409718       0.00516012       0.00561267       0.00013712
C       -4.86055293      10.00069216       3.89852680      -0.00904946      -0.00091993       0.00906026
C        2.54470133       1.42969010       3.91243836       0.00603674       0.00410871       0.00870873
S        1.50571325       3.67157842       2.90433564       0.00415899       0.01725787       0.00677789
C       -0.05211304       5.72010078       3.30757425       0.00023517      -0.00546674      -0.00200604
C       -1.16983074       7.87496787       3.70715058      -0.00284908      -0.00664895       0.00725975
C       -2.38616428       9.99338603       3.93236987       0.00029700       0.00719304      -0.00541498
C        5.01612808       1.44849640       4.00875725      -0.00295688      -0.00081697      -0.00981503
B        3.79429042       3.62020299       4.18050101       0.00917547       0.01349708      -0.00617954
C        1.31705991       7.89449874       3.79446724      -0.00739363       0.00447891      -0.00925419
C        0.07776802       9.99805625       3.89487650       0.00786057       0.00067583      -0.00087168
C        7.48409473       1.44365499       3.88295067      -0.00299001      -0.00286573      -0.00574040
C        6.26820552       3.58884571       3.93910600       0.00483899      -0.00465208       0.01643341
C        5.06753183       5.76880474       4.03144141       0.00139974       0.00270615       0.00318170
C        3.79570245       7.80693316       4.02181933      -0.00549988      -0.00177382       0.00004999
C        2.55600176       9.98117011       3.90636794       0.00764641      -0.00423269       0.00469175
C        9.95060315       1.44204448       3.71752940      -0.00866432       0.00296070      -0.00399820
C        8.69894689       3.58165390       3.69438030       0.00587682       0.00480672       0.00119791
C        7.48125135       5.73090088       3.81590539       0.00827818      -0.00649913       0.00751354
C        6.25449755       7.87639846       3.93751996       0.00188036      -0.00704117       0.00012485
C        5.00967304       9.98414415       3.88867551      -0.00869951      -0.00064756      -0.00854677
Ir       2.41477734       5.02718348       4.46519792      -0.00256704      -0.00426048       0.00750545
O        2.05213404       5.24190992       6.33078878      -0.00776715      -0.00113408      -0.01238280
O        0.95283937       4.32863168       6.67747012       0.00530872       0.00078114       0.00953040
H        1.26878720       4.04365654       7.56042956      -0.00996282       0.01319584      -0.00173270
