51
Lattice="12.336457 0.0 0.0 -6.168228499999997 10.683685154694365 0.0 0.0 0.0 15.0" Properties=species:S:1:pos:R:3:initial_magmoms:R:1:forces:R:3 energy=-734439.561827033 free_energy=-734439.561827033 stress="864.5961045016903 -40.467945028948016 -687.5764475366136 -40.467945028948016 548.4844142745447 150.62270428332627 -687.5764475366136 150.62270428332627 1070.212854619116" pbc="T T T"
C        2.73383317      -1.13543140       0.60810316       0.00000000     612.70127894   -1695.86941017   -1309.84508133
C        0.82866932       5.82201902       4.35580938       0.00000000    7583.04173004  -10158.23422704   -4897.75834580
C       -0.61713289       5.20715767       2.87212439       0.00000000    5218.17794115   -1757.55447564    2446.06016599
C       -5.15485935       6.20135466       3.53426436       0.00000000  -18441.28347634   -9451.73738402  -14058.87806099
C       -3.43208013      10.15781501      -3.69447721       0.00000000       0.43776058       0.01013701       7.56661265
C        0.27966154       3.95127830      -1.62580001       0.00000000    -172.93912688     153.57228644    -653.60011536
C        1.04448490       2.20070087       4.29172628       0.00000000 -1091494.10427469 -211480.94223161 2373993.47778534
C        1.71574277       2.97363598       3.60636820       0.00000000  689489.95058659  607073.60385005 1186609.08654815
C       -4.76707242       6.21129850       2.72271152       0.00000000   -7147.69949601    5427.54427059   13574.38602797
C      -11.51741606      12.80691396       2.06354563       0.00000000      16.78250570     -61.24966260     -47.53445223
C        2.64681332       4.43273880       4.14325529       0.00000000  -37786.58940978  -55606.40181870   35465.68164422
C        2.38272047       5.75899999       7.76710534       0.00000000    -434.04085593    -431.06618461    -602.62623116
B        2.31891804       4.89274458       4.91225750       0.00000000    2814.09043884 -128439.55077988  -69278.73890481
C        4.24216045       7.86218074       6.79865582       0.00000000      48.70202389      82.17916134      81.95707878
C        8.35576464      -0.34015288       3.94751399       0.00000000     -17.35127252     214.92592319      50.71864694
C        5.49758740       7.80228169       3.89465905       0.00000000    -957.46858175     -76.19613383     952.99989751
C        9.01365131       7.43020205      -0.32883478       0.00000000       0.44771509     -14.79111696      38.91447238
N        3.12278138       5.25404909       1.15975767       0.00000000    -190.16819130     -41.23830445    2054.78500479
C        3.97246850       8.20625588       2.25823829       0.00000000      19.06218185      -6.54568610      34.58389514
C       14.40515780      -3.04704613       3.70594529       0.00000000    1052.03928257      -4.69068180     780.57668139
C       11.67441901       1.01410761      -1.59100191       0.00000000      -0.03496913       0.25270489       0.15764528
C        8.01332517       0.17541398       7.57236284       0.00000000    -206.77576258    -189.09342438      54.08068662
C        7.10552798       4.24293859       3.87311189       0.00000000    -451.19727140   -3572.58574271     434.47764805
C        6.25732316       5.03524669       5.41035272       0.00000000   -1925.56698779     102.62189286     903.47907975
C        0.17285491       1.52144144       5.19952891       0.00000000  166542.56231522  161301.99155174 -132611.18784309
C       -1.17828242       5.52042131       4.45824314       0.00000000   -1390.90392548     820.43926203     242.51469029
C       -4.50996719       0.90465001      -0.14369200       0.00000000       2.55476897      -1.05156768      -1.91602969
C       -5.55668424       6.42973208       4.03929802       0.00000000    2398.80515949    5352.20584291    7981.05540530
C       -6.72177930       5.00940869       7.93657447       0.00000000      11.02509747     -26.93281949     -58.20096366
C        1.05528015       2.25788727       4.45731652       0.00000000  649801.35065413  736217.15400557 -2118553.53153601
B       -0.44191461       3.20676044       6.29045368       0.00000000 -340222.91742393  312924.47800866  116916.93271701
C       -4.57075167       6.71426145       3.66757686       0.00000000   -2929.69140771   -2350.75486219   -6248.46369409
C       -5.88758470       6.87359640       5.97237612       0.00000000     530.06149854    -784.97825860   -3859.91525649
C        0.72659831       9.37300202       6.34504986       0.00000000       7.37900675     -11.61357550      -7.83279323
C        2.49489050      -0.31789228       7.94222429       0.00000000     114.93778993    -476.65163514     696.13806943
S        1.72445355       3.01646157       3.84932982       0.00000000 -973466.11800693 -577809.63748560 -810944.99357145
C        1.53933069       4.84361896       5.05557173       0.00000000   17345.18295449  -48150.06536724  -51256.04479702
C        1.50602280      14.68743406       4.94299273       0.00000000    -230.28369689     281.45348160    -425.96269169
C        6.22768333      -1.93313154       3.97181848       0.00000000      48.94269499      64.18552881      13.33346575
C        4.21476479       4.21775539       3.79846630       0.00000000  -10605.59285411   -9788.04074169   -3219.52732686
C        8.40262513       7.71711563      -1.13517560       0.00000000      -3.83134780      -2.94994573     -13.75512204
C        4.20564469      10.13080826       4.39011764       0.00000000   -2302.09675409   -1510.61450634     663.14823421
C        6.78662186       6.06481582       0.79861722       0.00000000    1194.91902388      97.78102921    2967.91894031
C       10.08757404      -0.07246257       3.20797177       0.00000000   -2609.76493497   -1667.40519817      45.72182189
C       15.49061184       9.24842097       3.75435169       0.00000000      74.52917164    -389.00963241     171.27166924
C        6.65415419       6.01879219       3.37280234       0.00000000   23758.85948313     811.69480455   -2131.47905418
C        6.34534280       5.58534085       4.55681799       0.00000000    2034.99964453    2711.35032735   -1175.59912706
C        5.27071609      11.63857253       6.11502777       0.00000000  -19382.57585762  -33047.06377570   18604.26858292
Ir      -0.17328324       3.20402560       5.46144526       0.00000000 -1260544.99478778 -700420.68865391 1568097.86327891
O        2.56241650       5.87807512       8.76117882       1.00000000    -356.40794797    -426.12517853    -320.77825300
O       -0.47665420       3.11524334       5.79699861       1.00000000 2202548.85591296  -33786.11360037 -2112204.98714497
