51
Lattice="12.336457 0.0 0.0 -6.168228499999997 10.683685154694365 0.0 0.0 0.0 15.0" Properties=species:S:1:pos:R:3:initial_magmoms:R:1:forces:R:3 energy=-441.23079487536063 free_energy=-441.23079487536063 stress="0.0009019993680952655 0.0017315402950511692 -1.0393608865548396e-05 0.0017315402950511692 0.00206140392950968 -5.561154767043104e-06 -1.0393608865548396e-05 -5.561154767043104e-06 -1.931022076575994e-05" pbc="T T T"
C        0.00243828      -0.01752320       3.87117824       0.00000000       0.00345575       0.00392082      -0.00190357
C       -1.23269204       2.10221459       3.51572153       0.00000000      -0.00677411      -0.00486204      -0.00042507
C       -2.51694419       4.24854192       3.45993478       0.00000000      -0.00275174       0.00819445      -0.00687373
C       -3.73676939       6.38614852       3.70326694       0.00000000       0.00032260      -0.00106824       0.00662764
C       -4.95307802       8.51095472       3.94483960       0.00000000       0.00342820      -0.00951052      -0.01008315
C        2.47482537      -0.01458982       3.90888064       0.00000000      -0.00237783       0.00095331       0.01168970
C        1.26337948       2.05834229       3.45607177       0.00000000       0.00226283       0.00589756      -0.00104738
C       -0.20154895       4.21955997       2.76647482       0.00000000      -0.00561326       0.00129934       0.00333767
C       -1.31346900       6.41894595       3.29141132       0.00000000      -0.00445491      -0.00037003      -0.00588402
C       -2.47101222       8.50655062       3.80856109       0.00000000       0.00390104       0.00312718      -0.00850153
C        4.93556445      -0.04225513       3.92678896       0.00000000      -0.00082632       0.00266071       0.00323344
C        3.74030940       2.11338969       3.91479141       0.00000000       0.00041481      -0.00690251      -0.00275717
S        1.13023576       6.31444672       1.70883267       0.00000000       0.00470098      -0.00699717      -0.00314000
C        0.01363863       8.48701387       3.88198268       0.00000000      -0.00153445      -0.00046547      -0.00664719
C        7.39873876      -0.02134052       3.96823142       0.00000000       0.00075504       0.00142454       0.00456560
C        6.17042187       2.10272541       3.88358088       0.00000000      -0.00368242      -0.00021139      -0.00146198
C        4.93940813       4.19529842       3.96251513       0.00000000      -0.00951732       0.00727278       0.00485894
B        3.67728935       6.32545984       4.58441615       0.00000000       0.00648587      -0.00183659      -0.00278370
C        2.48130666       8.56375882       4.19065985       0.00000000       0.00602596       0.00536293      -0.00296552
C        9.87779529      -0.00444932       3.95381197       0.00000000       0.00238850      -0.00017621       0.00234459
C        8.63481375       2.11333780       3.75428376       0.00000000       0.00161776      -0.00120111       0.00206187
C        7.37991652       4.24514775       3.75759120       0.00000000      -0.00015280      -0.00712219      -0.00020032
C        6.12633097       6.34739989       3.96996444       0.00000000       0.00468055       0.00239148       0.00279742
C        4.92148563       8.52936548       4.13969137       0.00000000      -0.00390022       0.00203929      -0.00209973
C        0.01461615       1.40577941       3.60818866       0.00000000       0.00028533       0.00852480       0.00929306
C       -1.29469048       3.51083324       3.25535487       0.00000000      -0.00780655      -0.00079006      -0.00200145
C       -2.51382731       5.68245967       3.47158014       0.00000000      -0.00472285       0.00558214      -0.00474918
C       -3.71803887       7.80346133       3.81788132       0.00000000       0.00830002      -0.00299818       0.00003208
C       -4.93636811       9.94929849       3.92668432       0.00000000       0.00061982      -0.00753839      -0.00045831
C        2.49265310       1.42035079       3.80480611       0.00000000      -0.00052572       0.00036139       0.00180510
S        1.37338237       3.53289322       2.53921244       0.00000000      -0.00197928      -0.00594521       0.00228508
C       -0.17959880       5.67171403       2.76249008       0.00000000       0.00226375       0.00607172       0.00014463
C       -1.23709051       7.79176277       3.65637895       0.00000000      -0.00041413      -0.00182776      -0.00399183
C       -2.46556976       9.93531614       3.91461135       0.00000000       0.00021313       0.00506512      -0.00666867
C        4.93422980       1.39714246       3.93313720       0.00000000       0.00211507      -0.00386957       0.00046811
O        3.75667058       3.48368758       4.10391325       0.00000000      -0.00755352      -0.00742573      -0.00459614
C        1.25769980       7.84042329       4.06177427       0.00000000       0.00655365      -0.00302888       0.00265306
C        0.00280010       9.92828456       3.94644291       0.00000000      -0.00079387      -0.00026225       0.00353071
C        7.39947129       1.40343418       3.87441131       0.00000000      -0.00042741      -0.00025564      -0.00253493
C        6.15749247       3.51635851       3.84418048       0.00000000      -0.00878789       0.00192115      -0.00682252
C        4.93741641       5.58843570       4.07819725       0.00000000      -0.00188044       0.01107911       0.00218007
C        3.69197912       7.87152108       4.30826087       0.00000000      -0.00144434      -0.00284556       0.00119717
C        2.47094568       9.98396674       4.05806837       0.00000000       0.00342791       0.00292465      -0.00481271
C        9.88364917       1.41194735       3.74553471       0.00000000      -0.00256728      -0.00447275       0.00744638
C        8.61485015       3.53448704       3.65825819       0.00000000       0.00475520      -0.00034047       0.00093463
C        7.37278259       5.66197931       3.79224643       0.00000000       0.00412073      -0.00667777       0.01125557
C        6.15104036       7.79327367       4.03833925       0.00000000      -0.00263452       0.00033249      -0.00105411
C        4.93641414       9.96408279       3.99838925       0.00000000       0.00212391       0.00535363       0.00532518
Ir       1.64055673       5.93204449       3.81319100       0.00000000       0.00198358      -0.00337942      -0.01449008
O        3.22396505       5.72555082       5.88324240       1.00000000      -0.00238813      -0.00232716       0.00461102
O        1.95618841       5.10659196       5.62519477       1.00000000       0.00830932       0.00294764       0.01427528
