52
Lattice="12.336457 0.0 0.0 -6.168228499999997 10.683685154694365 0.0 0.0 0.0 15.0" Properties=species:S:1:pos:R:3:forces:R:3 energy=-448.064327670463 free_energy=-448.064327670463 stress="-0.005046026973004887 -0.003959589915413628 2.8042825482905217e-05 -0.003959589915413628 -0.0022049776085081288 1.6451491855212082e-05 2.8042825482905217e-05 1.6451491855212082e-05 2.8454079668517984e-05" pbc="T T T"
C       -0.03178528      -0.05729046       3.87755160       0.00046605      -0.00246821       0.00603763
C       -1.30322271       2.06280249       4.07007959      -0.00773409      -0.00437211      -0.00219462
C       -2.52732381       4.21710083       3.84032521       0.00441795       0.00149541       0.00695686
C       -3.70465231       6.37135176       3.60210414      -0.00196688      -0.00260029      -0.00197355
C       -4.93615914       8.51626048       3.65157153      -0.00048357       0.00590855       0.00185689
C        2.44610526      -0.06090168       3.87339956       0.00480242      -0.00699078      -0.00219244
C        1.19334667       2.00827265       4.34130051       0.00038932      -0.00833173      -0.00350423
C       -0.21026081       4.24328420       4.52557243       0.00070159       0.00036555       0.00393502
C       -1.29110226       6.36409294       3.95658228       0.00221421       0.00289726       0.00571912
C       -2.47469001       8.50038410       3.75076752      -0.00242499       0.00185429       0.00111646
C        4.90768169      -0.04102782       3.71705622      -0.00063390       0.00397195       0.00560100
C        3.62486835       2.05621589       3.68912628      -0.00174532       0.00218659       0.00636472
B        1.19424611       6.33913874       4.32737306      -0.00329449       0.00912546      -0.00453800
C       -0.01360582       8.49656106       3.87118026      -0.00571946      -0.00435615      -0.00211906
C        7.37283779      -0.05630793       3.69107179      -0.00254298      -0.00274016      -0.00451318
C        6.12112550       2.09858373       3.48962130       0.00147750      -0.00135270       0.00727114
C        4.98945392       4.32213834       3.24821781       0.00246731      -0.00314817       0.00172325
N        3.83380229       6.37174217       3.76072874       0.01556392       0.00214212      -0.00504204
C        2.46259926       8.47212367       3.83075893      -0.00044900       0.00215356      -0.00108826
C        9.83509252      -0.06293980       3.76551618       0.00584569       0.00134785       0.00448799
C        8.59315884       2.08150637       3.67270286      -0.00161994       0.00530883       0.00307195
C        7.39232570       4.23851151       3.44409146      -0.00201635      -0.00239771       0.00611129
C        6.20924772       6.41838025       3.39194817       0.00148886       0.00767459      -0.00923238
C        4.93026290       8.49747442       3.65108019      -0.00288725      -0.00086017       0.00672115
C       -0.04985620       1.35272826       4.12223391      -0.00300638      -0.00176535      -0.00886709
C       -1.34522609       3.48632945       4.16075440       0.00070066      -0.00455532       0.00363740
C       -2.50515705       5.64554566       3.78566753       0.00453278       0.00103261      -0.00765750
C       -3.70444930       7.79557919       3.65622977      -0.00110334       0.00094102      -0.00249782
C       -4.95714302       9.92542659       3.81347178       0.00280944       0.00277431      -0.00411973
C        2.42975015       1.35422789       4.01995120       0.00159320      -0.01039965      -0.00625472
P        1.17101735       3.48760384       5.35638084       0.00144592       0.00257221      -0.00911011
C       -0.14067407       5.62188074       4.28502295       0.00575777       0.00206149       0.00554842
C       -1.25116694       7.78630048       3.85267869      -0.00477103       0.00075222      -0.00040850
C       -2.48469463       9.92582362       3.77182234       0.00375905      -0.00055286       0.00915446
C        4.88435640       1.39761436       3.61132924      -0.00143961       0.00397504       0.00628401
S        3.39314895       3.68474238       3.11089581       0.00671151       0.00735081       0.00547166
C        1.23032348       7.80363380       3.98744678      -0.00233183       0.00533506       0.00443996
C       -0.02557979       9.92323076       3.74219698      -0.00459087      -0.00536937      -0.00264238
C        7.35432974       1.37745279       3.59438924       0.00137913      -0.00000295       0.00328672
C        6.14593131       3.53142731       3.35976036      -0.00035150      -0.00394559       0.00370277
C        4.98406397       5.73033850       3.37534034       0.00849630      -0.00049731      -0.00151050
C        3.71675126       7.74039313       3.74549586      -0.00183056      -0.00479385      -0.01097129
C        2.44437632       9.90104126       3.73928394       0.00448468       0.00165895       0.00120747
C        9.82298826       1.36334403       3.82615362      -0.00591347       0.00116053      -0.00414114
C        8.59824187       3.50899126       3.63107834       0.00348947       0.00462647       0.00220815
C        7.41175656       5.66551904       3.44200792      -0.00496609      -0.00267500      -0.00617643
C        6.17508927       7.82070234       3.54821918      -0.00202628       0.00761497      -0.00124600
C        4.90800917       9.91480683       3.76028967       0.00279753      -0.00278677       0.00146592
Ir       2.63507612       5.03279932       4.79181497      -0.01310725      -0.00749994      -0.00072860
O        3.55772488       5.98373896       6.27154563      -0.00063069      -0.00139509      -0.00463239
O        3.50838380       5.12334032       7.44493296      -0.00044472       0.00784158      -0.00535691
H        3.10606260       5.74073636       8.09278344      -0.00776039      -0.01027208      -0.00066256
