52
Lattice="12.336457 0.0 0.0 -6.168228499999997 10.683685154694365 0.0 0.0 0.0 15.0" Properties=species:S:1:pos:R:3:forces:R:3 energy=-444.04682649113926 free_energy=-444.04682649113926 stress="-0.004248041355108181 0.0027708437136871786 6.159196778741411e-06 0.0027708437136871786 -0.001924361088762267 -7.707578556007931e-06 6.159196778741411e-06 -7.707578556007931e-06 1.984792323079077e-05" pbc="T T T"
C        0.03557150       0.00430036       3.87046542       0.00380065      -0.00454164      -0.00029331
C       -1.20396329       2.12868026       3.57523981      -0.00744390       0.00366780       0.00156084
C       -2.49332284       4.26664104       3.57878235      -0.00558036      -0.00171899      -0.00133619
C       -3.70805385       6.40259782       3.82322267      -0.00157730       0.00241005       0.01663029
C       -4.92219848       8.53576933       3.97146500       0.00205237      -0.00569047       0.00374440
C        2.50094796       0.00969744       3.95945710       0.00455011      -0.00756505       0.00161403
C        1.29917387       2.09016642       3.53855621      -0.00384839      -0.00133985      -0.00533243
C       -0.19269377       4.29114156       2.88420423      -0.00389349      -0.00517681      -0.00216512
C       -1.30855689       6.43534061       3.33759377       0.00246034       0.00239982      -0.00190855
C       -2.45131220       8.53712058       3.81076893      -0.00669559       0.00370387      -0.00466295
C        4.96048345      -0.02074982       3.95865775       0.00470550      -0.00472130       0.00165259
C        3.78345424       2.11171446       4.02274963       0.00019384       0.00003579      -0.00141164
S        1.35883073       6.44916089       2.53289827      -0.00493490      -0.00494990      -0.00757661
C        0.01052296       8.54106103       3.63901973      -0.00058010       0.00033256       0.00190232
C        7.43031797      -0.01357890       3.91305779      -0.00493956       0.01015550      -0.00246104
C        6.21812469       2.10394285       4.06855924       0.00407643       0.00157276       0.00490376
C        5.01321627       4.19395745       4.16826108       0.00241986       0.00132717      -0.00434918
B        3.70778978       6.37697744       4.09870689       0.00937571      -0.00419732       0.00078356
C        2.49141930       8.56235419       3.80434606       0.00206805       0.00812356       0.00540278
C        9.90899673       0.00276842       3.88250626       0.00086624       0.00114401      -0.00256139
C        8.67163688       2.12612144       3.86967488       0.00356125      -0.00865661      -0.00285709
C        7.42838817       4.25564645       3.99328482       0.00548236       0.00209336      -0.00743558
C        6.18050451       6.37349495       4.06338947      -0.00489877       0.00885890      -0.00194569
C        4.95444306       8.54076667       3.98439520       0.00083751      -0.00301401       0.00875916
C        0.04960708       1.43289371       3.65491633      -0.00648247       0.00142849      -0.00748858
C       -1.28702551       3.53396209       3.33195336      -0.00503305       0.00346272       0.00694606
C       -2.50578814       5.69405228       3.57799849      -0.00084961       0.00098099       0.00422117
C       -3.69377577       7.82612693       3.87456116      -0.00126426       0.00016687       0.00803229
C       -4.90755132       9.97295908       3.94582032       0.00540618      -0.00936946       0.00355472
C        2.52699476       1.44338335       3.88593766       0.00030202      -0.00552580      -0.00272203
S        1.40991537       3.59315126       2.66746021      -0.00462477      -0.00042803      -0.00693157
C       -0.20397205       5.68686674       2.89326127       0.01169040      -0.00425644       0.00993888
C       -1.23839623       7.84038190       3.58140411      -0.00545064       0.00365663       0.00467199
C       -2.44303871       9.96506764       3.93754415       0.00381352      -0.00239064      -0.00164600
C        4.97543809       1.40637231       4.05045388       0.00363680      -0.00218554       0.00691924
O        3.83244978       3.47401004       4.23599010      -0.00528877       0.00802586      -0.00282416
C        1.26476230       7.90259640       3.49606119       0.00372659       0.00256258       0.00085157
C        0.02489360       9.95537077       3.86588874       0.00175121      -0.00015078      -0.00264556
C        7.43908248       1.40917679       3.97339870       0.00178928       0.00441154      -0.00430101
C        6.21968165       3.51379735       4.11291418       0.00485089       0.00199543      -0.00671063
C        4.98784121       5.59716819       4.14039832       0.00325390      -0.00043419      -0.00499508
C        3.71092373       7.86198162       3.94251909       0.00167646      -0.00410782      -0.00438687
C        2.49816123       9.98111469       3.88476298      -0.00452384       0.01287187       0.00250242
C        9.91549977       1.42569411       3.78583942       0.00081073      -0.00271229       0.00125532
C        8.65036300       3.54809538       3.83369598       0.00056528      -0.01144536      -0.01106015
C        7.41258764       5.67641520       3.97797090      -0.00571164       0.00717807       0.00497108
C        6.18087959       7.81103507       4.02010580       0.00028634       0.00259131      -0.00052161
C        4.96943963       9.97467985       3.91505641       0.00184858      -0.00341985       0.01071553
Ir       2.08223239       5.24542491       4.20371721      -0.00074127       0.00068783       0.00222035
O        2.39299916       4.67540506       6.00618848       0.00381525       0.00759615       0.00579570
O        1.44197339       5.42943673       6.83111679      -0.00443519      -0.00699318      -0.00807461
H        2.00577371       5.59029435       7.61773916      -0.00687579       0.00154983      -0.00894541
