52
Lattice="12.336457 0.0 0.0 -6.168228499999997 10.683685154694365 0.0 0.0 0.0 15.0" Properties=species:S:1:pos:R:3:forces:R:3 energy=-452.8163363556656 free_energy=-452.8163363556656 stress="-0.008620435960498512 -0.001099162623647656 3.0329773513030785e-05 -0.001099162623647656 0.001073843767805406 3.1599023115198395e-05 3.0329773513030785e-05 3.1599023115198395e-05 -5.069854861198039e-06" pbc="T T T"
C        0.01136405      -0.03611801       3.94349513      -0.00018256       0.00507905       0.00381383
C       -1.24345571       2.06727674       3.97672624      -0.00214279      -0.00412508      -0.00024483
C       -2.46427795       4.21661287       3.90223234       0.00394440      -0.00570415      -0.00387428
C       -3.66828608       6.36905109       3.81761132      -0.00510657       0.00452132       0.00538531
C       -4.91200169       8.51668934       3.86309074       0.00162965       0.00590130      -0.00267947
C        2.47493088      -0.01710053       3.91418857      -0.00522609      -0.00778918       0.00788079
C        1.21378117       2.14150258       3.95305259      -0.00720560       0.00665468      -0.00107396
C       -0.04309334       4.20252898       4.00782332      -0.00577924       0.00979050      -0.00058752
C       -1.23989637       6.36975821       3.97178302       0.00790936      -0.00240668      -0.00184825
C       -2.45640468       8.51392845       3.93457818       0.01152484       0.00279670      -0.00884303
C        4.94969577      -0.04969883       3.79441973      -0.00256575       0.00275272      -0.00345753
C        3.69027972       2.05200486       3.50345097       0.00142970      -0.00594375       0.00315790
N        1.15697340       6.32079067       4.01606739       0.00862399       0.00105070       0.00374717
C        0.01216326       8.46481302       3.93150431      -0.00358596      -0.00010912      -0.00140891
C        7.41129582      -0.07919131       3.81948261      -0.00774192       0.00166398      -0.00834828
C        6.20032039       2.06283196       3.51112623       0.00806747      -0.00381249       0.00203578
C        5.13293349       4.25953624       3.03188928       0.00459277       0.01097221      -0.00010151
B        3.82416888       6.32556667       3.67417852       0.00549325      -0.00266634       0.00659197
C        2.46942810       8.45005825       3.87305117      -0.00803193      -0.00219528       0.00197330
C        9.86956154      -0.07830808       3.89932374       0.00809749       0.00015299       0.00445757
C        8.64230025       2.06445072       3.79373952       0.00229318       0.00034630      -0.00319583
C        7.46396068       4.21821213       3.56634445      -0.00165171      -0.00401855      -0.00427371
C        6.26321418       6.39020583       3.53540987       0.00141588       0.00561553       0.00347855
C        4.96232407       8.50330585       3.80316885       0.00461672      -0.00592761      -0.01506511
C       -0.00199583       1.38963170       3.98250702      -0.00371549       0.00283869       0.00001404
C       -1.25529913       3.48810992       3.98159668       0.00273713      -0.00412371      -0.00130889
C       -2.45471844       5.64485915       3.91053544       0.00078145      -0.00180416      -0.00321212
C       -3.68070666       7.79840517       3.87979912       0.00572325       0.00998575       0.00625534
C       -4.91857243       9.94373132       3.93235422      -0.00510523      -0.00055593       0.01064039
C        2.46791750       1.41141802       3.82217165      -0.00649141      -0.00783904      -0.00375808
N        1.12928683       3.51490695       4.04730592      -0.01240554       0.00713150       0.00407579
C       -0.02600906       5.65342945       3.98765545       0.00860651       0.00467196      -0.00129338
C       -1.22825445       7.79094657       3.96045305       0.00800908      -0.00262338      -0.00225561
C       -2.45689564       9.94248774       3.89399989       0.00125288       0.00079244       0.00032028
C        4.94637053       1.37046123       3.58696975       0.00645550      -0.00225104      -0.01179154
P        3.53417675       3.62483790       2.63815650       0.00658710      -0.00345930      -0.00745843
C        1.23119220       7.69575912       3.93205563      -0.00691158       0.00052188      -0.00604443
C        0.01238982       9.89653711       3.84993936      -0.01007778      -0.00048775      -0.00570412
C        7.41222840       1.34904502       3.70800634       0.00425694      -0.00125167       0.00789433
C        6.26310634       3.48437193       3.33037692       0.00157916      -0.00146930       0.00138022
C        5.10948117       5.64757361       3.27143620       0.00289415       0.00680966       0.00836821
C        3.72231651       7.80299757       3.77883475      -0.00455943      -0.00422232       0.01058607
C        2.46633984       9.87902255       3.87537972      -0.00235842       0.00300799       0.00277149
C        9.86522075       1.34856269       3.90838527      -0.00125246       0.00274463      -0.00324944
C        8.65708530       3.49536254       3.76616942       0.00123858      -0.00284614      -0.00171637
C        7.46968383       5.65279379       3.62468096      -0.00849111      -0.00082451       0.00394118
C        6.20814269       7.80300351       3.74452651       0.00549727       0.00167399      -0.01068202
C        4.94955257       9.92075028       3.89733692       0.00808264      -0.00397878       0.00657094
Ir       2.68253087       4.86738128       4.26267714      -0.01377973       0.01058379       0.00479159
O        2.07076871       4.92044520       6.11181472       0.00610524      -0.01084396       0.01372284
O        2.19762158       6.28073318       6.59432852      -0.00466914      -0.01247586      -0.01152545
H        2.76713537       6.13665234       7.38187280      -0.01040816      -0.00230519       0.00114720
