51
Lattice="12.336457 0.0 0.0 -6.168228499999997 10.683685154694365 0.0 0.0 0.0 15.0" Properties=species:S:1:pos:R:3:initial_magmoms:R:1:forces:R:3 energy=-734669.190464806 free_energy=-734669.190464806 stress="1338.789604986631 416.66932389169824 -114.65980958600655 416.66932389169824 691.2912788579009 90.3844782534772 -114.65980958600655 90.3844782534772 320.3828122327689" pbc="T T T"
C       -4.97064291       4.02818942       6.01866129       0.00000000     147.27720970     -91.80755579    -137.86988702
C       -1.04569525       5.38146545       7.36718332       0.00000000    3848.01443648    3574.73286223    -343.78035706
C       -8.74103285       2.84029848       5.84414985       0.00000000   -3220.36897234  -17348.91515186    6516.91726693
C        0.59523062       7.82521738       6.05246622       0.00000000    5908.94228985   -7770.76758514       2.81093954
C       -0.22964471      -0.18960577      -1.20865088       0.00000000       5.16346652      -2.10007730      -0.30169491
C        4.35968201      -1.94868006       2.99886069       0.00000000     -17.78486860      15.13978426     -15.07954253
C        0.07097018       3.14755131       5.51100853       0.00000000   31993.48246520   -3429.91546690   -5904.55435080
C        1.00872548       4.42196610       6.17965430       0.00000000 2010067.42628053 1520021.33004254 -218647.35633251
C        7.64009427       8.55911081       2.96074401       0.00000000      -1.75127419      -5.78406067      -3.44773846
C       -0.76335136       4.97714275       4.26853176       0.00000000    9684.31204427    -117.78112980    3605.03797636
C        5.59229147      -2.36192441      -0.59957560       0.00000000       0.32855191      -0.33363353       0.64466714
C        1.99310722       3.71813907       4.00201831       0.00000000  -20321.71334901  -25079.52890817   60066.49873758
B        3.67478797       6.12482352       6.37027030       0.00000000  -21265.55323913  -47860.86851610   34853.37366666
C       -2.99338435      12.17223876       4.31063190       0.00000000    -637.71095768    7323.11529338    4897.45324714
C        8.05887456       1.32739310       4.78809948       0.00000000     -84.27428500    -305.33635821    -226.67159828
C       11.60256165      -1.03706748      -6.37317273       0.00000000       8.13469061      -3.50317499     -14.00928001
C        3.17819981       4.70001455       5.42796151       0.00000000 -511600.51036643   35865.80088270  215274.84914878
B        2.41886421       5.59281261       6.58384107       0.00000000 -119644.70240288 -759831.99210476 -146728.54035694
C        1.47970770      11.51495423       5.33552371       0.00000000     -88.43147687     -17.81204849     127.35985075
C       14.85180949      -2.45925283       0.27791073       0.00000000     -19.46540744      -9.48887932     -16.89862321
C        8.39477539       1.95865898       4.95724091       0.00000000     378.58449324     216.26775235    -207.50878424
C        3.37103341       1.24811954       0.66152008       0.00000000      61.32364154    -111.27945615    -145.97064320
C        6.91343008      12.32542738       3.05241691       0.00000000      -6.12547266     -12.54230410    -326.90598168
C        4.43903279      12.92642160      -0.42286161       0.00000000      -2.67093697       3.35779199       1.43925758
C        1.98497861       1.74342088       3.90005966       0.00000000     577.30979939    5487.80955387    4735.79710665
C       -4.14935472       5.46441673       6.84946633       0.00000000    -290.39775758      38.88994704      42.53742269
C        1.05532383       4.85124704       3.92060786       0.00000000   27662.46095474  -13312.95028860   63772.92411785
C       -2.39083858       3.30948660       4.96290323       0.00000000   -1645.85803850    -860.50472303    -269.12372694
C        1.44843497      10.67441025       1.21732156       0.00000000       0.38003230      -1.46115237       2.05088781
C       -0.38071150       2.45831982       5.13442627       0.00000000    6789.44951946    1399.85876898     606.51616555
B       -0.02573922       2.12398588       7.56765594       0.00000000    2798.19120135     810.18747454    -587.90509127
C        3.14302691       6.87722786       1.53122858       0.00000000     158.52053380     113.54058740     -18.97280791
C        3.27564126      11.53222151       6.01968579       0.00000000    -128.76233252    -187.16666285      -7.06849520
C       -4.98863208      10.05213808      13.44788287       0.00000000      -7.01628036       1.36045645       1.21288889
C        1.12601326      -5.08396546      -0.66184654       0.00000000       0.91727144       0.08176292      -0.48580172
S        1.52738260       3.18216695      -0.48042349       0.00000000       0.19304530     -18.79492425    -348.64178913
C       -0.50551536       7.69635637       5.54298355       0.00000000    1888.20919903    -344.65221237     109.14653582
C        0.24645749      12.37987993       4.73011164       0.00000000    -147.23137581     353.57361608      39.97573259
C        5.93913125       4.44580324       4.22301433       0.00000000     294.18531520    -278.42863485     -50.80313147
C        3.13851728       3.90931367       5.65586286       0.00000000 -107749.57489013  169599.71279189   81806.26105703
C        2.19081401       6.27901269       3.19750500       0.00000000    -107.92905135   -8596.57056687   14110.71293419
C        1.78270752       3.21890997       4.37150852       0.00000000  -17731.32404101  -35401.79580983 -137980.75087438
C        1.75750732      12.95064611       5.47051901       0.00000000    -193.38025935      20.47449343     236.41242377
C        9.80969826       3.43451066      -0.13995748       0.00000000       1.94233872      -4.05679041       0.11437430
C        7.56706516       1.97239635       3.70341696       0.00000000      21.49535902     -84.07267991       5.25332253
C        4.17050377       5.25114529       1.30395560       0.00000000     182.52437166     175.07189085    -208.75432556
C        9.42082926       8.57759105       0.95535605       0.00000000      20.65059018       8.37166984      26.15884519
C        2.35525520       5.68759260       0.73717231       0.00000000      14.10752869     122.08246972    -345.57453767
Ir       1.98329304       4.56701269       6.04384584       0.00000000  473609.16138033  147675.43726551 1025680.59176046
O        1.42348418       4.78576255       6.13032945       1.00000000 -954242.43951244 -1298907.97293767   22367.99685741
O        2.28624210       4.80424723       6.32482050       1.00000000 -816967.71146218  327171.98663635 -1026353.07143909
