51
Lattice="12.336457 0.0 0.0 -6.168228499999997 10.683685154694365 0.0 0.0 0.0 15.0" Properties=species:S:1:pos:R:3:initial_magmoms:R:1:forces:R:3 energy=-1017368.8012565776 free_energy=-1017368.8012565776 stress="5495.148688802492 511.1888461413945 1484.7466068475642 511.1888461413945 967.0197739438769 1023.5680184381308 1484.7466068475642 1023.5680184381308 2030.788784662531" pbc="T T T"
C        1.94911492       2.88200622       2.27757092       0.00000000   55719.74190785   46137.06301005   17364.80716598
C        2.08080206       3.85449144       7.54851823       0.00000000     -17.17983048     -48.32888914     -39.73230087
C       -5.68731094       5.69721168      11.36265348       0.00000000     -10.68137525      49.37224530      62.64492802
C      -10.11004950       4.90536858       7.32953386       0.00000000      62.74742036      78.62340467       1.39572757
C       -1.61033382       7.42625739       2.57766054       0.00000000   -2399.32241016    3026.88323122   -1053.82750093
C        2.42876771      -4.45906233       4.28587145       0.00000000     -51.54864418      12.26908269      27.37878673
C        3.24487076       3.35648936       2.96530637       0.00000000   10493.80944599  -18572.54277079   14683.73940406
C        0.61355964       5.50659215       5.69375788       0.00000000    -535.00921677    -986.28515673    2591.13484954
C       -8.22797630       5.54425942       9.35072330       0.00000000       3.73540431      -2.12461696       3.35285309
C       -2.14103495       7.37345160       1.42928624       0.00000000    -870.66315673     142.89027774    -165.01374664
C        1.67053698       4.16186807      11.04498368       0.00000000       6.15141054       4.00043555       2.82320960
C        7.49402416       4.75845502       4.93037385       0.00000000     750.58971513    -232.44609314     757.86045168
N        1.13742192       4.73309867       0.71223987       0.00000000   24460.01858897  -70192.06316985  122391.22209699
C        3.39746430       9.23478448       4.79575650       0.00000000      95.29297787    -248.10046552    -403.92287500
C        5.86074663      -0.41816827       3.33939462       0.00000000    -344.16384402    -795.43899461     740.87691307
C        7.79557196       2.70519476       4.04794509       0.00000000       1.53177064    -104.53260450      47.24688617
C        4.13832797       2.12383708       2.84406396       0.00000000   -1181.80379377   13118.65858609   -2443.83346285
B        5.00562754       5.69949306       5.71792418       0.00000000   -2148.81488604    -581.98404727   -5295.04680688
C        1.91050953       5.98452212       2.15219094       0.00000000  180162.58639739 -4310055.52167057 -1936704.94371959
C       11.61157734      -2.05456000       3.44556896       0.00000000   -4015.33211311   -5556.56132306   -3596.31934390
C        5.63685153       0.78720632       5.24124082       0.00000000     -16.49619115     136.80647870      41.48248412
C        5.90040427       7.62004824       0.58972496       0.00000000  -13984.55802973  -13146.58740150    9675.90018842
C        7.79441326      16.58243197      -5.74567188       0.00000000      -2.49255520       8.52826085       2.99370181
C        6.47804384      11.46273675      -1.35624965       0.00000000       1.57014331     -19.26665776       2.09363213
C       -0.57634139       1.27519528       5.68535985       0.00000000      12.80841458      31.80549284     -12.72970309
C        3.07708891       2.07007689       5.59158872       0.00000000     141.92937424     448.91553146    -746.91305280
C       -6.58785023       1.52343283       6.11545850       0.00000000    -127.11903125     145.71489615    -105.64545543
C       -6.28681819       6.64371124       2.90159831       0.00000000  -33014.46543788  -19048.03562033  -12192.85317395
C       -4.42857296      11.26251504       3.44099337       0.00000000      92.67200371    -236.86308105      72.46076321
C        5.33234318       1.86278380       5.53973605       0.00000000      -4.48685141     182.22496036     -84.30803853
P        6.97662625       0.04280058      -1.53878557       0.00000000       1.83421422       4.09775167      -8.45841389
C       -1.26655149       3.95862787       5.22813250       0.00000000       7.00151342      18.67719252       6.68224784
C       -4.68553844      15.67213990      -5.02642611       0.00000000       3.51232541      -9.18209561      -5.17414693
C      -10.06710185      14.71660469       2.96630691       0.00000000     480.94868481    -141.83115321      54.23790582
C        5.72874971       0.11210703       4.54869470       0.00000000     185.22766529    -133.72918893    -103.81005199
N        0.13858545      -4.20522720      12.80730622       0.00000000     724.54763940     234.69291245    -473.81139247
C        1.71984300      10.54854022       2.25850989       0.00000000    -401.40685148     293.13234800     255.14340803
C        9.08293218       7.51584096       8.12507285       0.00000000       0.33669912       2.42279666       2.71505660
C        5.58973196      -1.96686868       4.74785708       0.00000000    -427.39661561     638.63420072     895.76974668
C        6.27409262      -0.92168556       4.90824767       0.00000000       7.48446023    -250.70880905    -449.60529948
C        7.04510701       1.11973695       2.32987744       0.00000000     337.42531389     134.47482217    -340.26320542
C        1.90053651       6.19787215       2.20664428       0.00000000 2263606.75871512 2646563.24450232  324108.05374243
C       -0.70240421       9.87333936       3.80251185       0.00000000     555.16532488     322.75517183   -1157.42309852
C        6.85474138       0.39866437       2.57730787       0.00000000    -160.63926963    -201.58224390     428.64054432
C        5.40381463       3.45292762      10.25416918       0.00000000      -1.29780966       1.56525699      -1.37624178
C       11.24574044       7.93426745       1.90005135       0.00000000   -3897.68920039     -70.30315710    1243.28870986
C        6.12215059       8.74014861      -1.36084890       0.00000000    -238.42900429    -216.41609982       7.53311536
C        8.57253238      13.72587699       2.57438198       0.00000000  -39118.98477270   55373.19900638  -30850.72380949
Ir       3.11012380       5.47194213       1.57314570       0.00000000 6904396.05180230   60826.30722787 11728809.88482937
O        4.24008504       5.87468229       2.19465765       1.00000000 -6159334.34210597 -3699051.76610204 -2424640.37495631
O        3.34763033       5.49813325       1.75768768       1.00000000 -3180007.15633612 5311965.24232920 -7803405.25355175
