51
Lattice="12.336457 0.0 0.0 -6.168228499999997 10.683685154694365 0.0 0.0 0.0 15.0" Properties=species:S:1:pos:R:3:initial_magmoms:R:1:forces:R:3 energy=-439.6530409657368 free_energy=-439.6530409657368 stress="-0.005537156062312042 -0.00286244845328501 -1.2932487069609049e-05 -0.00286244845328501 -0.003728735419312842 -4.573087744577329e-06 -1.2932487069609049e-05 -4.573087744577329e-06 1.835281614094115e-08" pbc="T T T"
C        0.01388302      -0.01644855       3.84830665       0.00000000       0.00360950       0.00522715      -0.00777263
C       -1.24258012       2.10864931       3.73186293       0.00000000       0.00245067      -0.00207618      -0.00231879
C       -2.47950607       4.26044922       3.93488526       0.00000000       0.00976267       0.00126231       0.00696584
C       -3.69050782       6.41089406       4.08423181       0.00000000      -0.00837792      -0.01273599      -0.00009988
C       -4.90742307       8.55031645       4.05853133       0.00000000       0.00673766       0.00375475      -0.00500873
C        2.48107184      -0.02773676       3.70461099       0.00000000      -0.00623503       0.00020595       0.00089617
C        1.19958630       2.00694400       3.18255421       0.00000000      -0.00545989      -0.00467897       0.00252274
C       -0.10636841       4.27294215       3.42044851       0.00000000      -0.01063675      -0.00607096       0.00731300
C       -1.28639381       6.42417537       3.78628861       0.00000000      -0.00640800       0.00350352      -0.00979117
C       -2.44149343       8.54838720       3.92259375       0.00000000       0.01201188       0.00190642      -0.00233974
C        4.94940131      -0.00944691       3.73003696       0.00000000       0.00576750       0.00352336      -0.00865331
C        3.70431861       2.04761343       3.28407439       0.00000000       0.00791278      -0.01534897       0.00919151
B        1.18523960       6.36436302       3.65579122       0.00000000      -0.00573326      -0.00421866       0.00884145
C        0.03314750       8.53404977       3.79039526       0.00000000       0.00440402       0.00189266       0.00487834
C        7.41567856      -0.01057301       3.83363601       0.00000000      -0.00675977      -0.01015034      -0.01333474
C        6.16405412       2.15181711       3.71093848       0.00000000       0.00202571       0.01764331      -0.00124663
C        5.03894591       4.39631465       3.57896887       0.00000000      -0.00936106      -0.00280271       0.00426804
O        3.81979294       6.47045436       3.75115925       0.00000000       0.00093538      -0.00781769       0.00298500
C        2.52172027       8.52247271       3.83926004       0.00000000      -0.00048559       0.00468590       0.00088062
C        9.88058019      -0.01948699       3.91145660       0.00000000       0.00304107       0.01204207       0.00252684
C        8.63189026       2.12776203       3.91133735       0.00000000      -0.01563626       0.00340611       0.00901286
C        7.40647157       4.28022653       4.00767003       0.00000000       0.00150440      -0.00797596      -0.00298757
C        6.20394730       6.43854470       4.09093509       0.00000000       0.00968382      -0.00259122       0.01089670
C        4.96469790       8.54083710       4.02343235       0.00000000       0.00054869       0.00698645       0.00213462
C       -0.00156001       1.39232388       3.60442074       0.00000000      -0.00082219      -0.00085485      -0.00903670
C       -1.28028877       3.51471113       3.74241734       0.00000000       0.00256253      -0.00882161       0.01094658
C       -2.48586187       5.68894327       3.95673040       0.00000000      -0.00300518       0.00129497      -0.00206657
C       -3.67275029       7.83702828       4.04371397       0.00000000       0.00655888      -0.00597793       0.00510702
C       -4.91458295       9.96402698       3.88662119       0.00000000      -0.00560838       0.00605747      -0.00243767
C        2.46616201       1.36317450       3.35294077       0.00000000       0.00040997      -0.00427924       0.01016813
S        0.97247070       3.48597763       2.19144142       0.00000000      -0.00428337       0.00289537       0.00154439
C       -0.13923526       5.69302747       3.48813613       0.00000000      -0.01116268      -0.00793655       0.01002405
C       -1.21550086       7.84123198       3.84179308       0.00000000       0.00967359       0.00037279      -0.00894475
C       -2.44660785       9.96607291       3.79903293       0.00000000       0.00213232       0.00784732       0.00214894
C        4.93743754       1.42250585       3.57951985       0.00000000       0.01696914       0.00336134      -0.00898218
S        3.69678669       3.69820995       2.74231615       0.00000000       0.00124596      -0.00454012      -0.01608906
C        1.28013908       7.84146710       3.76787201       0.00000000      -0.00192268       0.00391817       0.00847609
C        0.01789699       9.96352662       3.79535225       0.00000000      -0.00316365      -0.00398745       0.00285361
C        7.39179054       1.42576163       3.83615268       0.00000000      -0.01710641      -0.00315628       0.00593155
C        6.17759173       3.58938659       3.78190690       0.00000000      -0.00263720       0.01091884       0.00125849
C        5.02445815       5.77637784       3.80447998       0.00000000       0.01126092      -0.00144238      -0.00730766
C        3.77244318       7.83221468       3.88170312       0.00000000       0.00059512       0.00186838      -0.00954411
C        2.49009890       9.94766055       3.88057405       0.00000000       0.00277139       0.00515350      -0.00736889
C        9.87042718       1.40859230       3.87655958       0.00000000      -0.00447604       0.00913786       0.00575606
C        8.62987151       3.54895464       3.98622176       0.00000000       0.00583477       0.00390131      -0.00273608
C        7.41876356       5.69808699       4.10956575       0.00000000      -0.00100385      -0.01646574      -0.00904737
C        6.20353373       7.85350769       4.11056923       0.00000000       0.00629212       0.00471048       0.00402822
C        4.94757740       9.96333700       3.95884224       0.00000000       0.00718411       0.01141197      -0.01027894
Ir       1.89097611       4.53731117       3.86227439       0.00000000      -0.01741588      -0.00190574       0.00475559
O        2.22168242       5.72212923       5.68716886       1.00000000       0.00734009       0.00758384       0.01047034
O        3.11722977       4.77807505       5.71073273       1.00000000      -0.00352565      -0.01063807      -0.00938961
