52
Lattice="12.336457 0.0 0.0 -6.168228499999997 10.683685154694365 0.0 0.0 0.0 15.0" Properties=species:S:1:pos:R:3:forces:R:3 energy=-444.11085240222116 free_energy=-444.11085240222116 stress="-0.00460167456225164 -0.004715976153408397 -1.3132495452009696e-05 -0.004715976153408397 -0.0036703232353360285 3.1898176717612393e-06 -1.3132495452009696e-05 3.1898176717612393e-06 -3.392742077012748e-05" pbc="T T T"
C        0.04119693       0.01855936       3.80023329       0.00059528       0.00452909       0.00264085
C       -1.22762094       2.13009923       3.66182139      -0.00651324      -0.00277074       0.00189680
C       -2.44810672       4.29046681       3.67317845       0.00161907      -0.00314545      -0.00026355
C       -3.64232695       6.43506211       3.79962691       0.00233240      -0.00029400      -0.00354364
C       -4.87405592       8.57426693       3.89608060       0.00634860       0.00394427      -0.00439692
C        2.50089707       0.03476632       3.66490131       0.00321375       0.00425552       0.00104703
C        1.20729033       2.12858634       3.48665288      -0.00321103      -0.00563117       0.00626786
C       -0.04417947       4.19827594       3.47348097      -0.01517375      -0.00311350       0.00215788
C       -1.17033437       6.39648486       3.61975242      -0.00470945      -0.00456059      -0.00309317
C       -2.39972271       8.55535298       3.72240194       0.00595015       0.00419694       0.00239903
C        4.96803069       0.02482947       3.65599423      -0.00950042      -0.00022507       0.00068147
C        3.71813150       2.12735663       3.34217671       0.00568049       0.00402093      -0.00789071
S        1.56702855       6.24616779       3.49195976       0.00464475      -0.00124239      -0.01034218
C        0.05969058       8.55785738       3.74671014      -0.00555146       0.00412326      -0.00799005
C        7.42501890       0.03813885       3.80147065       0.00594192      -0.00413577      -0.00512900
C        6.18313482       2.18068721       3.59825381       0.00041932      -0.00504784       0.00558983
C        5.04323979       4.37733432       3.60148034      -0.00820087       0.00888612      -0.00220667
B        3.81674417       6.47610941       4.56095900       0.00190677      -0.00699415       0.00090491
C        2.52430037       8.61870037       4.05581815       0.00218301      -0.00796071       0.00528156
C        9.90418954       0.03482389       3.89707831       0.00693095       0.00806281      -0.00279239
C        8.64972829       2.16250469       3.74242630       0.00083273       0.00692631      -0.00345236
C        7.44956950       4.30903981       3.77747705       0.00726688      -0.00517031       0.00261409
C        6.24482683       6.44658793       4.01385512      -0.00522726      -0.00375783      -0.00653781
C        4.99578566       8.59510301       4.09342184      -0.00801878      -0.00655125      -0.00200642
C        0.01828460       1.43541904       3.64452202      -0.00467968       0.00065639      -0.00186342
C       -1.24531167       3.53940044       3.57916011      -0.00731773      -0.00568960       0.00971014
C       -2.42025375       5.70583770       3.68919740      -0.00054588      -0.00562296      -0.00272461
C       -3.63882015       7.85734136       3.80680147       0.01148334       0.00352374       0.01428054
C       -4.88796772      10.00042272       3.79927249       0.00486489       0.00746062      -0.00293463
C        2.46845487       1.45801853       3.49322442       0.00435758       0.00429297       0.00994168
O        1.14518835       3.49753973       3.45329663      -0.00755757       0.00355293       0.00210122
C       -0.00855947       5.59872250       3.51124587      -0.00493928      -0.00116486      -0.00117597
C       -1.16317804       7.83128198       3.68031229      -0.00462386       0.00099386      -0.00080280
C       -2.42425985       9.99404616       3.68300796      -0.00255319      -0.00037031      -0.00811123
C        4.95096217       1.46362791       3.53551893      -0.00264922      -0.00189088       0.00125135
S        3.70649164       3.75300186       2.73751766       0.00722095       0.00163549      -0.00778159
C        1.31756270       7.91357466       3.84134928       0.00377305      -0.00437170       0.00052803
C        0.03764256       9.99912371       3.74819481      -0.00551068       0.00369979      -0.00293529
C        7.40987376       1.46408903       3.72075179       0.00461414       0.00070597      -0.00127489
C        6.21927335       3.59709740       3.66164084      -0.00248364      -0.00041826      -0.00686164
C        5.03316211       5.71539857       4.04429367       0.00022470      -0.00047499      -0.00061962
C        3.75611632       7.93341640       4.22501647      -0.00285096       0.00331652       0.01523598
C        2.49666462      10.03422992       3.94054693       0.00848488      -0.00436805       0.00643950
C        9.88892751       1.44588381       3.77089360      -0.00336841       0.00651008      -0.00157408
C        8.66136969       3.58266349       3.73390513       0.00508993       0.00268728       0.00425700
C        7.46747252       5.72940322       3.86873395       0.00118482      -0.00144423      -0.00725437
C        6.24014733       7.87569495       4.04410986      -0.00407909      -0.00526243      -0.00230684
C        4.97902181      10.01192255       3.94015742       0.00169604      -0.00176726      -0.00360137
Ir       2.65160070       5.41553657       5.59017371       0.01060638       0.01472969      -0.00024786
O        1.57306035       3.94814864       5.98962640      -0.00244464      -0.00998361       0.00457611
O        1.90360867       4.81678023       7.24509381       0.00109511       0.00414629       0.00712172
H        2.51786463       4.25122929       7.75764147       0.00114820      -0.00342696       0.00479048
