53
Lattice="12.336457 0.0 0.0 -6.168228499999997 10.683685154694365 0.0 0.0 0.0 15.0" Properties=species:S:1:pos:R:3:forces:R:3 energy=-464.9808716029672 free_energy=-464.9808716029672 stress="-0.0014511546558754482 0.004770062319521668 -2.90045328486386e-06 0.004770062319521668 -0.004654933712447156 -8.889873536431509e-06 -2.90045328486386e-06 -8.889873536431509e-06 -5.241012134966055e-06" pbc="T T T"
C       -0.05116096      -0.01195953       3.79026554       0.00572086      -0.00106625       0.00846041
C       -1.24341188       2.15560029       3.82134647       0.00209214       0.00283349       0.00576079
C       -2.46708016       4.28420709       3.80545994      -0.00187778       0.00169905       0.00135123
C       -3.73041182       6.40900757       3.76371658      -0.00709509       0.00574457      -0.00146963
C       -5.00884035       8.51997348       3.73756022       0.00271680      -0.00340519       0.01236046
C        2.40981553      -0.02085602       3.86805843       0.00230653      -0.00902657      -0.00059893
C        1.21157416       2.12961608       3.73164070      -0.00381662       0.00084787      -0.00798077
C        0.00944060       4.30380819       3.67097486      -0.00452335       0.00020490       0.00567832
C       -1.26459034       6.42964223       3.82197824      -0.00576222       0.00067834      -0.00158593
C       -2.53244959       8.54630121       3.92100116       0.00115324       0.00178426       0.00056428
C        4.88283635      -0.00040372       4.03360301       0.00036033      -0.00226079       0.00001348
C        3.67353132       2.09731588       3.79734307       0.00132801      -0.01022584       0.00143309
C        2.49628070       4.20429950       3.44923711       0.00080957       0.00748489       0.00031955
C        1.16852019       6.52022504       3.61371633       0.01128679      -0.00728349       0.00435784
C       -0.07805095       8.57729323       4.03429877      -0.00360261      -0.00043498      -0.00095490
C        7.36093855       0.02426032       4.09333556      -0.00475940       0.00163431      -0.00130373
C        6.14708890       2.12483783       3.94726866       0.00289413      -0.00053341      -0.00532160
C        4.96243456       4.18059658       3.46608080      -0.00638363       0.00916216       0.00224133
O        4.46770691       5.81707187       1.77792096      -0.01373348      -0.00473042      -0.00663037
C        2.39135948       8.61187527       3.91263264      -0.00075413      -0.00356147       0.00077324
C        9.84295449       0.02064242       3.93666449      -0.00190347       0.00856582       0.00372124
C        8.62270647       2.14895360       3.95204432       0.00221253       0.00109815       0.01096452
C        7.40028625       4.26448534       3.73881279       0.00049784      -0.00807183      -0.00096184
C        6.16462452       6.38846525       3.44227624       0.00393185      -0.00107187       0.00773640
C        4.84436449       8.51727447       3.66045843       0.00521254       0.00196885       0.00029535
C       -0.02407159       1.42521752       3.78598662      -0.00062039      -0.00073849       0.00220467
C       -1.22720117       3.58313649       3.77362714      -0.00458236      -0.00149372      -0.00197236
C       -2.48548164       5.70733570       3.80113662      -0.00966565       0.00566209       0.00136760
C       -3.76195733       7.82720007       3.80217304      -0.00013200       0.00596557      -0.00077995
C       -4.99592364       9.94767195       3.79859375       0.00469315      -0.00492680      -0.00910783
C        2.42725537       1.40435636       3.80721493      -0.00390962      -0.00734360      -0.00327130
C        1.23887112       3.57542196       3.61723161       0.00001404       0.00630440       0.00572936
C       -0.01416091       5.72864636       3.69748820       0.00029183      -0.00015453       0.00384937
C       -1.29560663       7.84563981       3.93897449      -0.00342213      -0.00023975       0.00313387
C       -2.52465407       9.96606211       3.95679356       0.00345515      -0.00334159       0.00521011
C        4.90298627       1.41461139       3.95062956       0.00743778      -0.00731170      -0.00973795
C        3.71851563       3.50137510       3.55357380      -0.00336999      -0.00420899       0.00460132
C        1.16090820       7.91091728       3.90019246      -0.00259137      -0.00505251       0.01066544
C       -0.05249653       9.99265934       4.09041346      -0.00318639       0.00040821       0.00095416
C        7.37948400       1.43771935       4.03288211       0.00155417       0.00158319      -0.00272575
C        6.17566726       3.53075437       3.74638108      -0.00597937       0.00006675      -0.01314927
C        5.06956744       5.53376055       2.92503741       0.00419020       0.01356260      -0.00155806
C        3.56693562       7.90393622       3.63581960       0.00402382       0.00022443      -0.01346674
C        2.43046668      10.02518272       4.04219474      -0.00283184      -0.00012180       0.01050670
C        9.85795809       1.44685659       3.92341307       0.00213778       0.00717844      -0.00122324
C        8.63249246       3.56881460       3.85031994       0.00511151      -0.00515487      -0.00635481
C        7.38071320       5.68901862       3.64155693       0.00264951      -0.00842294       0.00180425
C        6.09472504       7.79137029       3.58891538       0.00747528      -0.00045821      -0.00459574
C        4.88122017       9.96180249       3.80199600       0.00159853       0.00581114      -0.00353696
Ir       2.90030969       6.09370116       3.03388513       0.01030165       0.00080874      -0.01462364
O        2.83233306       6.10202176       6.61772602      -0.00476677       0.01134229       0.00152521
O        2.95355315       6.09080669       7.97214657       0.00316140      -0.00167825      -0.00665865
H        3.91595829       6.10133638       8.17351862      -0.00134927      -0.00030468       0.00198639
