51
Lattice="12.336457 0.0 0.0 -6.168228499999997 10.683685154694365 0.0 0.0 0.0 15.0" Properties=species:S:1:pos:R:3:initial_magmoms:R:1:forces:R:3 energy=-803053.7630030527 free_energy=-803053.7630030527 stress="3276.5275044939367 317.10496515575204 -3888.912902525461 317.10496515575204 3562.8265661407095 -4211.184544452976 -3888.912902525461 -4211.184544452976 11038.131269532741" pbc="T T T"
C        2.30111758      -2.09309554       0.51965953       0.00000000     -12.80155364      -4.43436105      18.46245860
C        0.38013826       3.77523428       6.48350073       0.00000000   -7931.24913407   -7059.45359189  -50900.94845914
C       -1.63075533       5.03299002       5.06287554       0.00000000    -774.24132304    -917.32589234    -293.33702153
C       -1.40976763       7.37563077       4.75419224       0.00000000   -2008.80832083    1670.13562757   -1505.89965985
C       -3.56050956      10.78263114       2.26406381       0.00000000       8.53236977      -6.94933044      22.93591875
C        5.82200397       3.39450479       2.96960669       0.00000000    -458.19101880     324.33354609    1053.45138276
C        4.13874268       3.36126973       5.96432666       0.00000000    3545.08161795   13565.10343947   13143.83968508
C       -8.13006472       1.46248096      -1.99268146       0.00000000      -2.29274247       4.02930570      -0.20674095
C        1.09389510       6.56211901       6.48840367       0.00000000 1918492.76628320 -2994107.80043761 2034618.69634326
C       -1.95403896      10.17968464       3.61011741       0.00000000    -259.64289298     238.88489784      72.93406333
C        0.76368736      -0.60801175       4.21920280       0.00000000      -3.82973647     -44.60786859     -32.99306003
C       -2.75041208       6.28931154       0.33458009       0.00000000      -0.73249354       4.65879816       8.95444922
C        2.69377865       6.35354054       3.38251758       0.00000000  -11936.03942378   24006.04898301  -13934.73476015
C        5.83219511       7.60438185       3.08796042       0.00000000   -3604.88487971   -2625.54740480    2538.49288235
C       11.99470399      -3.39945964       3.44916612       0.00000000   -1641.53809266    -598.79816761     255.76005632
C        6.29121920      -2.19353414       4.30851380       0.00000000   -1118.57717204    2245.86978748    -108.44192403
C        2.34293461       5.63703893       5.97516663       0.00000000 -4452892.11522437 -1879514.67419214 11281097.13729646
O        3.24939999      -0.47047547      -0.40958709       0.00000000       0.10662020       1.00589231       1.95477241
C       -4.10756219       7.43987002       1.36169168       0.00000000     -87.71805542      -2.97884689      81.50898881
C       10.27394448       2.56434413       3.05138198       0.00000000      29.34874365      72.86788234     100.90281439
C        7.17952782      -2.32166682       5.96587059       0.00000000     152.86322682   -4386.50258277    4198.72656036
C        9.89131716       8.73345630      -5.73400253       0.00000000    -336.39108305     212.00083085     163.87211472
C        5.34192217      -0.94336183       5.87318100       0.00000000    -974.56316522    1525.21790930    -617.76306913
C        3.87887743       5.27849966       3.91981793       0.00000000   48922.54208493   17187.12436493   75003.23641372
C      -13.93610307       2.05717276      -0.28456897       0.00000000      -5.53170346       3.02125375      -2.91600022
C       10.97598543      -0.37977748      -2.17456829       0.00000000       2.77626076       3.50949357       6.18198326
C       -0.04410636       3.47556227       5.48266013       0.00000000   14179.45400347   17706.61905502   16727.40961876
C       -5.63802311       7.82913604       4.15682963       0.00000000     -21.81163893    -322.06179262     465.98909946
C       -1.83967848       9.43634717       4.73307043       0.00000000     105.13344106    -728.38097566    -367.16663753
C        3.76923899       5.38874007       4.38852720       0.00000000  -96701.32135659   -6337.94478786  -80586.87941507
O        2.48145076       6.87985680       2.97498379       0.00000000   15740.69873076  -28449.09019972   19327.46189830
C        1.70431666       7.08882981       6.88387936       0.00000000 -248061.19311774 -1092896.46378597  816830.26935140
C       -2.81977025      13.04848996      -0.08039892       0.00000000      -2.32674066     -24.19548641     -41.10230030
C       -2.85523182       6.16269607       3.46142905       0.00000000      39.78814647    -284.68288880      -6.77599215
C        4.91359450       7.33013750      -1.49832846       0.00000000      -6.70088332      -3.36573348      22.11973787
C        3.30129341       8.06581072      11.02406752       0.00000000     584.14130685     981.09806154    1268.47150745
C        4.28182669       4.01407254       9.13630262       0.00000000  -11987.04543071    5703.13716209   -6119.52670156
C        1.44720621       9.35410958       4.74208834       0.00000000   -2677.72204489     481.47794091    1239.44511358
C        6.40664901       4.98249637      15.58898254       0.00000000      64.29455702       6.65155147     -71.73813243
C        9.08473905       5.71348137       3.02249109       0.00000000     157.76407236     287.11882860     199.04967464
C        4.95249338       5.47906132       6.85275612       0.00000000  -27580.79112269   -4785.73335594   -6209.78149893
C        4.58739118       5.55057998       6.16654157       0.00000000   28599.38927633   -3028.78580802   35919.32253738
C        1.29167158       9.07249122       2.11436514       0.00000000     181.42098111       9.96316766    -293.91998867
C        8.26565665       0.96623127      -0.07918545       0.00000000       0.77372524      -7.07014852       8.08101288
C        9.58867748       3.32655223      -1.08136054       0.00000000      10.34443553      -1.31139029      -9.12625079
C        4.48767646       3.80084687       6.38301239       0.00000000  -11979.28852641   -8317.14972842    1550.68598573
C        4.34875113      12.49592795       2.66450048       0.00000000      37.28163196     -63.90537249      -3.82385979
C        3.70243244       7.76959839       1.85018279       0.00000000    -105.34186078   -1168.05280014     916.73888751
Ir       1.84217071       5.43472965       7.26363688       0.00000000 -4595420.64780735 -4458068.67491667 2574923.22626843
O       -0.11133739       4.61907116       9.01144642       1.00000000  862467.20659036  273006.64665505 -550295.44494320
O        1.69156476       5.31796267       7.53036431       1.00000000 6585271.63043983 10134509.41741241 -16170382.79246177
