51
Lattice="12.336457 0.0 0.0 -6.168228499999997 10.683685154694365 0.0 0.0 0.0 15.0" Properties=species:S:1:pos:R:3:initial_magmoms:R:1:forces:R:3 energy=-916474.1757394014 free_energy=-916474.1757394014 stress="1675.9080060701103 -724.3841863372796 578.5282710272975 -724.3841863372796 392.7469034383479 -47.34232059100334 578.5282710272975 -47.34232059100334 1297.881329960776" pbc="T T T"
C       -0.93213613      -3.28703906       2.66932370       0.00000000     120.53994288      48.66418480    -240.66351401
C       -7.16170350       0.89461025       1.05115829       0.00000000     -13.04372859     -19.25324174      20.48051174
C       -0.46920024       1.02320120      -6.32977813       0.00000000     374.33233773     579.51052604      96.07185708
C       -2.74096011       4.12330467       3.46410393       0.00000000      -5.52122861      -4.71008967       3.28385325
C       -2.76130661       4.80203995       6.57698538       0.00000000       2.28839172      27.92641311       1.17468663
C        4.39161023       0.60119400       3.64539027       0.00000000    -460.94430208     822.20367527    1927.43987737
C        2.28332697       7.57834403       0.55362486       0.00000000       1.35647807       3.32072245       0.46827730
C       -2.21336466       7.54507317      -1.99667573       0.00000000      -4.56313955       4.83050662      -1.62622533
C       -7.84844099       9.82607381      -1.82758398       0.00000000      92.84039954     123.76063093     251.02019544
C       -2.83515448       8.91662549       2.81678636       0.00000000      39.67003913     -98.52140448    -128.62666386
C        4.65047330       1.29655293       6.27858135       0.00000000  451718.25085774 -560460.83866197 -512279.33799565
C       -6.27943504       5.30815674      -6.01898881       0.00000000   -3219.61798363    2209.78924359    -689.56332651
C        2.24678121       7.24587469       8.94847318       0.00000000  508924.48722691  -67317.16234117 -697990.97987013
C       -3.07241212       3.39306593       6.30322831       0.00000000      98.52473013      16.97207432     -16.40761267
C       11.24892078      -5.70549931      -0.08984136       0.00000000      -0.00471263       0.13301453       0.25462365
C        8.53421369      -0.66033594       2.01597884       0.00000000      -0.43753724      -0.07793344      -2.92770922
C        4.51044330       1.46857428       6.43911321       0.00000000 -451138.56303294  557749.63574020  509571.84652332
O        2.92740680       6.77657141       7.38314918       0.00000000 -442711.95795861 1300004.97775469 1646005.85633015
C        8.88689870      -0.70099991       0.34288015       0.00000000      -0.96207507      -2.67192211       5.70956319
C       11.65045045      -0.02920848       2.61297549       0.00000000       9.27435167      -0.81819271     -15.19532649
C        6.67827453       1.75997129       4.32485448       0.00000000    -645.87413507     165.20363378     587.93663285
C        7.27473405       2.36106558       3.81854980       0.00000000     -10.51047810      56.32188584      42.14997820
C       16.06774992      11.54024387      -2.13660055       0.00000000       2.65461295      -5.07151522       1.44584453
C        1.24198648       7.28896343       5.46449786       0.00000000  -26892.83625416    3986.59036592  -43009.32304094
C       -2.64969758      -2.16530633       4.25813581       0.00000000    -321.45759269   -1046.13627492    2181.14330466
C       -1.07828591       6.75532247       2.54996705       0.00000000      27.93649785      29.90472458      18.78759011
C       -2.43135066       6.23191634       3.25845731       0.00000000     -11.04363524      10.80615663      -5.86884539
C       -1.83659928       9.08409448      12.39988126       0.00000000     -30.26001669       6.78086380      25.69046489
C       -5.98123066      16.54331195       4.38357022       0.00000000     240.97903660      13.08273687     123.44477930
C       -2.91817015       8.47983846       7.04571742       0.00000000    -291.40575724     -10.47867000    -250.68381700
N        2.51387334      -4.19074213      -2.80354940       0.00000000       2.61433250       1.56566964       1.38671381
C       -8.12454959       8.25585651      -0.74993340       0.00000000       3.83864767       6.32341236      14.40091591
C        1.73211161      10.07081807       8.15425695       0.00000000   -3023.00310286   19739.59028960    2291.53341487
C       -3.07748756       9.53906097       5.60500957       0.00000000     734.65216226    1026.35601540     318.99740380
C       15.01512682      -0.61485223       4.26261557       0.00000000       3.47711928    -166.08841354     -26.07681041
N        2.37809178       4.20895644       6.90043981       0.00000000   -4346.83699180  -14695.83567859   -1084.40932319
C        2.72480725      -2.17620286      -1.44341592       0.00000000       5.82238059      -1.54818057      -3.28598448
C        4.80094382       7.63858167       6.00764320       0.00000000    4072.85669787    3645.26434003    5079.82596794
C       12.21668937      -1.15983054       5.63360517       0.00000000     169.44855128     -49.35502057     -19.48413589
C       10.38560133       6.70341933       1.91221293       0.00000000     -10.16756949      18.93978617     -14.77041627
C        2.43958648       7.36865829       7.78163595       0.00000000 6570509.15247837 -3105026.30777833 3502807.63891286
C        4.41623343       9.94855813       3.84225691       0.00000000     341.93366196     445.41027457    -755.26097910
C        1.74660511      14.32575851      10.96853836       0.00000000      -7.15130737      -2.16583124       4.75181928
C        5.75672490      -1.54004784       2.71622210       0.00000000      20.54494739     -83.92389468     -83.92276379
C       11.58974857       6.38234704       3.83385573       0.00000000    -405.89220211    -156.26397422    -483.50016415
C        2.99826585      13.71525490       7.85973459       0.00000000      89.08235394      20.08058783      31.37063324
C        1.34245939       4.65008545       3.69510494       0.00000000    -238.25378499    -187.25789483    -500.67346405
C        3.03464770      14.01864837       1.76385240       0.00000000       8.27140750       3.77306850      -1.81944432
Ir       2.91038381       7.14712923       8.05962261       0.00000000 -6284864.71444837 1483934.98770514 -4219114.03606915
O        6.46458458       3.60126464      11.75852450       1.00000000      14.74069787      -4.10537820      -2.68227229
O        2.88433548       7.67161462       8.25572973       1.00000000 -318974.54736626  374635.88628901 -194692.98490104
