52
Lattice="12.336457 0.0 0.0 -6.168228499999997 10.683685154694365 0.0 0.0 0.0 15.0" Properties=species:S:1:pos:R:3:forces:R:3 energy=-446.8874357855227 free_energy=-446.8874357855227 stress="0.0024839478733722845 -0.002883602536117815 -2.5080402088668673e-05 -0.002883602536117815 -0.009661719851264756 3.862610210497546e-05 -2.5080402088668673e-05 3.862610210497546e-05 7.98922290808672e-06" pbc="T T T"
C        0.05039159      -0.01354737       3.85153893      -0.00450320       0.00716853       0.00268776
C       -1.19127511       2.13978994       3.82863076       0.00108908      -0.00631100      -0.00279497
C       -2.43667510       4.28195387       3.59707255      -0.00502642      -0.00052679       0.00347665
C       -3.65632647       6.40401952       3.61492115       0.00544686       0.00322270       0.00100536
C       -4.88022079       8.52473606       3.74295322      -0.00214648       0.00701952      -0.00822877
C        2.52553492      -0.06989996       3.87330556      -0.00270712       0.00032088      -0.00951699
C        1.30042585       2.03381457       4.13959487       0.00068052       0.00722529      -0.00740856
C       -0.00512037       4.28584756       3.78395858      -0.00510385       0.01259056       0.00514624
C       -1.15111781       6.40736164       3.62081783      -0.00081589       0.00044909       0.00091322
C       -2.39260368       8.51504115       3.74532143      -0.00290005      -0.00248030       0.00221346
C        4.98834034      -0.01831372       3.73742066       0.00504979      -0.00094779       0.01450747
C        3.70794291       2.04172107       3.59861926      -0.00861390       0.00302039      -0.00419652
P        1.80628645       6.18140768       4.17748157      -0.00158257       0.00749162       0.00476836
C        0.08430675       8.54544086       3.85583225      -0.00180048      -0.00367844       0.00034004
C        7.43597599       0.04479427       3.72412826       0.00754674       0.00536387       0.01269922
C        6.17619930       2.16541076       3.54526341      -0.00170676      -0.00886673       0.01395488
C        4.95890996       4.33737440       3.41235346       0.00447041      -0.00754788       0.00580219
C        3.64092547       6.49084764       3.70283038      -0.01198478      -0.00384116       0.00716804
C        2.53285631       8.64353606       3.82467018       0.00310238       0.00099407       0.00309102
C        9.92154494       0.04253686       3.73938241      -0.00057317      -0.00609512       0.00325360
C        8.66440995       2.16732056       3.64136549       0.00449810       0.00197317      -0.00620233
C        7.41388875       4.29548503       3.55551348      -0.00664030      -0.00189927      -0.00353952
C        6.17320158       6.42596973       3.63350416       0.00550532      -0.00195025      -0.00280940
C        4.99378057       8.57448007       3.70167644       0.00470686       0.00269311       0.00602955
C        0.04521164       1.40648248       3.96339832       0.00135384       0.00343858      -0.00319605
C       -1.21354314       3.55265676       3.71626980      -0.00219123       0.00062989       0.01002046
C       -2.41150513       5.70077924       3.58154718       0.00277641      -0.00118731       0.00221994
C       -3.64073306       7.81657999       3.69861413      -0.00399365       0.00276230       0.00026563
C       -4.88776692       9.93417452       3.84303585      -0.00639602       0.00627664       0.00249410
C        2.52059100       1.33595464       3.92276451      -0.00437384       0.00071402      -0.00050752
P        1.38937650       3.69613517       4.66040810      -0.00804787      -0.01137911      -0.00780589
C        0.07537757       5.67166132       3.63188525       0.00025150       0.01432737       0.00566874
C       -1.15276215       7.82363342       3.74445238      -0.00413513      -0.00274302      -0.00586613
C       -2.40037530       9.93170448       3.79157869       0.00196401      -0.00200710       0.00535059
C        4.96546150       1.41706208       3.61700767      -0.00805288      -0.00073098       0.00173319
S        3.46733409       3.61708487       2.91976885       0.00367496       0.00972876      -0.00049753
C        1.35180830       7.91570312       3.98860794      -0.00068414       0.00155170      -0.00471639
C        0.05950779       9.97735039       3.77518503       0.00827678      -0.00005641       0.00044498
C        7.41773115       1.46764836       3.63033646       0.00632244       0.00149225      -0.00815517
C        6.16277384       3.59016526       3.49876686       0.00270061      -0.01359499       0.00057075
C        4.89523569       5.74772119       3.60191075      -0.00002253      -0.00617616      -0.00603380
C        3.75256171       7.89220879       3.72688977       0.00230872      -0.00062268      -0.00575262
C        2.51375596      10.04600943       3.75203360       0.00155986      -0.00228354      -0.00393114
C        9.91156602       1.45593395       3.73307143       0.00195001      -0.00561654      -0.00627597
C        8.65665090       3.58338417       3.58854145      -0.00634548       0.00190845      -0.00606339
C        7.41682849       5.71158797       3.59487313       0.00469031       0.00028373      -0.01089291
C        6.21168594       7.83998988       3.69033835       0.00397628       0.00164042      -0.00826068
C        4.98412657       9.99230566       3.75551138      -0.00077123       0.00304165       0.00788982
Ir       1.95433448       5.26176948       6.18550711       0.00713482       0.00094744       0.00026084
O        2.32492624       5.95828870       7.72660447      -0.00426794      -0.00154377      -0.00408284
O        1.92916429       4.20939126       7.88184976       0.00578777      -0.01121616       0.00659820
H        2.83984923       3.97931182       8.17070426       0.00856252      -0.00497348      -0.00383922
