51
Lattice="12.336457 0.0 0.0 -6.168228499999997 10.683685154694365 0.0 0.0 0.0 15.0" Properties=species:S:1:pos:R:3:initial_magmoms:R:1:forces:R:3 energy=-1934117.4279564894 free_energy=-1934117.4279564894 stress="1310.0731077012974 9.504238658321631 -284.9171408986554 9.504238658321631 6760.6148529163565 -4965.595730930549 -284.9171408986554 -4965.595730930549 5841.032118472876" pbc="T T T"
C        1.38684718       0.12479049       2.04495469       0.00000000     214.67657655   -2043.86119981   -1318.26545995
C       -5.02766298       7.72089840       5.84159528       0.00000000     641.15876847     250.31821259      60.19867084
C       -3.47378639       6.71712728       6.40041948       0.00000000   -2472.50205349    -601.29350120     588.09264980
C       -5.64958924       0.86348175       2.36710521       0.00000000      38.43572755     -33.11709774     -51.54913599
C       -2.12662940       6.51929206       4.62784283       0.00000000   -2838.55096068     781.01081954   -1611.76005331
C        2.96235058      -0.97459434       4.19895409       0.00000000    -171.31928364   -2334.73374401    -433.44338653
C        3.05621143       3.76621568       4.15853954       0.00000000 -567176.19876558  107330.83530880   95632.33708005
C        2.09520579       3.38275853       3.95356649       0.00000000   28467.44421323   73785.98299830 -109870.55398840
C       -0.94289291       1.27499703       5.96822412       0.00000000   -2299.98620982   -3140.00379939    3322.60664672
C       -1.66932384       5.01713585       3.78799692       0.00000000    4225.15235944   -2174.03326526    -127.57252428
C        5.61333751      -0.43759849       4.42702685       0.00000000     382.21481424   -2548.30200093     263.81807784
C        4.21692246       5.49868653       4.19856333       0.00000000   57790.09804107   35379.89739647   81047.17377429
O        2.57098639       4.59385591       3.31057021       0.00000000 -316933.59728779 -290679.05745606  452124.23109783
C       -2.63761450       7.55792034       2.16905570       0.00000000     160.58529078     -68.18357144    -590.26341386
C        6.14154653      -0.88016248       3.65933365       0.00000000  -22868.15854296   -3462.77918243    2347.63788893
C        4.63825003       3.11949783       3.39069829       0.00000000   -9348.85591724   11932.36422994   -6463.29285951
C        1.08910240       3.42737032       4.03768406       0.00000000  -41595.33939529   66751.86987173 -1236934.64320176
O        1.86914902       3.57590946       4.91699915       0.00000000  945635.96423396 3820743.39188687 1678317.51508396
C        5.55698131       7.33017351       5.52413199       0.00000000     167.80745746    -303.69070882    -814.06352528
C        8.80131048       2.09450058       3.98790509       0.00000000    -135.37106577     110.04420193      37.36073289
C       10.02002503       7.48456880       3.76435590       0.00000000    -909.46212076    -184.52875799     652.78378589
C        9.54673572       6.89231430       6.30027208       0.00000000     567.78887310    1848.78610601     677.50522932
C       -2.16115672       8.05918852      -3.71770628       0.00000000      -0.17949235      -0.20295853      -0.53503093
C        5.66707842       6.95753671      -2.44541016       0.00000000      -0.12834942      -0.05872224      -0.03194078
C       -2.16495755      14.46404610      -1.84082602       0.00000000     -10.72933487       9.77893534      34.12957819
C        0.23697795       1.34032337       7.35332839       0.00000000     393.78360327    1076.63012149   -3285.57529630
C       -1.39812494       8.03270238       4.31619193       0.00000000   -1601.10844697    3344.41856068    -101.71825748
C       -3.38296655       4.35591747       3.25949783       0.00000000     161.33989839     252.53297131    -106.51880881
C       -4.83436785       9.93023101       1.36437604       0.00000000    -115.25801758    -532.24486468    -592.84797212
C       -1.74492178      -1.96175174       4.17063360       0.00000000    -322.77695946    1538.78419081   -1371.48827948
C        1.64175292       4.82318922       4.40064712       0.00000000 3635362.88299346 -4954587.05115881 5471867.93264685
C       -2.05158311       0.60647460       2.80363293       0.00000000     692.40017739     343.15631876     137.68277596
C       -6.28895024       5.67623824       3.86396281       0.00000000  -18466.64096669   -5262.05742434     131.05612694
C        8.38967151       6.89655353       8.81746055       0.00000000       5.02376503       4.75582112       7.15668109
C        4.12418727       5.19907248       3.47687229       0.00000000   62721.06479280  -36738.21650395   11499.10814536
C        2.71123491       5.52471447       2.76393473       0.00000000    5587.91298257   27939.23886116  -46031.32185519
C        2.17448852       8.50991134       3.47055596       0.00000000  134055.38687152 -109252.32328963   -3780.19349928
C        1.85108142       8.87672138       3.45626567       0.00000000 -113257.47277801  106289.31940294    3865.84748664
C        5.71212690       0.15133050       4.17688319       0.00000000    1522.63170713    1317.34305496    -811.21514658
C        8.55438639      11.31005201       2.94661531       0.00000000    -498.14829657     849.56674435   -2010.32397941
C        3.64223464       6.01440774       3.80633899       0.00000000  -11792.32397699   50121.52221512   73482.24149317
C        4.58100246       8.90642103       7.87913010       0.00000000      46.83056937     172.37007522     -25.51367187
C        5.40305435      11.53105838       4.01955720       0.00000000   -4140.72618424   -4471.63681865   -2086.53804816
C        6.64617817      -0.71088478       3.56988519       0.00000000    3902.70196660   14610.65305412     951.14043439
C        7.63992540      -0.52998471       2.76793618       0.00000000     674.56684816     955.87874125   -4186.32575402
C        5.82996531       6.40161705       6.23518311       0.00000000     -50.11269197     693.94994771   -1344.67327044
C        7.32133633       8.99244977       4.22296250       0.00000000     238.33885575    -405.92201904     119.88528454
C       13.67381668       8.48169787      -0.56544606       0.00000000     -12.61526807       0.93657990     -19.41945829
Ir       2.08668508       4.30376622       5.02203608       0.00000000 -9082065.85121210 -4833058.15247946 13808885.35205769
O        1.83086375       2.75300197       6.34722063       1.00000000  623693.19516426 5125374.53755628 -3121344.58866631
O        2.04194937       4.19269919       5.27112664       1.00000000 4691734.02702673  798071.57633969 -17140738.55694483
