52
Lattice="12.336457 0.0 0.0 -6.168228499999997 10.683685154694365 0.0 0.0 0.0 15.0" Properties=species:S:1:pos:R:3:forces:R:3 energy=-454.43185684471047 free_energy=-454.43185684471047 stress="0.00040154625669086195 0.00014945826228895137 1.0370876331720271e-05 0.00014945826228895137 0.004529917993196954 5.751543897290852e-06 1.0370876331720271e-05 5.751543897290852e-06 -6.660137600118869e-06" pbc="T T T"
C        0.04066075      -0.06317307       3.77028677       0.01209751       0.00315894       0.00361183
C       -1.19620669       2.06949631       3.74687128      -0.00133926      -0.00354217       0.00210278
C       -2.42122765       4.20709366       3.65358482       0.00038116       0.00380316      -0.00810200
C       -3.65652248       6.34335076       3.64822027      -0.00245927       0.00083840      -0.00028594
C       -4.89507809       8.48657339       3.70739966       0.00068058       0.00535237      -0.01057629
C        2.51062492      -0.05004199       3.84029829       0.00303114       0.00431987       0.00333011
C        1.26876024       2.08784178       3.99251933       0.00072424      -0.00766602       0.00963295
C        0.03495867       4.23702566       3.85952086       0.00446880      -0.00202658      -0.00473445
C       -1.19229857       6.35271506       3.69038786      -0.00298748      -0.00195347      -0.01069407
C       -2.42061101       8.48723659       3.71618610      -0.00382026       0.00083852      -0.00249942
C        4.98023467      -0.06332337       3.75930808      -0.00501852       0.00716154      -0.00209431
C        3.75633347       2.08776490       3.97630041      -0.00933036      -0.00362096       0.01104402
O        1.18776450       6.38252455       3.84409666       0.00623737       0.00475395      -0.00118838
C        0.04733396       8.46427347       3.68605417       0.00052854       0.00318582       0.00131272
C        7.45380903      -0.09379394       3.67930072       0.00264127      -0.00572133       0.00082439
C        6.21866519       2.06918557       3.72021869       0.00525652      -0.00782922      -0.00201297
C        4.98504492       4.23557512       3.79323257      -0.00443751       0.00047249       0.00608198
O        3.83210083       6.37536390       3.58061861      -0.00279687       0.00218025       0.01272929
C        2.51005538       8.39478388       3.64987793       0.00232487      -0.00226321      -0.00218959
C        9.90361842      -0.09286690       3.68609676      -0.00113610      -0.01067194      -0.00133215
C        8.67944493       2.05976543       3.65446692       0.00446189       0.00364055       0.00271339
C        7.44522291       4.20634765       3.62632847      -0.00252372      -0.00063570       0.00693000
C        6.21450752       6.35024343       3.63713929       0.00689806       0.00553835      -0.00788930
C        4.97288461       8.46525389       3.66132170      -0.00282728       0.00092760       0.00109388
C        0.03573967       1.36203837       3.82916689       0.00797580       0.00316077      -0.00847614
C       -1.18459098       3.50461541       3.72836728       0.00031776      -0.00005638      -0.00843261
C       -2.42355643       5.62870771       3.65725466      -0.00506957       0.00134078       0.00125780
C       -3.65733966       7.77260524       3.68976026      -0.00480776      -0.00077045       0.00376091
C       -4.89054903       9.91678572       3.77844081       0.00908576       0.00418252      -0.01083999
C        2.51237015       1.37976498       3.97486772      -0.00398984      -0.00448643      -0.00155298
C        1.20961607       3.48736899       4.19794531       0.00070936      -0.01123114      -0.00455734
C        0.01671775       5.66510248       3.76034210      -0.00046736       0.00332899       0.00662146
C       -1.19528916       7.77247604       3.69663161      -0.00193014      -0.00041429      -0.00668141
C       -2.42516274       9.91733965       3.77531403      -0.00154490       0.00421509      -0.00129716
C        4.98659533       1.36203931       3.80692273      -0.00508890       0.00495316      -0.00195625
C        3.81783574       3.49249495       4.17075511      -0.01168439      -0.00312968      -0.00329203
C        1.24030048       7.74523828       3.67575414       0.00403728       0.00694659       0.00692818
C        0.04705021       9.89637631       3.69974951      -0.00346500       0.00510612       0.00851311
C        7.45003255       1.34453782       3.67398738       0.01029920      -0.00527784       0.00374060
C        6.20721436       3.50417877       3.68696470      -0.00396481      -0.00674107      -0.01032841
C        5.00259110       5.66364316       3.65718740       0.00396852       0.00648846       0.00366376
C        3.77951338       7.74522875       3.61333247      -0.00136630      -0.00231469       0.00378260
C        2.51059050       9.84323621       3.66513264      -0.00043492      -0.00888008       0.01217757
C        9.90830797       1.34529775       3.68768077      -0.00238792      -0.00738983       0.00052755
C        8.68025083       3.48855342       3.63355377       0.00019370       0.00638069      -0.00295681
C        7.44748908       5.62755621       3.63162881       0.00383250       0.00027299      -0.00202331
C        6.21599031       7.77149018       3.66149679       0.00058363       0.00579939       0.00637140
C        4.97337767       9.89711179       3.70587729       0.00640278       0.00275005      -0.00574663
Ir       2.52588018       4.43649502       5.19527207      -0.01348536      -0.00703414       0.00120162
O        2.85781622       6.16042058       5.99839341       0.00580758      -0.00153141       0.00107737
O        1.50848554       6.07474257       6.46474738      -0.00958311       0.00337143      -0.00928539
H        1.62495017       5.80081604       7.40555535       0.00500108       0.00071921       0.00999410
