53
Lattice="12.336457 0.0 0.0 -6.168228499999997 10.683685154694365 0.0 0.0 0.0 15.0" Properties=species:S:1:pos:R:3:forces:R:3 energy=-336071.82018876955 free_energy=-336071.82018876955 stress="-373.2736906491075 -413.4916407249052 -410.3525586456157 -413.4916407249052 -163.57854688579758 806.3609443130703 -410.3525586456157 806.3609443130703 678.0787803253226" pbc="T T T"
C       -5.72959158       0.40592781       4.56200653 1265101.55999462 1021059.59783355 -3042905.71317749
C        2.28480348     -15.06454491      10.50120005       1.19812638      -3.80051440       7.62184562
C        9.20191454       1.06081113       4.07619924   -9857.53140213   10222.43832997  -34971.33870755
C       -0.88655929      10.34159809       3.51778963   29244.45936467  168807.99544643   77713.21278035
C      -13.49520170       3.67653705      -7.73396833     -49.86831638     -23.14118765     -28.66178115
C        3.87728020       1.25587657       3.70207479   14665.36019415     614.41423031    2735.15331281
C        0.87887466     -10.46593341       5.50013617  274955.18382349 -126727.73446741   82065.40293993
C       -6.33461651       4.49512911      -0.36610030     -27.85299370      83.24274902     -79.64527779
C      -10.97082288      12.90838813       5.30894191  -11029.44936573  -36320.24372086   10678.63694189
C        2.48729914      16.47564702      -4.23596097       1.28167973      -6.68070432       0.41429819
C        2.18272347       4.61301258      -0.50675125       2.76000063      -9.35219767       2.73640257
C        6.86001566       5.78206763      -7.94902888      36.27634605     -20.30434091     -18.01331254
C       18.64217892      16.31229814       4.27670958     111.26383102      49.29594308    -162.74447004
P       -0.42701250      10.42202592       6.82101929  -33618.38029607  -18853.04230612   72001.85784711
C      -10.43900127       1.98672937       3.83733876    -418.49582507     312.34382564     -69.44589017
C       12.45622480       1.35538800      -0.40062774     -28.50041530     -16.33830632      52.43449135
C       11.25434733       0.98429108       1.15663296    1012.07538425    -245.06585910    -788.97926549
C       -1.70147684       3.85319538       9.43717488     -21.27989437     -13.33779188     -22.33414857
S       -1.03398870      10.55249161       4.42153228 -179023.54707042   38131.40460584  -10820.98625779
C       13.07002343       3.26224919       7.30238329     -10.32074299      -6.72825179      -4.38950824
C        1.62595079      -6.16935023      11.81344179      -0.59135466       5.88034670       2.18045287
C        7.31637545      -7.26969818       3.23116325     -44.77516609      50.31690747     -25.20483966
C        6.49500362       0.30567709       5.20669675  421306.19407413 -403858.48011207   21010.78223606
C        7.57910502      11.98215579       2.58963610    -876.89889276     -11.03965367    -432.11512910
C       21.18930895      13.88809098      14.87013604      -1.21753541      -0.39978872      15.25153718
C       -7.20359871       2.65441139       4.08904153  -12820.78408805   -5812.28861959   -7474.70199862
C        4.62410599       4.72711280       8.15412396     -49.22809635      63.08850256      40.01940105
C       -4.19001439       0.14457916       6.22146663  106441.90478946   -8355.39250593  115518.46635595
C        6.08057224       5.50291713       2.35765223    -320.76069515    1748.19117940    -567.87341936
C       -1.13095232      20.23229553       2.84214267     127.35560971    -568.52644111    -241.65915397
C      -11.89410168       2.62504037       4.34535918     -88.74804071       5.87051938      13.38705417
C       -0.39284501      -1.66842095       2.31958327     572.64277098    -337.38048734    -337.29636188
C       -4.95663023       9.83762908      -1.35133543      -2.41134900       0.75823691       3.93871107
C       -8.60828109       4.82693462       5.82282221    -657.60824226    1003.75045036     360.06359223
C       -6.41294343      11.38080890       7.51005819      34.15128732       7.36740973       4.69406386
C       -0.51704283      -5.57794883      -1.65750363       2.92529696       0.65741006       2.52805985
C        0.48682875      -3.73542425      14.24004075      -1.62065348      -0.69151671       2.34587809
C        1.40300587       9.52937533       3.27995562   66473.22130555  388450.47036863  113659.31086258
C        1.21643724      11.18422526       3.46044052 2851051.58599813 3384730.99572952 -1874924.09781055
C       15.93414186      14.80651301      -8.89616498     871.35444941    1277.14749638     741.88880790
C        6.78136354       0.75013497       4.28765005 -874932.85411153 -842387.91375849  -40993.96448577
C       -0.38554068      10.19627262       5.22907654  -68716.48316887  -22999.52894536   40290.60081221
C        5.86538108       3.91364426       9.20902842     -26.77073330     160.65467506     199.58516201
C        3.70519823      11.06874474      -1.85516754     -39.11766917     -21.54860184      60.13959095
C        5.72987893       4.68977862       8.11270111     -55.88713393     510.91523946     361.90197525
C       17.01897756      14.76427755      -9.83700274    1077.36927251    1008.57545116     395.49317750
C        9.61691063       4.83324317      10.22933357       0.45261727      -0.98928660      -1.65443551
C       19.40132195       5.14592815      -1.92637906       0.08040198      -0.97785315      -2.64128000
C       -7.13531703       1.20424041      12.50833074      -0.07968397       0.01495166      -0.44972011
Ir       0.93709105      10.80526707       3.69664530 -3974814.33184642 -3577361.26260789 4713503.30073906
O        0.99606706       9.80746619      17.99624055  136453.47081508   31143.57132585 -229844.40258306
O        1.84735909       7.96475494      22.17388315    -570.83355860    -887.27785080    -269.83067582
H        1.18515162       8.65470566      16.41214082   -1437.89909162   -4599.49148642   -6455.20563940
