52
Lattice="12.336457 0.0 0.0 -6.168228499999997 10.683685154694365 0.0 0.0 0.0 15.0" Properties=species:S:1:pos:R:3:forces:R:3 energy=-455.3899924169715 free_energy=-455.3899924169715 stress="-0.0033032886089801134 0.0018953186653080367 -1.994361750077611e-05 0.0018953186653080367 0.007640576706138631 1.57813075379958e-05 -1.994361750077611e-05 1.57813075379958e-05 -1.0733839965554035e-05" pbc="T T T"
C        0.04483462       0.11433837       3.77268515      -0.00170982       0.00475797       0.00159357
C       -1.20214858       2.21606334       3.71845549       0.00052739       0.00022966       0.00578941
C       -2.44040405       4.35515356       3.58294535       0.00139899       0.00371077       0.00057457
C       -3.67361007       6.50689308       3.56440003      -0.00266933      -0.00733601      -0.00090676
C       -4.89714349       8.66010524       3.67405624       0.00347021       0.00696055       0.00466399
C        2.50532565       0.16295320       3.75075813       0.00029753       0.00213829       0.00459586
C        1.26174297       2.33081097       3.85722803       0.00197162      -0.00170904       0.00153418
C        0.00218658       4.35092441       3.77797507      -0.00195058      -0.00525077      -0.00247934
C       -1.23169027       6.51186071       3.65902554      -0.00010545       0.00163849      -0.00102307
C       -2.44711084       8.65890084       3.68074282       0.00349903       0.00044165       0.00584073
C        4.97202159       0.08454737       3.73991674       0.00032168       0.00531426      -0.00666440
C        3.78871935       2.22671083       3.71245619      -0.00104008      -0.00540298       0.00452542
N        1.11399269       6.48777091       4.09838911      -0.00473903       0.00194288      -0.00104938
C        0.01987803       8.60911694       3.81240277       0.00358577       0.00046609       0.00355576
C        7.44808756       0.04359699       3.77943146      -0.00367584      -0.00458170      -0.00913964
C        6.22902614       2.19542670       3.63708776      -0.00263375       0.00585723       0.00216814
C        5.03272111       4.32027932       3.60088151       0.00412689      -0.00077161      -0.00136793
C        3.82816904       6.45164679       4.03705448      -0.00079473       0.00005436       0.00130711
C        2.49176543       8.55633388       3.94530683      -0.00136880       0.00033809      -0.00178118
C        9.90379245       0.05032727       3.79283433      -0.00023225      -0.00315219       0.00589363
C        8.67906832       2.19816229       3.65247615      -0.00416960       0.00457701      -0.00209787
C        7.44928133       4.35099825       3.54276746      -0.00082317       0.00210993       0.00919378
C        6.21595657       6.49137223       3.60205984      -0.00119226       0.00093851      -0.00208229
C        4.97741310       8.61803469       3.79979207      -0.00447939      -0.00484716      -0.00173851
C        0.05190910       1.55202113       3.78493646       0.00274818       0.00293525      -0.00587493
C       -1.22118594       3.63382063       3.65910652      -0.00220682      -0.00227434      -0.00404733
C       -2.45106789       5.78556813       3.57593608       0.00135815       0.00131420      -0.00456949
C       -3.67469989       7.94035200       3.62649824       0.00132742      -0.00352857       0.00190493
C       -4.88949085      10.09847791       3.74017675      -0.00074036       0.00973093      -0.00232498
C        2.52330605       1.60870186       3.78806807      -0.00233496      -0.00321484      -0.00008030
N        1.16438832       3.70091499       4.02048672      -0.00227231      -0.00427109       0.00374822
C       -0.03194687       5.79417755       3.79386220      -0.00393288      -0.00201524       0.00255546
C       -1.22137856       7.93456048       3.71290260       0.00494908       0.00082627      -0.00616030
C       -2.44355248      10.09563637       3.72776579       0.00167129       0.00398417      -0.00028533
C        4.98510605       1.51092349       3.69830940      -0.00050178       0.00409839      -0.00240159
O        3.85496982       3.60983348       3.67259316       0.01000146      -0.00904802      -0.00179633
C        1.23162129       7.86433210       3.95406140       0.00118239       0.00169279       0.00397855
C        0.03772805      10.03450370       3.77999546      -0.00270250      -0.00076637      -0.00681921
C        7.44689531       1.47809018       3.68477070      -0.00620852      -0.00000650      -0.00230430
C        6.22836473       3.61716124       3.56303310       0.00401169       0.00242856       0.00558694
C        4.99899181       5.73849467       3.69140143       0.00090725       0.00037924      -0.00064257
C        3.74596974       7.85954981       3.93307488      -0.00577294      -0.00190923      -0.00359221
C        2.50387860       9.99598823       3.84251908      -0.00148420      -0.00236840      -0.00441764
C        9.90665985       1.48194807       3.71672139      -0.00155879      -0.00008675       0.00087647
C        8.67252214       3.63101963       3.57570483       0.00046059       0.00779323       0.00142790
C        7.43836681       5.78048965       3.54365892      -0.00414993      -0.00326447      -0.00418249
C        6.21193491       7.92345602       3.68476869       0.00152352       0.00264183       0.00386746
C        4.97839148      10.04834276       3.79251013      -0.00043086      -0.00404195      -0.00243909
Ir       2.49640067       5.32419822       4.85845107       0.00916759      -0.00134417       0.00472108
O        2.84082981       4.10232284       6.20387549      -0.00432312      -0.00150731      -0.00324965
O        1.58860466       3.45249199       6.65421122       0.00030472      -0.00315482      -0.00390581
H        1.85674692       3.24032016       7.57550448       0.01139162      -0.00344706       0.00952083
