52
Lattice="12.336457 0.0 0.0 -6.168228499999997 10.683685154694365 0.0 0.0 0.0 15.0" Properties=species:S:1:pos:R:3:initial_magmoms:R:1:forces:R:3 energy=-1000705.8991936828 free_energy=-1000705.8991936828 stress="2017.4357790836902 1006.6865347712002 -577.4641373757732 1006.6865347712002 1623.8856699219943 -423.3327612127032 -577.4641373757732 -423.3327612127032 1558.9881354262147" pbc="T T T"
C        0.98019861       0.34507366       5.46905488       0.00000000   -3631.83829711   -2930.16274827   -3620.84828099
C        0.71183719       1.69287057       3.03850421       0.00000000    -342.61799000     388.52826065    -425.57424985
C       -4.34120753       5.24254297       1.56667514       0.00000000     -19.83063214      -0.15632596      23.81497386
C       -0.00763331       6.56986316       1.37877808       0.00000000    -142.57578496     506.52622987   -1087.32741696
C      -10.48417509       6.24705218       1.88758697       0.00000000     339.84456127    -310.87029425   -2573.23274540
C       -0.13886314       0.42267916       1.14798045       0.00000000      -0.80633401     -90.68006610     -20.34884247
C        1.01242321       4.27491158       5.92821404       0.00000000 8976369.81494086 4742404.14284748 -1674653.19900585
C       -3.01637581       6.54845779       2.61158138       0.00000000    -150.48240237      66.33298296    -101.94450009
C        3.80981232      15.59002237      -2.40598702       0.00000000       5.27582037       2.39243144      -9.05073418
C        0.57525139      12.25078333       7.16185763       0.00000000      49.87445543      18.04905676      -2.74941331
C        1.75925724       2.50170009       6.31418924       0.00000000  217765.32709017 -107669.14188940   -7280.96734780
C        5.82171529       4.39993174       4.28566111       0.00000000     741.90047656     109.08949476    -542.61816644
C        3.42673272       4.18068012       4.14000241       0.00000000  -45348.94645737   14534.55546076   39545.99202465
N        5.94207645       2.34090672       1.31357847       0.00000000     -35.81477058      35.50676309      68.22263992
C        0.37798427       5.89567465       8.15369629       0.00000000   -8242.05597918    6642.93200235    -895.63619290
C        5.37169017      -4.10644515       6.10410155       0.00000000   22218.96318427  -17098.63981778   -2728.30845791
C        9.02353316      -0.58833736       5.41634483       0.00000000       3.28484736     108.17090235     -48.86167650
C        2.40690578       4.07887615       4.47889512       0.00000000 -293657.25467131   84999.66604251  383667.10975434
O        1.45322684       3.70485553       2.93315762       0.00000000   -7331.26605604   10333.00412526   14896.30201071
C       13.60709019       6.99628856       4.79759243       0.00000000    3603.37833375  -69072.27104900   25264.57821849
C        9.54308208      -1.02825314       4.25786516       0.00000000      96.21676169     353.46572166    -261.72818855
C       16.13058755       2.25131240      10.93661630       0.00000000       5.57920947      27.59464619      47.85947175
C        6.59406391      10.07740034      -7.10115413       0.00000000    -305.76002978   -1901.37437509     201.28217020
C        3.88264873       6.14550097       6.39946365       0.00000000   -7695.66334906   -5731.17981538   -4393.16059863
C        5.71198660       7.29790186      -1.58702560       0.00000000      -0.96325902      -1.78334034       1.75240267
C        5.52796215      -2.98506361       4.44288807       0.00000000    -527.89315065    -223.63957284     812.98592506
C       -7.98583168       5.14539648       2.81526420       0.00000000    1177.36577906     -92.29655935     295.81069061
C        2.76346217       7.14832679       4.56873552       0.00000000  -16886.25650906  -25580.73138745   14544.50499090
C       -8.45504065       4.30941494       1.64788692       0.00000000    1894.87164037     220.20224726   -5080.66829826
C       -5.63159490       8.43964935       3.65249164       0.00000000    -104.72695081    -211.63225180    -115.49352087
C        1.29797898       1.76715602       6.86373019       0.00000000  165647.40658901 -105367.83004916 -112639.56877767
C        2.61220636       5.53212155       6.17260384       0.00000000 -372368.84940258 -418377.36018662  -50317.59176557
C       -2.42052400       5.61306995       1.04846529       0.00000000     -27.89384902      -3.87369530      27.57368519
C       -4.15109601      10.51565840      -3.78461015       0.00000000       2.64230598     -15.38833215     126.27355606
C        2.75275182       5.04375403       3.41567123       0.00000000  -25901.17312324    3507.36993056   36103.24646694
C        1.49304088       5.38103482       7.34250950       0.00000000    -668.14788681 -146860.42292881 -338954.33496638
C        0.90708816       2.66043852       1.13881170       0.00000000    -208.57843947    -230.02307579   -1163.51815740
C        1.58609980       6.93676144       2.71591736       0.00000000    -217.02187107    -207.86487331    3355.33547346
C       -0.28945357      14.98576493       9.31240206       0.00000000     249.59188883      19.74432471     155.41510193
C        9.05690739      -1.78979965       5.56984492       0.00000000     578.38103899     320.00585545    -150.88304726
C        6.98852166      10.21077993      -6.16735832       0.00000000    -510.42277247   -1203.32654238    1498.24553866
C        3.71382038       4.03066024       2.50679720       0.00000000    -799.84027701   -2064.08904032    4868.38713369
C       -4.65030917      12.20420961       6.71711032       0.00000000 -231074.75558232  307105.67473903  172209.89152495
C       -0.38925345       7.64372561       6.24806001       0.00000000    5364.32170418  -10529.67721315   -2302.87950133
C       13.14431878       0.83794816       4.38937740       0.00000000    3212.06249192    1540.28290997    4585.34594718
C        9.98987792       2.43290475       0.82426180       0.00000000      -4.02746427      -5.72668696      -3.74721332
C       12.01135020       6.59229806       4.46880046       0.00000000   29223.68696393  -35448.77606987   21142.99654531
C        4.04208490      10.88841290      15.29021269       0.00000000       3.78378545       6.56745725       5.58657345
C        0.56458156       1.45685250       1.31704918       0.00000000     -64.36790993    -318.64348222    -453.58592135
Ir       1.35657563       4.65618387       5.71390831       0.00000000 -3028413.02137867 -4348494.12747544 1778560.55308189
O        1.18672337       3.43794035       7.68193457       1.00000000   94317.10313733   74358.50878522 -813216.40156133
O        1.33637592       4.32055591       5.96113491       1.00000000 -5478187.82442593   52433.37592697  521035.16264669
