51
Lattice="12.336457 0.0 0.0 -6.168228499999997 10.683685154694365 0.0 0.0 0.0 15.0" Properties=species:S:1:pos:R:3:initial_magmoms:R:1:forces:R:3 energy=-449.8192333718929 free_energy=-449.8192333718929 stress="-0.00228277239405206 -7.7261121525463e-05 -5.553236006610185e-06 -7.7261121525463e-05 0.012042550080280132 1.5307096663917156e-06 -5.553236006610185e-06 1.5307096663917156e-06 -5.967965126116377e-06" pbc="T T T"
C       -0.04513905       0.00930716       3.78868970       0.00000000      -0.00076455      -0.00043899       0.00077278
C       -1.30814764       2.10000988       3.80607803       0.00000000      -0.00278551      -0.00092370       0.00352324
C       -2.55818467       4.25251883       3.62413903       0.00000000      -0.00284181      -0.00173949       0.00418038
C       -3.76674930       6.41031684       3.52044962       0.00000000      -0.00101357       0.00212030       0.00563125
C       -4.98589230       8.56219084       3.60967661       0.00000000      -0.00636127       0.00481885       0.00645560
C        2.42332623       0.06881123       3.76805521       0.00000000       0.00115570       0.00990109       0.00078337
C        1.18074265       2.19721303       4.04172497       0.00000000       0.00229817       0.00049695      -0.00114480
C       -0.17566626       4.26097629       4.04955285       0.00000000       0.00400474       0.00511287       0.00262846
C       -1.35400205       6.41591878       3.76899065       0.00000000      -0.00360812      -0.00130444      -0.00473724
C       -2.53090258       8.56716372       3.69327676       0.00000000       0.00010791      -0.00587829      -0.00095449
C        4.88723716      -0.00470452       3.72567237       0.00000000      -0.00840691      -0.00602949      -0.00601342
C        3.69386802       2.17575154       3.66865731       0.00000000       0.00426459       0.00262775      -0.00264344
C        1.03264431       6.34135491       4.31480008       0.00000000       0.00112100       0.00445520       0.00689922
C       -0.04531250       8.49772416       3.86171019       0.00000000       0.00385949      -0.00289785       0.01150328
C        7.36158835      -0.06572227       3.72671858       0.00000000      -0.00048557      -0.00321177       0.00403834
C        6.12793910       2.11102949       3.53691837       0.00000000      -0.00038028       0.00035803      -0.00187378
C        4.92743607       4.25796512       3.32990720       0.00000000      -0.00071867      -0.00180095      -0.00032588
O        3.76933860       6.38789023       3.58681022       0.00000000       0.00909733       0.00788626       0.00090217
C        2.44131800       8.42532809       3.84887388       0.00000000       0.00203238      -0.00122167      -0.00064509
C        9.81273559      -0.06439518       3.74766470       0.00000000       0.00194180      -0.00155251       0.00509092
C        8.58038817       2.09204272       3.61162932       0.00000000      -0.00196148       0.00022296       0.00412526
C        7.34937067       4.25587910       3.41916634       0.00000000       0.00028748       0.00052984       0.00723117
C        6.12445428       6.39791174       3.37594260       0.00000000       0.00214134      -0.00384639       0.00246355
C        4.89225068       8.50845095       3.65711477       0.00000000      -0.00355839       0.00075842       0.00188278
C       -0.04242828       1.44169662       3.89624397       0.00000000      -0.00180869      -0.00416364       0.00037427
C       -1.35217503       3.52243982       3.79665874       0.00000000       0.00342657       0.00198110      -0.00719730
C       -2.55869077       5.68448167       3.61314920       0.00000000      -0.00588905      -0.00014156       0.00174792
C       -3.75644651       7.84612159       3.59441754       0.00000000      -0.00312330       0.00149863      -0.00159335
C       -4.97511048      10.00369114       3.73491167       0.00000000       0.00228504       0.00680162      -0.01160429
C        2.43878772       1.51174510       3.85080778       0.00000000       0.00725644       0.00908929       0.00043670
C        1.04217293       3.60517118       4.34516433       0.00000000       0.00447545      -0.00374348      -0.00061615
C       -0.17806398       5.67967042       4.03227300       0.00000000      -0.00065582       0.00516629       0.00361358
C       -1.30928300       7.83812025       3.77195336       0.00000000       0.00428579      -0.00377688       0.00170920
C       -2.52455650      10.00321092       3.73052395       0.00000000      -0.00768917      -0.00372475      -0.00386292
C        4.88991896       1.43012988       3.64653462       0.00000000      -0.00098695      -0.00184422      -0.01061622
O        3.75470193       3.53718555       3.47978781       0.00000000      -0.00312517       0.00260933       0.00143701
C        1.17723732       7.74105293       4.01163833       0.00000000       0.00513544      -0.00017827       0.00583619
C       -0.04643626       9.92964099       3.76546960       0.00000000      -0.00408318      -0.00409897       0.00229346
C        7.35021419       1.37670695       3.61492559       0.00000000      -0.00090746      -0.00330847      -0.00470714
C        6.12149041       3.54234415       3.39093575       0.00000000       0.00023014      -0.00040289      -0.00352428
C        4.93033336       5.67981028       3.33134634       0.00000000       0.00494708      -0.00393462       0.00175460
C        3.69858271       7.75849631       3.69501621       0.00000000       0.00028715       0.00247492      -0.00097589
C        2.42402707       9.86802326       3.77000106       0.00000000       0.00357533      -0.00408486      -0.00410309
C        9.80667615       1.37168019       3.71802671       0.00000000      -0.00376661       0.00105198      -0.00377941
C        8.56947799       3.52774051       3.53542086       0.00000000       0.00103790      -0.00084543      -0.00456583
C        7.35046541       5.68236763       3.41080120       0.00000000       0.00061835      -0.00081079       0.00470343
C        6.12978977       7.82872172       3.53488763       0.00000000      -0.00686704       0.00058600      -0.00429864
C        4.88888959       9.94356573       3.74450027       0.00000000      -0.00029308       0.00020946      -0.00981548
Ir       2.08779343       4.97805835       5.12988599       0.00000000       0.00227512      -0.00252679      -0.01219140
O        4.12508100       4.69004105       5.74262121       1.00000000       0.00219354      -0.00310291      -0.00252736
O        3.69324340       5.85749216       6.14150986       1.00000000      -0.00225962       0.00077690       0.01229876
