52
Lattice="12.336457 0.0 0.0 -6.168228499999997 10.683685154694365 0.0 0.0 0.0 15.0" Properties=species:S:1:pos:R:3:forces:R:3 energy=-453.71732699550876 free_energy=-453.71732699550876 stress="-0.0024225082139424157 -2.68509735635125e-05 -1.410548119322038e-06 -2.68509735635125e-05 0.012001806381773762 7.819616792778197e-07 -1.410548119322038e-06 7.819616792778197e-07 -1.0888188159397735e-05" pbc="T T T"
C       -0.05657595       0.05722522       3.83675113       0.00008693       0.01187842       0.00362802
C       -1.32027317       2.14702221       3.85440332       0.00019165       0.00019290      -0.00382723
C       -2.57084861       4.29892062       3.70405433       0.00095549      -0.00465199      -0.00341925
C       -3.77830943       6.45621267       3.61927938      -0.00663123      -0.00077480      -0.00355249
C       -4.99697303       8.60852174       3.68596279      -0.00184413       0.00204001      -0.00016342
C        2.41367646       0.11649141       3.84080507       0.00390780      -0.00468621      -0.00721434
C        1.16884853       2.24885775       4.08948434      -0.00647502      -0.00326626      -0.01375343
C       -0.18487780       4.30556041       4.10472440       0.00274426      -0.00255492      -0.01044614
C       -1.36126404       6.46080141       3.85743900       0.00270866       0.00025276      -0.00695980
C       -2.54043077       8.61192752       3.77806902       0.00181428       0.00864940       0.01225687
C        4.87792741       0.03943977       3.80034331       0.00325411      -0.00457009      -0.00060459
C        3.68780369       2.22006463       3.76602402      -0.00625394      -0.00263570      -0.00550301
C        1.04122553       6.37076694       4.37857501       0.00751169       0.00078504      -0.00003804
C       -0.05252053       8.53946127       3.93880023      -0.00391217      -0.00570272       0.00276280
C        7.35089241      -0.02197430       3.78649054      -0.00608177       0.00377025       0.00554147
C        6.11779371       2.15646799       3.61633952      -0.00067897      -0.00507120      -0.00159786
C        4.92150521       4.30753098       3.41958268       0.00698310       0.00583851      -0.00399572
O        3.74581411       6.45528132       3.49110024      -0.00150043      -0.00851025       0.00778748
C        2.43000643       8.47008137       3.88548820       0.00166601       0.00068471       0.00371307
C        9.80063643      -0.01825944       3.78771615       0.00376707       0.00614116       0.00241985
C        8.56761098       2.13779059       3.67485364       0.01181825       0.00321521       0.00559585
C        7.33749446       4.30261044       3.50996064      -0.00096844      -0.00450825       0.00079768
C        6.11205411       6.44189317       3.47529064      -0.00621120      -0.00132486      -0.00859104
C        4.88135273       8.55824990       3.69544805       0.00514888       0.00276620       0.00151487
C       -0.05506257       1.48883139       3.94155613      -0.00523553       0.00429517      -0.00410591
C       -1.36369327       3.56881381       3.85246754      -0.00153299      -0.00393500       0.00155873
C       -2.56940923       5.73195767       3.70613355      -0.00207696      -0.00401817       0.00690627
C       -3.76681035       7.89237185       3.68436782       0.00284941       0.00467563       0.00011154
C       -4.98501633      10.05141502       3.79849947       0.00054713       0.00468333      -0.00514523
C        2.43128929       1.55978320       3.92275734      -0.00369127      -0.01049536       0.00348062
C        1.03063734       3.65357109       4.37794973      -0.00353864      -0.00620336       0.00338470
C       -0.18234620       5.72248539       4.10530568       0.00872254      -0.00081275       0.00013030
C       -1.31793721       7.88254982       3.85952326      -0.00289654       0.00427231       0.00077615
C       -2.53477444      10.04837756       3.80866797       0.00654251       0.00175100       0.00079921
C        4.88171570       1.47466635       3.72627433      -0.00376294      -0.00824144      -0.00502641
O        3.75702653       3.59318420       3.66164922      -0.00457043       0.00693111      -0.00226963
C        1.17336572       7.77699396       4.07596260      -0.00194512       0.00210277       0.00037137
C       -0.05586826       9.97153863       3.83667811      -0.00440973      -0.00981712       0.00450492
C        7.33770474       1.42139545       3.68115318       0.00846633       0.00429807      -0.00271563
C        6.11141023       3.58816346       3.47895138      -0.00194004      -0.00105294      -0.00016625
C        4.92000859       5.72592612       3.39648761      -0.00430242       0.00253259       0.00162886
C        3.68530623       7.81260026       3.70163184       0.00426310      -0.00006104       0.01124320
C        2.41325456       9.91321304       3.81444409      -0.00219915       0.00457388       0.00105718
C        9.79403165       1.41779849       3.76653158       0.00622879       0.00505158       0.00456619
C        8.55677630       3.57436245       3.61437960       0.00265755      -0.00270997      -0.00460866
C        7.33801934       5.72796267       3.51343250      -0.01180286      -0.00663321      -0.00047206
C        6.11876635       7.87500057       3.60413445      -0.00005228      -0.00426746      -0.00019668
C        4.87705172       9.99167146       3.78292246       0.00315635       0.00822140       0.00092482
Ir       2.11214140       5.01065400       5.18953793      -0.00745378       0.00281501      -0.00335916
O        3.87719368       5.29289377       5.87312142      -0.00172989       0.00993843      -0.00213980
O        3.84116080       3.93475011       6.32661493       0.01651172       0.00352528       0.00947059
H        3.72365629       4.05535059       7.29808434      -0.00880574      -0.00937708       0.00293919
