52
Lattice="12.336457 0.0 0.0 -6.168228499999997 10.683685154694365 0.0 0.0 0.0 15.0" Properties=species:S:1:pos:R:3:initial_magmoms:R:1:forces:R:3 energy=-203891.73794865608 free_energy=-203891.73794865608 stress="235.41412100821896 -54.935383444459006 -166.11873873548558 -54.935383444459006 230.9491224466491 77.34418688346706 -166.11873873548558 77.34418688346706 196.63770579327922" pbc="T T T"
C       -1.94100656      -2.84282254       4.53970082       0.00000000    1493.37131665     710.79626079   -4571.88095223
C       -4.37257107       5.44497208       4.17683739       0.00000000   10178.60758199    7522.48743170   16897.44280057
C       -4.54742058       5.45540503       3.59820332       0.00000000   -2870.81809158    7211.97379047  -20169.32266114
C       -3.46001410       3.89808478       0.45247588       0.00000000      -0.56998906     -11.46603262      15.05321653
C       -7.74103198       6.87597200       5.79459540       0.00000000    1497.86902112    3722.75192262    3788.51275092
C        1.73556578      -1.38566369       3.91540311       0.00000000 -116155.02581712   -7215.68781782  205089.23927466
C        0.96629755       0.37034092      -7.10006042       0.00000000      88.47460095    -584.13577658    -655.61332419
C        2.35100702       6.23743363       1.66445589       0.00000000      13.25983667      -8.10552633      38.52837472
C       -3.39026146       6.72979423       3.14242503       0.00000000   -7986.79490190    3855.02199536    -796.57655623
C       -4.64964268       8.53792313       4.46881054       0.00000000  160300.28073356  344466.28961374  -79842.69488657
C        7.16664582       9.03933708      -6.43301554       0.00000000     167.86439876      40.90756793    -740.12469151
C        3.53009261       4.63789520       4.36970516       0.00000000    1209.67567552    1293.36003141    1027.11721488
C        3.01953986       6.62614321       0.96673166       0.00000000      33.62637361      15.13871441      45.75601340
C       -2.13649628       4.74458040       6.55949920       0.00000000    -329.53620599     350.67292277    -309.85039061
C        3.56343116       7.53980336       4.99679268       0.00000000    -504.83647687     537.45732917   -1427.15660090
C        7.54624263      -1.97842409       7.69706314       0.00000000    -316.99347468     491.02852328    -294.69910784
C        7.19209060      -1.82499158       3.82029490       0.00000000    -160.19398606     -15.50360748     -20.27718029
C        5.94395654       4.91815398       8.12527581       0.00000000    -331.80549804    -684.14759407     515.94600399
N        4.24301607       6.56974042       7.06022545       0.00000000   11951.44312505   -9392.51376376  -21829.55130256
C       11.70717462       8.94181642       7.28167460       0.00000000    -369.27745118     -81.46347308    -410.99351429
C        6.90765158       4.36848476      -2.61507097       0.00000000      -3.44621459      -0.95490565      -1.76284442
C        7.46237811       3.81324971       1.79523095       0.00000000      93.69680871     265.15589476     111.51238129
C        7.58796143       5.91451109       6.09658663       0.00000000     393.94666995   -2416.88271760    2339.06100595
C        7.79939780       8.91502715       4.28999040       0.00000000   -8634.99613220 -732314.47485700 -474794.76607695
C        5.44540204       7.78496142       8.27246782       0.00000000    2412.27673033    1876.83001826    -275.54934173
C       -4.91376395      -0.46154834      -0.10294070       0.00000000       1.58690592      -0.12902271      -0.77869442
C       -6.87998735       4.62532666      -0.73415575       0.00000000      -0.64405156      -4.66331424      -3.47933493
C       -3.50377250       5.71472392       6.75868822       0.00000000    -762.77766947     410.55786983    -823.71906640
C       -4.28958172       8.38373058       3.97999688       0.00000000 -197565.34173592  305858.51234480  359360.42306427
C       -5.35951110       8.82168023       4.28882900       0.00000000  201764.04278150  -77177.75979757  -82497.10466580
C        3.54707067      -1.05049539       2.73329698       0.00000000    -582.37595940    -634.53234307   -2443.74758055
C        1.91492817       0.06004968       3.08508181       0.00000000    6137.50233881   -6450.68163610     821.10863434
C       -2.21610167       5.34756775      -1.55239574       0.00000000       0.68854564      -0.52345773       2.64956845
C        0.10115551       8.71459344       6.32565627       0.00000000    -480.75653035     -68.55595599     -16.51942189
C       -1.67898068       9.75546702       4.80446697       0.00000000    2883.97575891    1850.17128960     461.77255227
C        3.31358667       2.23215364       5.48915608       0.00000000    -160.09102525    -215.78066188     -10.02933227
C        4.35671415       5.63317493       5.57266806       0.00000000  -20920.70786014   -7910.41609043   13416.58892079
C        0.15029086       7.59811343       3.18544943       0.00000000    -400.23530551     162.43495956     114.38521818
C        0.50643635       6.49807045       3.56399604       0.00000000    -105.84164366      31.11768028      67.65047391
C       11.42444263       0.21018905       2.85735634       0.00000000    1246.49171718   -1011.26940675      34.16901350
C        4.94541946       4.28203552       6.58241255       0.00000000   -9852.32781933    6928.00182112    7241.21488918
C        5.48436276       6.20366253       6.75424332       0.00000000   -1489.82751819     -28.05509038    2198.67684462
C        4.85215643       6.07095631       5.97158894       0.00000000    3714.59544205    3685.60190558   18446.89959112
C        5.51604909       7.65902339       4.38901679       0.00000000    4108.98266200   -2934.31501521   -2113.56532097
C       11.90973275      -1.36903822       1.98542515       0.00000000    -110.20358537   -1146.64176136     179.84807040
C        7.24532425       5.11319090       4.12894891       0.00000000  -11845.64856866   -9502.19977176    1956.29213609
C        7.43647556       7.19557926      -0.42673314       0.00000000     -14.84394792     315.13055919    1022.97928373
C        7.40743568       8.10450258       3.62578885       0.00000000  -47724.50636046  164885.67622396   89528.42157420
C        6.27954539       8.22657970       6.34393373       0.00000000     403.40685921    2601.95193177   -5502.32025071
Ir       3.21344179       5.61535232       7.83403035       0.00000000 -390338.74559404  127162.84592426  207415.27447921
O        2.85119376       6.54284666       8.54305827       1.00000000   84394.23989432   -5638.99077863  -31510.92661020
O        2.79401637       5.47885520       7.94049624       1.00000000  325529.26363608 -120802.02435082 -201073.51364155
