52
Lattice="12.336457 0.0 0.0 -6.168228499999997 10.683685154694365 0.0 0.0 0.0 15.0" Properties=species:S:1:pos:R:3:initial_magmoms:R:1:forces:R:3 energy=-462.35513418136486 free_energy=-462.35513418136486 stress="0.0019858665505514805 0.0047037407448172535 2.0578279191632204e-05 0.0047037407448172535 2.7799664456172117e-05 -7.1422240772848495e-06 2.0578279191632204e-05 -7.1422240772848495e-06 -1.8532486700598658e-05" pbc="T T T"
C       -0.09537609      -0.01017989       3.81978703       0.00000000      -0.00652531       0.00274798      -0.01070965
C       -1.28728782       2.15787647       3.81668295       0.00000000      -0.00345062       0.00067270      -0.00449762
C       -2.51186805       4.28906037       3.76494867       0.00000000       0.00019117      -0.00177121      -0.00295940
C       -3.76815067       6.41609894       3.71496094       0.00000000       0.00589033      -0.00703296      -0.00565791
C       -5.05397347       8.52897122       3.76319204       0.00000000       0.00541761       0.00580816       0.00011458
C        2.37004444      -0.00222706       3.71757267       0.00000000      -0.00245529      -0.00286771       0.00403899
C        1.17234176       2.15184037       3.80769561       0.00000000       0.00667844      -0.00063710      -0.00233446
C       -0.03180781       4.30669218       3.95140884       0.00000000      -0.00154028       0.00269878      -0.00616490
C       -1.29921422       6.43307861       3.87363283       0.00000000      -0.00480807       0.00451326      -0.00526796
C       -2.56973907       8.55728933       3.74309842       0.00000000      -0.00487635      -0.00238441       0.00018272
C        4.84326072       0.01204920       3.63066931       0.00000000      -0.00305846      -0.00111117      -0.00116874
C        3.62419184       2.13880836       3.58739929       0.00000000       0.00069413       0.00402573      -0.01018875
C        2.47700379       4.26107216       3.94235943       0.00000000      -0.00163115       0.01794767      -0.00243678
C        1.13483218       6.51463677       4.15733418       0.00000000      -0.00201173       0.00199479       0.00798528
C       -0.11379726       8.58399050       3.78339198       0.00000000      -0.00220721      -0.00089035       0.00689718
C        7.32085077       0.02159325       3.67594617       0.00000000      -0.00040874       0.00048243       0.00011204
C        6.10321434       2.13266710       3.53459239       0.00000000       0.00018519       0.00267328       0.00182326
C        4.89693590       4.24573087       3.35524318       0.00000000       0.00528840      -0.00392471       0.00396261
O        4.35805062       6.07347242       1.88471752       0.00000000       0.00454273      -0.00859909      -0.00839808
C        2.36228445       8.59805848       3.92098015       0.00000000      -0.00183210       0.00506377      -0.00277370
C        9.79725943       0.01705512       3.80016138       0.00000000      -0.00049732      -0.00370670      -0.00271057
C        8.57983790       2.14976098       3.66557796       0.00000000      -0.00269516       0.00300730      -0.00180273
C        7.35718547       4.27481006       3.52086450       0.00000000       0.00252427       0.00097153      -0.00125332
C        6.11003723       6.39999262       3.49951019       0.00000000       0.00684270       0.00078442       0.00558323
C        4.78649474       8.49182667       3.90682817       0.00000000       0.00215281      -0.00274753      -0.00175441
C       -0.06600805       1.43135931       3.82299532       0.00000000      -0.00061687       0.00290270       0.00529947
C       -1.27061598       3.58813570       3.84822496       0.00000000       0.00129901       0.00147437      -0.00683761
C       -2.52475331       5.71259360       3.78505521       0.00000000       0.00243366      -0.00448424       0.00232077
C       -3.80227255       7.83592936       3.74224682       0.00000000      -0.00046806      -0.00543418       0.00183552
C       -5.03619625       9.96032142       3.78011391       0.00000000      -0.00427270       0.00528220       0.00402681
C        2.38741722       1.42764139       3.70412075       0.00000000       0.00475925      -0.00340457       0.00627140
C        1.21144329       3.59597899       3.90199712       0.00000000       0.00198478       0.00271734       0.00571597
C       -0.04833530       5.73554863       4.00008873       0.00000000      -0.00700640       0.00592806       0.00286422
C       -1.33408537       7.85374387       3.80001445       0.00000000      -0.00433274       0.00136380      -0.00702413
C       -2.56408745       9.97967437       3.68894880       0.00000000      -0.00402885      -0.00325577       0.00044692
C        4.85736160       1.43140536       3.55937675       0.00000000      -0.00125621       0.00211874      -0.00224817
C        3.65382952       3.56858100       3.56124155       0.00000000       0.00495493       0.00136719      -0.00508500
C        1.11634997       7.90694670       3.92853120       0.00000000      -0.00344427       0.00655567       0.01817410
C       -0.09242287       9.99847921       3.67741438       0.00000000      -0.00081109      -0.00168095       0.00180089
C        7.33629432       1.43810164       3.61353592       0.00000000      -0.00190413       0.00163578      -0.00083553
C        6.11441581       3.55809995       3.44519407       0.00000000       0.00630676       0.00145334       0.00318295
C        4.98436761       5.65121613       2.86445330       0.00000000       0.00744027      -0.00742759      -0.00924268
C        3.52829925       7.84692808       4.10776269       0.00000000      -0.00331768      -0.00949701      -0.00366896
C        2.38659618      10.01258543       3.77462564       0.00000000      -0.00070039       0.00154408       0.00446255
C        9.81256207       1.44529608       3.75982850       0.00000000      -0.00509487      -0.00175052      -0.00387888
C        8.58793424       3.57427792       3.64538276       0.00000000      -0.00116818       0.00128879       0.00450153
C        7.33809524       5.70057561       3.57154471       0.00000000       0.00650847      -0.00370755       0.00531846
C        6.04700997       7.79380955       3.73974590       0.00000000       0.00784977       0.00392805       0.00011825
C        4.83505428       9.94754658       3.85797611       0.00000000      -0.00241253      -0.00317024       0.00403413
Ir       2.87132300       6.00612177       4.75788164       0.00000000       0.00043436      -0.01260291       0.00410829
O        3.50898492       5.94194884       6.61289673       1.00000000       0.00149092       0.00188498      -0.00093546
O        4.68033641       5.56548927       6.14299609       1.00000000      -0.00703722      -0.00274838       0.00465328
