52
Lattice="12.336457 0.0 0.0 -6.168228499999997 10.683685154694365 0.0 0.0 0.0 15.0" Properties=species:S:1:pos:R:3:forces:R:3 energy=-446.01509881967513 free_energy=-446.01509881967513 stress="-0.007958121106220857 -0.005092296874154933 1.0296736547580904e-07 -0.005092296874154933 -0.002572687563170242 -2.2887439907139215e-05 1.0296736547580904e-07 -2.2887439907139215e-05 2.9068620352150063e-06" pbc="T T T"
C        0.08344322       0.06077059       3.97807545      -0.00270054      -0.00034814       0.00180502
C       -1.19807790       2.16105476       3.85347402      -0.00232991      -0.00543085      -0.00862609
C       -2.40751479       4.32486920       3.87564244      -0.00123104       0.00614050       0.00550965
C       -3.57256506       6.48568268       4.01045578       0.00796944      -0.00251494      -0.00193142
C       -4.80468922       8.63975031       4.07043645      -0.00154948       0.00616968      -0.00043971
C        2.54703285       0.09273336       3.81259458       0.00444714      -0.00429563      -0.00253556
C        1.23176803       2.15467077       3.58256895      -0.00269912       0.00442552      -0.00308417
C       -0.07799881       4.24360940       3.34457312      -0.00514169       0.00290364      -0.01431329
C       -1.15571965       6.44449000       3.57647756       0.00270916       0.00102610      -0.00027685
C       -2.35061045       8.61109952       3.81764352       0.00012958      -0.00761097      -0.00166128
C        5.01202947       0.07529455       3.77004734       0.00758495       0.00232173      -0.00031525
C        3.75793743       2.18592805       3.51548055       0.00140794      -0.00444090       0.00797666
S        1.44060708       6.41716809       2.68679826      -0.01126084      -0.00361254       0.01205942
C        0.09826910       8.60460478       3.65255562      -0.00159469      -0.00698302       0.00108164
C        7.47201940       0.05948981       3.91463564       0.00510512      -0.00513124      -0.01127212
C        6.23546121       2.21676590       3.82628344       0.00002824       0.00526609      -0.00507118
C        5.15563554       4.44563356       3.73301589      -0.00921090      -0.01014120       0.00326969
C        3.90353894       6.50714729       4.09176353      -0.00932543       0.00232195      -0.00398885
C        2.55952403       8.59969452       3.90055539       0.00575189      -0.00176666       0.01466288
C        9.93919553       0.04651233       4.04670619       0.00552033      -0.00697311       0.00543604
C        8.69340633       2.19134097       4.00019958       0.00142891       0.00084885       0.00139233
C        7.51227673       4.35337039       4.05477112      -0.00500459       0.00114521       0.00137112
C        6.34414648       6.52455856       4.16986874      -0.00107890      -0.00329077       0.00542208
C        5.05009710       8.61997607       4.13867118       0.00337637       0.00192055      -0.00914565
C        0.04999967       1.47227139       3.81254548      -0.00320329      -0.00758217      -0.00198880
C       -1.22626895       3.56587729       3.69927878      -0.00352615       0.00133671       0.00374520
C       -2.37173584       5.74693908       3.83589882       0.00771257       0.00302585      -0.00580479
C       -3.57709732       7.91322749       3.97766170      -0.00642267      -0.00405104       0.00123755
C       -4.83612684      10.05928811       3.96775676      -0.00002697       0.00499188      -0.00580896
C        2.50600970       1.51796604       3.62869316      -0.00229412       0.00042338       0.00732098
O        1.12007191       3.51838953       3.34068652       0.00329482       0.00717556       0.00271619
C       -0.03983650       5.64391545       3.24916608      -0.00613891       0.00378145       0.00007432
C       -1.12894257       7.88363146       3.65463640      -0.00021783      -0.00830782      -0.00275557
C       -2.37993686      10.05049934       3.79830539       0.01008079      -0.00537389       0.00034332
C        4.99305740       1.51802138       3.70681931       0.00430931       0.00400389      -0.00106174
S        3.76032513       3.82597940       2.95323348      -0.00054341       0.00554193       0.00174579
C        1.36029335       7.94827785       3.54345885       0.00604421       0.00453976       0.00502908
C        0.08126329      10.03600089       3.79691821       0.00117132      -0.00442851      -0.00464903
C        7.45534584       1.49177010       3.94198599      -0.00008986       0.00123411      -0.00842048
C        6.28413770       3.64315599       3.89748510      -0.00358793      -0.00320423       0.00715217
C        5.13098628       5.81710376       4.02948124      -0.00840123      -0.00443372      -0.00200742
C        3.81440344       7.89754708       4.05638350       0.00423191       0.00360144       0.00393473
C        2.53865814      10.02646245       3.99156452       0.00645544      -0.00417824       0.00728302
C        9.92710460       1.46771942       3.99431733       0.00306885      -0.00814209       0.00071213
C        8.71187161       3.61725040       4.01418541      -0.00215397       0.00614836       0.00261641
C        7.54303728       5.77920231       4.11454900       0.00376894       0.00298419      -0.00433679
C        6.30568608       7.93911257       4.17403621       0.00344781       0.00583707      -0.00345286
C        5.02098505      10.03313786       4.07593721       0.00262465      -0.00077662       0.00153580
Ir       2.46436425       5.28146667       4.26496638      -0.00391938       0.00828504      -0.00712815
O        2.34141750       4.11885357       5.78842326      -0.00397176       0.00449666       0.00622418
O        0.93649259       3.89479147       6.08917872      -0.00395800      -0.00253632      -0.00655507
H        1.03415881       3.48689201       6.97822245      -0.00008705       0.01365754       0.00497367
