51
Lattice="12.336457 0.0 0.0 -6.168228499999997 10.683685154694365 0.0 0.0 0.0 15.0" Properties=species:S:1:pos:R:3:initial_magmoms:R:1:forces:R:3 energy=-441.96160296963865 free_energy=-441.96160296963865 stress="-0.007071501797038343 -0.005572417652267451 -9.317088486198224e-06 -0.005572417652267451 -0.0022154988012644166 1.1269856521195336e-05 -9.317088486198224e-06 1.1269856521195336e-05 -2.12420063098684e-05" pbc="T T T"
C        0.04515188       0.02903493       3.83107230       0.00000000      -0.00437274      -0.00034026      -0.00511044
C       -1.24147804       2.12683271       3.64373237       0.00000000      -0.00113281      -0.00301633      -0.00430544
C       -2.44928004       4.29161666       3.66565211       0.00000000      -0.00174207      -0.00868560      -0.00471242
C       -3.61123574       6.45300882       3.85758499       0.00000000       0.01216124       0.00396737       0.00827005
C       -4.83907469       8.60823389       3.94865824       0.00000000      -0.00565293       0.00295018      -0.00302962
C        2.50810379       0.05602014       3.66432126       0.00000000       0.00274281      -0.00577451       0.00542313
C        1.18724629       2.12581942       3.39281614       0.00000000      -0.00013851      -0.00070461       0.00197426
C       -0.11390947       4.19605110       3.11824187       0.00000000      -0.00015435       0.00897932      -0.00537322
C       -1.19127014       6.40717305       3.39847205       0.00000000       0.00539380       0.00382573       0.00193719
C       -2.38504337       8.57533846       3.67123114       0.00000000       0.00022959      -0.00326223      -0.00589997
C        4.97629785       0.04232423       3.69373330       0.00000000      -0.00528603      -0.00588925      -0.00092586
C        3.71058352       2.15334020       3.52953097       0.00000000      -0.00613590      -0.00230665      -0.00572704
S        1.46413749       6.35619923       2.80202474       0.00000000      -0.00771061       0.00629190      -0.00010556
C        0.06535926       8.56955816       3.59797991       0.00000000       0.00156322       0.00731525      -0.00592958
C        7.43417376       0.02854004       3.86544547       0.00000000      -0.00090191       0.00847029      -0.00216613
C        6.19278854       2.18775538       3.82148827       0.00000000       0.00024007      -0.00105972      -0.00393318
C        5.11518203       4.42014821       3.89201599       0.00000000      -0.00196813      -0.00320039       0.01073165
C        3.86483526       6.48318008       4.22771906       0.00000000      -0.00060074       0.00143429      -0.01249141
C        2.52582202       8.57507981       3.92985727       0.00000000       0.00162891      -0.00499829       0.00930850
C        9.90584263       0.02054721       3.96155353       0.00000000      -0.00755124      -0.00565798      -0.00639899
C        8.65547051       2.16181161       3.87975899       0.00000000       0.00795907      -0.00055030       0.01244588
C        7.48240610       4.32532840       3.99785274       0.00000000      -0.00269682      -0.00102166      -0.01060860
C        6.31929211       6.50199426       4.18208572       0.00000000      -0.00614469      -0.00985081       0.00610036
C        5.01828352       8.59439196       4.11463108       0.00000000       0.00731024       0.00254374      -0.00184836
C        0.00716442       1.43521389       3.61452596       0.00000000      -0.00175616       0.00293845       0.00447296
C       -1.27104925       3.53064011       3.45868445       0.00000000       0.00521049      -0.00099144      -0.00414850
C       -2.41695819       5.71334331       3.63613209       0.00000000       0.01350570      -0.00574131       0.00932853
C       -3.61370505       7.87997904       3.82941860       0.00000000      -0.00178630       0.00478688      -0.00470197
C       -4.87528797      10.02415766       3.81802537       0.00000000      -0.00208256       0.00157860       0.00384026
C        2.46063838       1.47919623       3.51095582       0.00000000      -0.00325450      -0.00499935       0.00571754
O        1.07975993       3.46998323       3.10035666       0.00000000       0.00811920       0.01245605      -0.00911245
C       -0.07851568       5.60411478       3.08427827       0.00000000      -0.00044736       0.01097851      -0.01459500
C       -1.15987360       7.84693124       3.52741859       0.00000000       0.00304105       0.00279049      -0.00224102
C       -2.41407333      10.01566208       3.67127096       0.00000000      -0.00060281      -0.00892841       0.00383241
C        4.95288421       1.48718544       3.68885181       0.00000000      -0.00621311      -0.00455627       0.00681019
S        3.68303451       3.83674615       3.18273850       0.00000000      -0.00394771       0.00175664       0.00837341
C        1.33138435       7.91524533       3.56923297       0.00000000       0.00007399       0.00404213       0.00083069
C        0.04547750      10.00309148       3.73840838       0.00000000      -0.00102984       0.00492179       0.00510232
C        7.41633703       1.46122225       3.88206688       0.00000000       0.00569107       0.00810003      -0.00586113
C        6.24948922       3.61130990       3.94110153       0.00000000      -0.00166086       0.00024238      -0.00947075
C        5.09965830       5.79632318       4.15723204       0.00000000      -0.01120033      -0.00535365       0.01228248
C        3.78109280       7.87418035       4.10779688       0.00000000       0.00711672      -0.00192819       0.00919628
C        2.50396772      10.00153927       3.96070438       0.00000000      -0.00595464      -0.00345548      -0.00705337
C        9.88882589       1.43808034       3.84796188       0.00000000      -0.00045526      -0.00555553       0.00145539
C        8.67576321       3.58778529       3.87155360       0.00000000      -0.00047706      -0.00539859       0.01339674
C        7.51168096       5.75092328       4.04459413       0.00000000      -0.00046823      -0.00049873      -0.00501463
C        6.27752503       7.91469580       4.12813922       0.00000000       0.00074892      -0.00463085      -0.01087986
C        4.98656077      10.00569670       3.98705164       0.00000000      -0.00459909      -0.00002570      -0.00082903
Ir       2.43884493       5.28941571       4.48998954       0.00000000       0.00642852       0.00247932      -0.00725364
O        0.79007717       4.27783425       5.71942338       1.00000000       0.01360965       0.00519658       0.00490311
O        1.94445894       3.65500668       5.72483479       1.00000000      -0.00464892       0.00033615       0.01399388
