52
Lattice="12.336457 0.0 0.0 -6.168228499999997 10.683685154694365 0.0 0.0 0.0 15.0" Properties=species:S:1:pos:R:3:forces:R:3 energy=-455.35245286978767 free_energy=-455.35245286978767 stress="-0.004727935313128145 -0.0021135634373569134 -2.025875060637775e-05 -0.0021135634373569134 0.008485696980235588 8.86419946229866e-06 -2.025875060637775e-05 8.86419946229866e-06 1.0477819814702255e-05" pbc="T T T"
C       -0.06018525      -0.05134768       3.75059263      -0.00161342       0.00018163       0.00442894
C       -1.32754914       2.04000162       3.73198486      -0.00061632      -0.00174165       0.00467492
C       -2.56426626       4.19030220       3.64761323      -0.00179910       0.00585596      -0.00999747
C       -3.76644839       6.35090260       3.61812898      -0.00057648       0.00170159      -0.01068729
C       -4.98626833       8.50870339       3.66674463       0.00169287      -0.00206582       0.00306605
C        2.40888719       0.00458716       3.82185227      -0.00437972       0.00004909      -0.00251340
C        1.13515403       2.12311122       3.92680360       0.00921179      -0.00136388       0.01102355
C       -0.15977454       4.17429768       3.86829225      -0.00345223       0.00436310      -0.00567248
C       -1.33850378       6.34491160       3.76869968      -0.00558135      -0.00514218      -0.00397646
C       -2.53257543       8.50627973       3.76075801      -0.00302374       0.00005177       0.00125529
C        4.87435317      -0.05529369       3.81535098      -0.00747263       0.00153191       0.00667896
C        3.65492193       2.15593432       3.87824079       0.00290230      -0.00107318       0.00660223
C        1.07665184       6.25014742       4.12224862       0.01248654       0.00258902       0.00727268
C       -0.05123241       8.43628091       3.87248200      -0.00538345       0.00464633      -0.00128288
C        7.34561308      -0.12005444       3.77785947       0.00780132       0.00456726      -0.00111049
C        6.10840203       2.05678929       3.68958686      -0.00470352      -0.00101068      -0.00234400
C        4.90659234       4.22541428       3.61046985       0.00021541       0.00266752       0.00075248
O        3.77798362       6.36308064       3.68971084      -0.01433098      -0.00010295      -0.00044941
C        2.43673499       8.37934584       3.83462862       0.00062305       0.00029932       0.00279178
C        9.79590681      -0.11723303       3.73317916      -0.00484717      -0.00285726       0.00023606
C        8.55782632       2.03643999       3.65710303       0.00112649       0.00687711       0.00062300
C        7.33455210       4.20054042       3.55228011       0.00631643      -0.00797368      -0.00367787
C        6.13241311       6.35921121       3.52482936       0.00783848      -0.01017261       0.00065683
C        4.89176834       8.46754098       3.66521193       0.00217878       0.00053295       0.00907993
C       -0.07763074       1.37323278       3.79937971       0.00573992       0.00042812       0.00860514
C       -1.35311332       3.45538753       3.71914583      -0.00474779       0.00195571      -0.00760869
C       -2.55224602       5.62364534       3.66687769      -0.00672647       0.00074868      -0.01574390
C       -3.75552063       7.78731598       3.67441375      -0.00063016      -0.00051959       0.00833017
C       -4.98336044       9.94712980       3.75282825      -0.00249646      -0.00030940      -0.00543388
C        2.40243944       1.44999827       3.89904470       0.00611887      -0.00193985      -0.00083832
N        1.01387160       3.50088884       4.07873812      -0.00206833      -0.00012128       0.00029329
C       -0.13155438       5.59793998       3.90313314       0.00421879       0.00626634      -0.00614577
C       -1.30669595       7.76991607       3.80537747      -0.00589615      -0.00314316      -0.00603060
C       -2.53331149       9.94133163       3.80710682      -0.00764296      -0.00017164       0.00386729
C        4.87035118       1.38130016       3.79349245      -0.00529986      -0.00171703      -0.00149514
N        3.74328762       3.54584209       3.93730733      -0.00068281      -0.00211129      -0.00231164
C        1.18089204       7.66064941       3.95380320      -0.00129058       0.00460478      -0.00254947
C       -0.05974318       9.87142208       3.82365228       0.00123481       0.00991521       0.00338031
C        7.33422985       1.31763284       3.69911904       0.00147992       0.00726298       0.00766027
C        6.11435349       3.48181368       3.57840891       0.00167822      -0.00238609      -0.00176506
C        4.94915509       5.63827884       3.52139699      -0.00430981       0.00141586       0.00279928
C        3.69266014       7.74925149       3.71109111      -0.00073973       0.00181775       0.00728020
C        2.40946884       9.82191131       3.78131291       0.00271299      -0.00527455      -0.00731800
C        9.78614744       1.31686612       3.70046327      -0.00357891      -0.00154872      -0.00030288
C        8.55445085       3.47045590       3.60405351       0.00507150       0.00269763      -0.00287036
C        7.34928486       5.62853990       3.54576648       0.01011763      -0.00956017      -0.00867765
C        6.13444306       7.78742255       3.59920998       0.00437288      -0.00577679       0.00694694
C        4.87549317       9.89334468       3.71563906      -0.00367295       0.00231378       0.00557897
Ir       2.33373596       4.80200788       4.68094248       0.00539626       0.00090724       0.00457432
O        3.49271905       5.11078697       6.12632964      -0.00353530       0.01017176       0.00060726
O        3.66974150       6.53292768       6.41813700      -0.00415131      -0.01704351       0.00273226
H        3.88106868       6.47149309       7.37774923       0.01471441      -0.00129344      -0.01099529
