51
Lattice="12.336457 0.0 0.0 -6.168228499999997 10.683685154694365 0.0 0.0 0.0 15.0" Properties=species:S:1:pos:R:3:initial_magmoms:R:1:forces:R:3 energy=-442.3765055640946 free_energy=-442.3765055640946 stress="-0.0038522414506997073 -0.0003212938937361773 -6.54811604669153e-06 -0.0003212938937361773 -0.0028708927731823644 -2.799385627414205e-05 -6.54811604669153e-06 -2.799385627414205e-05 7.072620699822387e-06" pbc="T T T"
C        0.04892700      -0.01988977       3.77626976       0.00000000       0.01397495      -0.00058087      -0.00719627
C       -1.19081145       2.11376113       3.53054345       0.00000000       0.00286440       0.00140590      -0.00344090
C       -2.45708239       4.25615069       3.50606809       0.00000000       0.00154955      -0.00095054      -0.00121572
C       -3.65519537       6.39791995       3.70925635       0.00000000       0.00067716      -0.00580968       0.00288223
C       -4.87439656       8.53357525       3.82373103       0.00000000      -0.00565227      -0.00033651       0.00329978
C        2.52204416      -0.03950086       3.86001791       0.00000000       0.00722309       0.00506300       0.00102107
C        1.30512588       2.06033410       3.58632193       0.00000000      -0.00511574      -0.00730850       0.00301050
C       -0.13627149       4.27192056       2.86331179       0.00000000       0.00428184       0.00701559      -0.00646919
C       -1.25812842       6.42022516       3.21098370       0.00000000      -0.00412635       0.00301551       0.00078002
C       -2.40863871       8.52954187       3.66164837       0.00000000      -0.00660399      -0.00281253      -0.00314944
C        4.99397981      -0.02711752       3.90064075       0.00000000      -0.00394340      -0.00167749       0.00075396
C        3.73688934       2.05317773       4.24674939       0.00000000      -0.00210273      -0.00683133      -0.00129873
P        1.48715842       6.36965222       2.44859249       0.00000000       0.00060169      -0.00652145       0.00138507
C        0.05176764       8.54185578       3.51129290       0.00000000       0.00387303       0.00215869       0.00759172
C        7.45603356      -0.01644593       3.86148993       0.00000000      -0.00522257      -0.00298626      -0.00281145
C        6.23356493       2.11382230       4.14804108       0.00000000      -0.00074692       0.00449035      -0.00164703
C        5.09959214       4.31785673       4.46903189       0.00000000      -0.00213347      -0.00414803      -0.00292126
C        3.79827824       6.39736251       4.15886844       0.00000000      -0.00414508      -0.00495181      -0.00516375
C        2.52207403       8.53304867       3.74161839       0.00000000       0.00357188       0.00521728      -0.00319029
C        9.92501684      -0.01561001       3.82037414       0.00000000       0.00088942      -0.00209791       0.00883495
C        8.68850931       2.12176685       3.83494586       0.00000000      -0.00030603      -0.00244318      -0.00212854
C        7.47167278       4.26414415       3.98164540       0.00000000       0.00131380      -0.00137249      -0.00341147
C        6.25755173       6.41859204       4.02977652       0.00000000       0.00131465      -0.00426281       0.00628864
C        4.98960482       8.52596475       3.91526604       0.00000000      -0.00791309       0.00662969       0.00391752
C        0.04993978       1.40725432       3.61655046       0.00000000       0.00044182      -0.00313023      -0.00508860
C       -1.24532240       3.52106041       3.28665380       0.00000000       0.00485579       0.00400858      -0.00352396
C       -2.45543200       5.68444353       3.47349533       0.00000000      -0.00241714      -0.00183806      -0.01029464
C       -3.64645535       7.82183835       3.72695757       0.00000000      -0.00771373      -0.00597300       0.00306561
C       -4.88397631       9.95161315       3.81039088       0.00000000       0.01269603       0.00239261       0.00674054
C        2.51800927       1.37881301       3.93309532       0.00000000      -0.00369646       0.00010533       0.00420321
S        1.46846949       3.59349825       2.80045378       0.00000000       0.00084431      -0.01347610       0.00271507
C       -0.13538866       5.67403295       2.78555419       0.00000000      -0.00044681       0.00830343       0.00150904
C       -1.19359970       7.83177727       3.44160318       0.00000000      -0.00157210       0.00135574       0.00090733
C       -2.40568359       9.94445718       3.82128877       0.00000000      -0.00142928      -0.00102754      -0.00041731
C        4.99083517       1.39344065       4.13052560       0.00000000      -0.00135628      -0.00356153       0.01032829
P        3.63772680       3.59871669       5.13635791       0.00000000       0.00592101       0.00680278      -0.00062720
C        1.30698075       7.88870808       3.39122685       0.00000000       0.00581776       0.00623993       0.00425234
C        0.05421775       9.95339839       3.77436985       0.00000000      -0.00409121      -0.00040690       0.00669135
C        7.45670086       1.40914429       3.96548037       0.00000000      -0.00365451      -0.00131160      -0.00271761
C        6.26005021       3.54776927       4.22791259       0.00000000       0.00139779       0.00208407       0.00056080
C        5.04248978       5.71650439       4.25129591       0.00000000       0.00016089      -0.00401918       0.00383025
C        3.75233091       7.80093031       3.93192244       0.00000000      -0.00428301       0.00093049      -0.00191869
C        2.52359322       9.95718734       3.82924933       0.00000000      -0.00250806       0.00083039       0.00011431
C        9.92700557       1.41166060       3.73402549       0.00000000       0.00270438      -0.00307778      -0.00162060
C        8.67995409       3.54714816       3.78530994       0.00000000       0.00067018      -0.00159221      -0.00209370
C        7.46828057       5.68805925       3.91847924       0.00000000       0.00365682      -0.00438515      -0.00108345
C        6.23337556       7.83056432       3.92080321       0.00000000      -0.01014801       0.00026415      -0.00216384
C        4.98648919       9.94919386       3.83145237       0.00000000       0.00731273       0.00702765       0.00266306
Ir       2.23517864       5.22025387       4.30952765       0.00000000      -0.00750433      -0.00045315      -0.00520791
O        0.50966247       4.82430738       5.90626112       1.00000000       0.00030408       0.01166085      -0.00264076
O        1.28721059       5.87401636       6.01216462       1.00000000       0.00991352       0.01234183      -0.00390434
