52
Lattice="12.336457 0.0 0.0 -6.168228499999997 10.683685154694365 0.0 0.0 0.0 15.0" Properties=species:S:1:pos:R:3:forces:R:3 energy=-443.12203913234544 free_energy=-443.12203913234544 stress="-0.0058998662278673284 0.001137569821851704 -7.901076722013858e-06 0.001137569821851704 -0.00033483836684390384 -2.989383072575203e-06 -7.901076722013858e-06 -2.989383072575203e-06 2.547242453942977e-05" pbc="T T T"
C        0.01718843      -0.03106266       3.90942914      -0.00295395      -0.00150531       0.00455933
C       -1.21790620       2.10702516       3.98364603      -0.00084887      -0.00398009      -0.00013237
C       -2.46953033       4.24858193       4.26723335      -0.00468634       0.00131528      -0.00836717
C       -3.69495212       6.39286821       4.19756203       0.00187503      -0.00224125      -0.00350946
C       -4.92845100       8.52095522       3.97887150       0.00137477       0.00587671       0.00033418
C        2.48473815      -0.02435643       3.90671863      -0.00058197       0.00136143       0.00175849
C        1.24407403       2.05799406       3.53969861      -0.00053086      -0.00507495      -0.00328513
C       -0.12179223       4.33062718       3.86077647      -0.00050485      -0.00127210       0.00686713
C       -1.26540981       6.41998913       4.29855051       0.00280999      -0.00150291       0.00163516
C       -2.46549519       8.53928726       4.18323481      -0.00460866       0.00170163       0.00330602
C        4.95756045      -0.03508578       3.94803938       0.00134535       0.00075736       0.00043430
C        3.74547625       2.02727472       3.39083634      -0.00440702      -0.00084904      -0.00564997
N        1.13393982       6.37618786       3.94392746       0.00588515       0.00336556      -0.00142848
C        0.01234020       8.49757066       4.09227491      -0.00559673      -0.00637796      -0.00368620
C        7.42640500      -0.05915713       4.00478529       0.00229884       0.00160895       0.00103089
C        6.22069007       2.08333024       3.73706362      -0.00047273      -0.00060347      -0.00274336
C        5.25245363       4.26041836       3.02087471       0.00101142      -0.00214549       0.00272225
S        3.73974104       6.41553917       2.44218553       0.00046553      -0.00063911       0.00066593
C        2.48374953       8.46812630       3.80090729       0.00283752       0.00292075      -0.00169707
C        9.88594389      -0.05422017       3.97299411      -0.00159408       0.00391656       0.00144289
C        8.65985416       2.09101149       4.07918617       0.00194602       0.00488002      -0.00108877
C        7.45888808       4.23896281       3.94115728      -0.00034750      -0.00430168       0.00268253
C        6.27624105       6.39707330       3.58672898      -0.00338546      -0.00108510       0.00263456
C        4.95345791       8.50899428       3.69371305       0.00228935       0.00373554       0.00508040
C        0.02010717       1.40475558       3.83245200       0.00092696      -0.00393936       0.00447214
C       -1.24729474       3.53550024       4.09736650      -0.00413271      -0.00156366       0.00529839
C       -2.47563468       5.67747354       4.31689794       0.00251388      -0.00142797      -0.00841334
C       -3.69626107       7.81860565       4.14567106      -0.00278577       0.00253761       0.00651551
C       -4.91934322       9.95032292       3.95101724      -0.00201763       0.00528968       0.00010148
C        2.49086812       1.38588295       3.61168935      -0.00163273      -0.00061469       0.00566695
S        1.14023657       3.67469494       2.88350626       0.00603045       0.00728446      -0.01576894
C       -0.06049092       5.72109033       4.07647615       0.00337543       0.00212588      -0.00339421
C       -1.23576926       7.83070692       4.23406263      -0.00789588      -0.00336861       0.00093320
C       -2.45225849       9.95648425       4.02800508      -0.00035359       0.00169569       0.00180718
C        4.97173614       1.38090862       3.68788040      -0.00289807       0.00284412       0.00236797
S        3.79737660       3.49851817       2.43545358       0.00129955      -0.01033885       0.00246285
C        1.22616356       7.74254221       3.93861205       0.00065419       0.00322827      -0.00062361
C        0.02122000       9.92354183       4.02763643       0.00208894      -0.00513248      -0.00195269
C        7.42611458       1.37432318       3.96856496       0.00369717       0.00449952      -0.00344360
C        6.29293110       3.50298346       3.57882539      -0.00211103      -0.00051372       0.00691418
C        5.23240762       5.65009830       3.01986231      -0.00665932      -0.00046389       0.00464786
C        3.71215253       7.85241079       3.45597308       0.00435977       0.00271267       0.00592812
C        2.48608744       9.89980148       3.96475337       0.00156087       0.00286478      -0.00536072
C        9.89657429       1.38191847       4.05167203      -0.00074414       0.00094133       0.00122306
C        8.65779926       3.51870680       4.15426868      -0.00172679       0.00058102      -0.00256439
C        7.45062732       5.66866369       3.94867634       0.00257797      -0.00538336      -0.00660390
C        6.20114685       7.81305842       3.74431277       0.00426444       0.00320466      -0.00401297
C        4.95057751       9.93040340       3.89270848      -0.00252226       0.00176268       0.00558038
Ir       2.69154368       4.97418548       3.86200154      -0.00109953       0.00121249       0.01123225
O        3.11228293       5.61917250       5.63942667       0.00534899      -0.01749789      -0.00511431
O        1.89738273       5.44280626       6.44483864       0.00272917      -0.00051133      -0.00301428
H        2.30416169       5.10751997       7.27499431       0.00153167       0.00810963      -0.00845063
