52
Lattice="12.336457 0.0 0.0 -6.168228499999997 10.683685154694365 0.0 0.0 0.0 15.0" Properties=species:S:1:pos:R:3:forces:R:3 energy=-451.14760466221037 free_energy=-451.14760466221037 stress="-0.007890984305888893 0.000123750330971059 -2.1265072986674373e-06 0.000123750330971059 0.0068990956162464645 -2.7401926770074696e-06 -2.1265072986674373e-06 -2.7401926770074696e-06 1.8952164568073586e-05" pbc="T T T"
C        0.03030320       0.06907656       3.75748741      -0.00391703       0.00013716      -0.00068827
C       -1.23259835       2.15867852       3.66725266       0.00415832      -0.00015198      -0.00252442
C       -2.47044489       4.31240157       3.64673693      -0.00151623      -0.00027315      -0.00633769
C       -3.68126936       6.46925822       3.74517610       0.00305150      -0.00053327       0.00351122
C       -4.90266460       8.62682359       3.80906483      -0.00041172       0.00105439      -0.00363552
C        2.49893211       0.12965006       3.76900041      -0.00547371      -0.00075928      -0.00267719
C        1.22928774       2.26391135       3.70498683       0.00256221      -0.00009780       0.00233795
C       -0.06739529       4.31111344       3.56193210       0.00117657       0.00449438      -0.00523405
C       -1.26353103       6.47857281       3.58541589       0.00428483       0.00008798       0.00564205
C       -2.45379228       8.62707193       3.71446755       0.00143117      -0.00182702       0.00566246
C        4.96670511       0.05048804       3.77482588      -0.00047855      -0.00146737       0.00941756
C        3.77201738       2.19766379       3.86560079      -0.00138938       0.00205611      -0.00452136
N        1.12118944       6.40971273       3.67695778      -0.00066900      -0.00057507       0.00580240
C        0.02007641       8.55826081       3.69593346      -0.00123179      -0.00408361       0.00405805
C        7.44240938      -0.01302620       3.77372422       0.00055295       0.00291325       0.00861991
C        6.22208381       2.15585553       3.87726731      -0.00163474       0.00104906       0.00496837
C        5.07795988       4.32353173       4.08146232       0.00042781      -0.00308790      -0.00841867
O        3.86714791       6.47185235       4.17696978       0.00302194      -0.00106707       0.00164172
C        2.50852953       8.47283080       3.78034320      -0.00136866      -0.00682455       0.00645576
C        9.88817880      -0.00814321       3.75580676      -0.00205194       0.00040618       0.00217010
C        8.66082340       2.14996113       3.75567101       0.00151663      -0.00183155       0.00501139
C        7.44563677       4.31391705       3.85203252      -0.00088238      -0.00116244      -0.00649560
C        6.23734088       6.47304310       3.94798583      -0.00189107       0.00162069       0.00019358
C        4.97291763       8.57548027       3.84732860       0.00251174       0.00678081       0.00465056
C        0.02120795       1.49870692       3.70000455       0.00266367      -0.00175859       0.00561159
C       -1.26196817       3.57701542       3.59329082       0.00154441       0.00269345      -0.00123467
C       -2.47166060       5.74277580       3.64404927       0.00384105      -0.00057525      -0.00291465
C       -3.67696601       7.90584514       3.75503826       0.00184604       0.00035061       0.00120977
C       -4.89417996      10.06922129       3.77978996      -0.00532663      -0.00035474      -0.00298990
C        2.50880631       1.58434384       3.77626959       0.00080503      -0.00065422       0.00463817
N        1.12181131       3.64793568       3.71013216       0.00155067       0.00175419      -0.00176244
C       -0.07090615       5.74369740       3.55473966       0.00318882       0.00260484      -0.00339205
C       -1.23358723       7.89800517       3.65821552       0.00165156      -0.00237541      -0.00078355
C       -2.44930558      10.06460819       3.75485986      -0.00325031      -0.00053720      -0.00501330
C        4.97487244       1.47948261       3.84554638      -0.00085837       0.00098311      -0.00563151
O        3.87252053       3.57575784       4.19381454      -0.01014453       0.00140486      -0.00820777
C        1.22862625       7.79351419       3.70576855      -0.00457474      -0.00449534      -0.00460783
C        0.03011057       9.98746061       3.75160083       0.00157633      -0.00293748       0.00639673
C        7.43500228       1.42852944       3.80597378      -0.00130584       0.00383114      -0.00424050
C        6.23922466       3.58030038       3.94593217       0.00063349      -0.00103129       0.00518787
C        5.07789024       5.72755305       4.07948272       0.00174104      -0.00396397       0.00449675
C        3.76886120       7.85821872       3.87428849       0.00337994       0.00266566       0.00224858
C        2.49968388       9.92798787       3.76777966      -0.00065465      -0.00379831      -0.00475010
C        9.88405767       1.42936465       3.71923137       0.00215695       0.00089616      -0.00159309
C        8.65673814       3.58596179       3.74631680      -0.00086946      -0.00384627       0.00149972
C        7.44510123       5.74027515       3.85328943      -0.00227833      -0.00121820      -0.01117111
C        6.22073806       7.89903271       3.87908327       0.00029267       0.00314765       0.00116592
C        4.96648832      10.00546316       3.77783823      -0.00222803       0.00476821       0.00812984
Ir       2.43301644       5.02959237       3.81106073      -0.00021505      -0.00055348      -0.00245420
O        2.10156698       5.05162202       5.69756088       0.00218741       0.00774410       0.00138674
O        2.08439661       3.70270849       6.26579148      -0.00319464       0.00312424      -0.00024352
H        2.34373425       3.91693328       7.18736465       0.00406203      -0.00472646      -0.01059179
