52
Lattice="12.336457 0.0 0.0 -6.168228499999997 10.683685154694365 0.0 0.0 0.0 15.0" Properties=species:S:1:pos:R:3:forces:R:3 energy=-451.22033103678547 free_energy=-451.22033103678547 stress="-0.01108625961548558 5.606100430618272e-06 -5.166345075476885e-06 5.606100430618272e-06 0.0035081101838730765 -8.913570931425193e-06 -5.166345075476885e-06 -8.913570931425193e-06 -5.745817983574868e-06" pbc="T T T"
C        0.01542035      -0.03573475       3.78786300      -0.00035520      -0.00053919      -0.00197458
C       -1.24348356       2.06225000       3.80431216       0.00182722      -0.00174811      -0.00543429
C       -2.47163658       4.22003317       3.81822638       0.01289412       0.00139038      -0.01055873
C       -3.68364683       6.37521187       3.81893048       0.00154140      -0.00170577      -0.00580541
C       -4.91082936       8.53171394       3.79984662      -0.00534119      -0.00790655      -0.00526615
C        2.48452855       0.02731355       3.78354421       0.00690087       0.00081708       0.00651684
C        1.21543805       2.14139639       3.75504183       0.00168464       0.01278026       0.00129062
C       -0.08047339       4.22617831       3.75212639      -0.00117375       0.00096572       0.00444848
C       -1.26626664       6.38380883       3.78102417       0.00254066      -0.00191347       0.00766077
C       -2.45534464       8.53181746       3.80445476      -0.00400715      -0.00597316      -0.00017996
C        4.95397087      -0.03554797       3.80039105       0.00940108      -0.00105752       0.00240053
C        3.75422265       2.14183195       3.76801671      -0.00065021      -0.00420313      -0.01074966
O        1.08923069       6.35815508       3.84464670       0.00051495       0.00035677      -0.00108213
C        0.00999497       8.47708610       3.78056427      -0.00639861       0.00125365      -0.00663350
C        7.43233160      -0.10415769       3.80648601      -0.00555631       0.00260315      -0.00343207
C        6.21324857       2.06214791       3.81620871      -0.00288296      -0.00758960       0.00275747
C        5.04992761       4.22609337       3.77348769      -0.00245949       0.00317538      -0.01036192
O        3.87928970       6.35862591       3.86308008       0.01011705       0.00338666       0.01050965
C        2.48509037       8.37849553       3.75553062       0.00055396       0.00510390       0.00584149
C        9.87471843      -0.10421921       3.79842791      -0.00463154       0.00092478       0.00554092
C        8.65324921       2.05585423       3.82810810      -0.00019781      -0.00320043       0.00178589
C        7.44073141       4.21975279       3.82035840       0.00068026       0.00392514       0.01271434
C        6.23544978       6.38314314       3.78455017      -0.00452503       0.00860598       0.00197127
C        4.96039281       8.47655518       3.77058126      -0.00005476      -0.00271985      -0.00094976
C       -0.00148355       1.38679384       3.78437287       0.00399327       0.00457150      -0.00636260
C       -1.26977646       3.48444506       3.79344416       0.00791221      -0.00205760       0.00340690
C       -2.47361385       5.64711453       3.81054180       0.00735376       0.00026466       0.00290133
C       -3.68311323       7.81103817       3.81117014      -0.00418645      -0.00674990      -0.00475413
C       -4.90837735       9.96893900       3.78914043       0.00339064      -0.00663587       0.00535606
C        2.48485245       1.47096340       3.76212536      -0.00207146       0.00531021      -0.00474931
N        1.10589680       3.51612121       3.75186710      -0.00227431       0.00685578       0.00994535
C       -0.10742789       5.63724782       3.75141232       0.00090746      -0.00322822      -0.00880479
C       -1.24239399       7.80611053       3.79415659      -0.00498972      -0.00202012      -0.00529787
C       -2.45886518       9.96899567       3.79735904       0.01006269      -0.00278203      -0.00561478
C        4.97095821       1.38707173       3.79937998       0.00073060      -0.00547134      -0.01000277
N        3.86411991       3.51624940       3.76689811      -0.00605250      -0.00388061       0.01140245
C        1.20369809       7.76167626       3.74894597      -0.00313441       0.00370791       0.00015644
C        0.01776488       9.90641802       3.79769179       0.00058708      -0.00121287       0.00084865
C        7.43306782       1.33397116       3.82341348      -0.00212086      -0.00586487      -0.00802271
C        6.23913049       3.48408607       3.80737520      -0.00489329       0.00027815      -0.00099822
C        5.07606283       5.63693057       3.76589460       0.00057262       0.00478939       0.00076506
C        3.76614915       7.76149207       3.74508268       0.00328373      -0.00189258       0.00569478
C        2.48535124       9.83465127       3.78888297      -0.00632718       0.00495389       0.00364358
C        9.87354462       1.33382458       3.81708292      -0.00172890       0.00210369      -0.01185048
C        8.65280921       3.49043095       3.82977831       0.00842816       0.00137737       0.00217221
C        7.44282869       5.64661166       3.81177922      -0.00536104       0.00809831       0.00287791
C        6.21280278       7.80564862       3.78869283      -0.00591668      -0.00079931      -0.00092850
C        4.95242912       9.90597952       3.78545657      -0.00696276      -0.00238617       0.00074058
Ir       2.48578827       4.77939351       3.70735056      -0.00550236      -0.01265655       0.01091514
O        2.47456880       4.82043976       5.61982432      -0.00410403       0.00805150       0.00470044
O        2.46959199       6.17637350       6.18002979       0.01143232      -0.00134387      -0.00136422
H        2.33951374       5.93815537       7.12256908      -0.00345077       0.00188746       0.00221339
