51
Lattice="12.336457 0.0 0.0 -6.168228499999997 10.683685154694365 0.0 0.0 0.0 15.0" Properties=species:S:1:pos:R:3:initial_magmoms:R:1:forces:R:3 energy=-2478515.052088401 free_energy=-2478515.052088401 stress="4851.150646095973 1948.2171417641803 1187.5159370023018 1948.2171417641803 380.1866307737948 -2136.1726622389438 1187.5159370023018 -2136.1726622389438 -3760.3309498169774" pbc="T T T"
C       -2.86426180       0.30574071       3.85801920       0.00000000     358.58326464    -134.89291283    -113.97669678
C       -2.87760846       0.90261226      -0.08302050       0.00000000     -26.14637370      18.08389365     -43.31209114
C       -2.87069089       7.04141588       2.41305670       0.00000000   -1742.19335667   -2641.03999491    1253.37832798
C       -4.18340301       7.85284068       9.24338312       0.00000000     979.36153230    1431.66144307    2071.76499319
C       -6.27518912       6.03280803       4.31864462       0.00000000 -1257746.26823264 -1506323.19314358 1816733.08684246
C        1.69019712      -2.33867995      10.20830607       0.00000000      26.70123592     -59.10982948    -155.86321786
C        5.69793497       7.38938890      -8.99318535       0.00000000  -50694.10608981   63494.52226237   22197.99594785
C       -1.71467616       3.26470551       9.36153801       0.00000000     -15.30287746      -0.35075699     -16.39571405
C       -0.62659125       0.49637464      13.17644186       0.00000000     -14.30369320      14.38741807     -30.79489307
C       -3.88255206      10.99598870       1.92983238       0.00000000     387.92466014    -136.01486047    -280.95283906
C        0.57585449       4.15861940       6.24494005       0.00000000   -4401.01211179   -1363.20451412     788.67387164
C       -0.50222895       0.79487464       3.92259964       0.00000000    -583.23274627    -327.39319650    -272.08852930
O      -11.25539682       4.26244244      14.56887189       0.00000000     -60.88846377      22.40459622     -38.29575304
C        0.45005641       5.22326986       1.77841589       0.00000000    -114.70740497     -42.88399133    -177.27035225
C        7.41777597       0.98072251       6.36504753       0.00000000      78.37673042     425.53437420   -1744.81991221
C       10.58608300      -0.69110194       1.99023322       0.00000000    1315.44957677     523.18880903     608.14216319
C        6.50243241       9.27678806       2.70229681       0.00000000   37270.88386694  155126.23554710    9215.85528972
O        1.15077944       5.49832330       0.20050760       0.00000000     -27.31621913      22.34355386     -37.42931021
C        2.23003308       5.72996223       5.80933643       0.00000000    7105.67897689   -2742.92438965  -16918.69885771
C       12.61309011      -1.76908638       2.71652101       0.00000000  -41193.60632826 -163605.75782968   -2471.86104616
C       10.06463594      -2.22060026       2.17321157       0.00000000    3788.61933375   -1566.09463741   -1301.38123271
C        5.65920593       3.28284151       5.70494834       0.00000000  167760.19954538  476375.81676672 -339240.36354346
C        3.06856445       6.73229307       8.41885607       0.00000000   -2629.35914421    1870.56111290    3698.06157063
C        2.60796129       5.52738400       6.17666350       0.00000000   31430.01680241   -5569.82454658  -21453.59826616
C        0.73447221       2.02417873       8.74146160       0.00000000       7.38654771       0.05863930      -2.04062526
C       -3.17109546       1.23736135      -2.20832600       0.00000000       3.30803434      -0.96737437       3.83623364
C       -0.40452333       5.81482657       1.61487102       0.00000000    -236.62908400     211.34341677     -90.89477836
C       -4.75218634       6.96977964      -1.47006962       0.00000000      12.79275678       0.46608844     -70.99621365
C       -2.43838556      18.12579938      -0.49821118       0.00000000    -171.67547561     147.86641612    -274.95974821
C        3.76031035       3.50930520       1.60060274       0.00000000    6263.94100574    4910.75078482   11208.93092450
N       -0.18620990       9.71506050      -0.18285047       0.00000000      -2.15563886      11.96475738       5.79636061
C       -8.77721082       8.03361976       7.82677505       0.00000000   -1246.01640597    1957.85529774    1462.94757029
C       -4.27598070       8.87513966       5.00939998       0.00000000   -2623.47123921   -2889.64405169    -203.43625964
C       -1.79372149      10.53062284       3.36984364       0.00000000      84.56728716    -131.41343095      -4.93866402
C        8.40387415       1.86403406       7.62943136       0.00000000     356.72495586     112.32697751    -487.61733026
N        5.40013717       3.51401368       2.41280091       0.00000000   48618.61155213   69551.91383151  106580.62821711
C       -0.42848549       5.39685447       2.24733068       0.00000000     -17.91973248      55.00618196     108.46690381
C        2.17907490      11.03370625       2.96005733       0.00000000     -33.66592852      94.85673029     113.37851948
C       11.11834762      -2.75648624       3.72279937       0.00000000   45081.81445054  -69654.34342463   32721.22389865
C        7.17416502       3.23406354       5.52303187       0.00000000 -137477.11404529  -88950.55263470  -13589.46956176
C        6.26611899       5.13305161       4.89894295       0.00000000 -18184168.24179424 -3010159.18959565 -3803588.13640484
C       14.76660300       9.62062182      -5.49383193       0.00000000      70.50513801     -95.94870518     -56.99619582
C        4.72095125       7.82609168       2.85821657       0.00000000    2989.90129402  -20641.25026543     994.99844207
C        9.59797639      -1.35881431       1.10259808       0.00000000     -34.95362001     460.11774248     -30.83856430
C        8.78158963       8.11241372       2.11160389       0.00000000    -662.95946636   -1986.87261845    1032.05905057
C        6.90599440       8.34417349       3.77675609       0.00000000   -8603.81040226  -25522.75900679    3117.59919752
C        6.77099125       5.45311292       3.98898434       0.00000000 -615394.61176977  692858.32398255 1194637.47015164
C        5.32816977       9.29623450       3.49885425       0.00000000    -796.52997304     -85.31470934   -2109.43943772
Ir       5.86941921       4.97530704       4.84573590       0.00000000 22338836.22358214 -7545819.20405111 -20634429.69765343
O        5.22030193       5.41250064       4.83471089       1.00000000 2877776.49310614 2606220.29448500 -1004872.30017910
O        5.73707771       5.07091904       5.29869142       1.00000000 -5259885.86761864 8374532.25936278 22635554.56939498
