52
Lattice="12.336457 0.0 0.0 -6.168228499999997 10.683685154694365 0.0 0.0 0.0 15.0" Properties=species:S:1:pos:R:3:forces:R:3 energy=-451.31842886503966 free_energy=-451.31842886503966 stress="-0.009197177869690869 -0.0005433432843114467 -1.2797573564449044e-06 -0.0005433432843114467 0.0062551107573962424 -3.248811588393988e-07 -1.2797573564449044e-06 -3.248811588393988e-07 4.574160386335995e-05" pbc="T T T"
C        0.02672937       0.01799114       3.80026382       0.00600396      -0.00803998       0.00555651
C       -1.23399930       2.11431503       3.87457106      -0.00995002      -0.00522755      -0.00461463
C       -2.46415552       4.27440783       3.81735310      -0.00670955       0.00244771      -0.00036025
C       -3.67247657       6.42996159       3.73142623      -0.00791708       0.00985731       0.00828712
C       -4.89933902       8.58600601       3.72608722      -0.00218858      -0.00073430      -0.00426367
C        2.49265371       0.09035058       3.80827509       0.00174987       0.00105981      -0.00424254
C        1.21912960       2.15926247       3.90051921      -0.00506562      -0.00411845      -0.00786256
C       -0.10370963       4.28636485       3.98195628      -0.01083396      -0.00021107       0.01418200
C       -1.25905765       6.43756802       3.88560338      -0.00424005      -0.00320332       0.00992479
C       -2.45162418       8.59055437       3.81355010       0.00276465       0.00905290      -0.00762140
C        4.96263404       0.02351584       3.78960976      -0.00001067       0.00680793       0.00259323
C        3.76405415       2.22268002       3.75409178       0.00455211       0.00657061      -0.00453803
N        1.12659949       6.38048227       3.89907610       0.00466261      -0.00246878      -0.00057456
C        0.01923131       8.52568956       3.83302705      -0.00171785      -0.00188681       0.00583768
C        7.44027477      -0.04959115       3.76855524       0.00583231       0.00193848       0.00254296
C        6.22049387       2.12027036       3.68764486       0.00448155       0.00233795       0.00589741
C        5.05557791       4.28012043       3.56111588       0.00177681       0.00089259      -0.00775498
O        3.87824072       6.39954442       3.67175887       0.00543094      -0.00206860      -0.01222321
C        2.50806115       8.43776493       3.76132987       0.00350976      -0.01164391       0.01209474
C        9.88641796      -0.05012432       3.78668877       0.00322077      -0.00198457      -0.01038205
C        8.66293956       2.11044302       3.75514828      -0.00014789      -0.00010575       0.00809050
C        7.45186776       4.27437241       3.63540115       0.00442557      -0.00654843       0.01496833
C        6.24698814       6.43796751       3.57786393       0.00127624       0.00121647       0.00124969
C        4.97529501       8.53259011       3.69673021      -0.00311464       0.00024248       0.00797326
C        0.01621800       1.44624829       3.86878111      -0.00528529      -0.00635215      -0.01116622
C       -1.25348512       3.53948043       3.89919097      -0.01128693      -0.00150028      -0.00052262
C       -2.45907017       5.70155959       3.81857408      -0.01038872       0.00381709       0.00169776
C       -3.67149695       7.86618197       3.75586658       0.00112191       0.01138772       0.00336056
C       -4.89634329      10.02808455       3.78253241       0.00587832      -0.00583189      -0.00603184
C        2.48279224       1.54243154       3.82892515       0.00267215       0.00120010      -0.00245620
O        1.10253033       3.55770849       4.16922792      -0.00841824      -0.00147439      -0.01352023
C       -0.06828817       5.69568530       3.94466412       0.00098201      -0.00031748       0.00778294
C       -1.23063715       7.85827521       3.85360790      -0.00230440      -0.00070536      -0.00336318
C       -2.45102474      10.02775179       3.80813686       0.00109598       0.00709215      -0.00846333
C        4.97074307       1.45335452       3.74280043       0.00402557       0.00479044      -0.00964569
N        3.86604461       3.59975020       3.70324703      -0.00051517       0.00843753      -0.00102592
C        1.22689419       7.75537144       3.82052186       0.00044308      -0.00492512      -0.00273714
C        0.02674004       9.95491786       3.79438576       0.00047406       0.00243143       0.00388505
C        7.44123859       1.38673803       3.73222123       0.00436634       0.00354868      -0.00304105
C        6.24976420       3.53861689       3.60014913       0.00168701       0.00143517       0.01361367
C        5.09308005       5.68923428       3.52819731       0.00568891      -0.00091503       0.01611619
C        3.77072077       7.81931846       3.69904468       0.00133042      -0.00725124      -0.00186813
C        2.49712921       9.88859198       3.77135441       0.00627545      -0.00786837       0.00288981
C        9.89057340       1.39189976       3.81196138      -0.00666708      -0.00197949      -0.01080820
C        8.66519298       3.54656619       3.73134175       0.00258415      -0.00616572       0.01001361
C        7.45770785       5.70218227       3.63256166      -0.00113461      -0.00366488       0.00040111
C        6.22624426       7.86311653       3.65506929      -0.00540003       0.00014719       0.01269089
C        4.96342641       9.96049759       3.76545221       0.00383360      -0.00085419       0.00214633
Ir       2.47662233       4.97452023       3.80010340       0.00730268       0.01345335      -0.00305449
O        2.82835724       5.22046223       5.67556810       0.00077244      -0.00054958      -0.01383718
O        1.85265501       4.51207140       6.51931932      -0.00271437      -0.01090375      -0.01479888
H        2.11350473       4.87688780       7.39190269       0.00578952       0.00933535      -0.00301798
