51
Lattice="12.336457 0.0 0.0 -6.168228499999997 10.683685154694365 0.0 0.0 0.0 15.0" Properties=species:S:1:pos:R:3:initial_magmoms:R:1:forces:R:3 energy=-893765.4402291266 free_energy=-893765.4402291266 stress="1564.3752083236639 231.88819233544845 -694.2122157817432 231.88819233544845 828.3438747639428 624.2905445091081 -694.2122157817432 624.2905445091081 2200.429138546378" pbc="T T T"
C        1.15581354      -1.68465759       3.89465036       0.00000000      20.59338190      17.53928786      -0.25216625
C       -0.85329759       1.37309496       3.42748306       0.00000000     136.81085756    -252.54938551     359.71304086
C       -5.99118773       5.70193675       3.91207432       0.00000000    3657.27402134    2282.65421969    1400.30553301
C       -2.97018359      -0.16859936       9.72935336       0.00000000      -6.45120235       3.87999108       0.46352902
C       -6.14461065       4.80697114       1.65459223       0.00000000    -352.84606677    -135.71778833     266.25215353
C        3.04962838       1.91837371       1.50478449       0.00000000     491.41767231     127.16831988    -381.41261429
C        5.16571513       1.81984936       6.52062028       0.00000000   -4482.53981506    6134.77521642   -2184.48418612
C       -0.20740059       8.36033869       3.36060761       0.00000000      12.62373419      58.35589572      35.22957858
C        0.82761004       5.36850106      -0.11916256       0.00000000      23.18538860     -18.27302632     -74.97382553
C       -0.79756980      13.30941704       7.79217354       0.00000000   -3496.55387901    2849.75150392   -2827.67990922
C        2.27781883       1.58209005       1.66588040       0.00000000    -376.00134841    -398.43326780    -484.51362797
C       13.31176290       5.06061174       4.38852261       0.00000000  -21514.30209372    8368.42868941  -20060.31898161
N        0.50054249       2.17822733       6.87540258       0.00000000  -16013.03381497  -35219.71364491   19999.13959231
C       -2.92356979       9.77884694      -2.51260163       0.00000000       0.29115144       0.68064740      -0.24885358
C        5.24362019       0.69226915       3.70861345       0.00000000     368.69361091    -466.61040206    -429.22006393
C        9.42624464       2.53174039       5.92275332       0.00000000     290.12166111      16.93632981       3.20580331
C        3.24030770       5.88540398       2.78334867       0.00000000   -9667.60859385   13962.17707683   -4699.87267087
O        1.93330294       4.56218835       6.35248502       0.00000000 2176921.51977453 -890709.21712096 -1675779.78303111
C        1.58479477       5.22604290       7.34080779       0.00000000 -105978.37142314  -24899.06883261 -175006.57492996
C       11.09180512       3.44277965       3.06578041       0.00000000    -613.74977382     431.82231438    -345.18788983
C        1.03927064       1.60794576      -0.60215816       0.00000000     -13.45350501       6.11704668      -5.63252310
C        3.87714948       8.16290317       4.40971176       0.00000000    -213.38694816   -2545.83029059    1047.02622844
C        2.62821379       7.40638227       2.75780800       0.00000000      -9.98692036    -842.30736132    1016.59675206
C        4.27094647      12.23759008       1.46450030       0.00000000    -110.13243864     -46.95686288    -152.05549464
C       -0.23597181       1.03962242       0.11952157       0.00000000     -11.91796658       8.31431249     -12.48270710
C        0.90226153       2.33407019       4.53692181       0.00000000     643.86590477     211.13018696    -764.63987422
C        0.79553372       8.48973021       5.41385501       0.00000000     130.46650404   -1054.20653847     762.22284704
C       -7.90317222       7.18332935       4.42284610       0.00000000   -2059.59021683    4498.61877699    -815.40667887
C       -4.21674257      11.54036472       6.71592987       0.00000000     452.29875316    -346.38969937      -7.12730882
C       -2.58636880       7.34138779       3.60964701       0.00000000    -158.92145017     113.72191411     -85.12478717
O        2.26718610       4.45048445       6.07301435       0.00000000 -637673.62290038  619307.07987669 1055738.05569086
C        1.07249164       5.42314399       6.65237205       0.00000000   85854.38994428 -470796.70432135   85666.84928997
C       -5.04991233      13.86515632      -0.15881356       0.00000000      25.35839396      -2.49461949      28.82156446
C        7.42046542      11.38233609       2.31766501       0.00000000    -164.04910126    -439.58369756    -381.54087059
C        4.02088037       1.78958961      -2.27685214       0.00000000       1.27134259      -0.87838332      -2.43279070
N        3.84082690       5.46208147       6.34744673       0.00000000 -389235.82451387 -807793.73678199 -656171.28676133
C        0.94944595       4.79638212       6.63354678       0.00000000  -47156.60063596  375892.14447747  103917.92329654
C       -6.49382961       7.89077919       2.08159961       0.00000000     193.24908759     253.10240454    -367.88559222
C       11.73736744       0.43204695       2.16959386       0.00000000       4.19423226    -144.55024858      38.19588858
C        9.10997880       5.44355994       2.79394533       0.00000000     -55.50316605      45.55828163     -48.32867220
C        4.43899611       7.53326982      10.23714657       0.00000000      61.19475171     -30.63343353    -170.21501361
C        1.28678487       3.72844188       6.41377618       0.00000000  -63710.86043585  159529.39715282   76840.53482425
C        5.39254899       5.71598793       5.95220142       0.00000000    3596.44042120     552.21010140   11087.81553480
C        5.60725314      -6.25821640       3.97330469       0.00000000    4038.38975768    2638.77354981    -331.02384756
C       16.46494407      -6.10463312       1.92448860       0.00000000     -74.45546051     -57.65924966     -68.67320373
C        5.32861682       0.75750582      -0.11824947       0.00000000       7.99451023      -2.79331980      -6.27480950
C        4.94335706      12.71387399       0.01607288       0.00000000       0.83980686      -4.72363689      -1.14806138
C        5.28744450      12.25820783       2.69652969       0.00000000     -93.53655058      96.12983972    -321.83307848
Ir       3.47975762       4.40029839       4.94794888       0.00000000 -2719068.17139803 -2038389.28061366 6878837.34553894
O        3.85357866       4.88436170       6.13497817       1.00000000 -790053.51421698 -518271.39481765 -604994.82938729
O        3.31887852       4.38745285       5.26726419       1.00000000 2535432.50117213 3595463.23993088 -5090063.23247378
