52
Lattice="12.336457 0.0 0.0 -6.168228499999997 10.683685154694365 0.0 0.0 0.0 15.0" Properties=species:S:1:pos:R:3:forces:R:3 energy=-445.11925464970244 free_energy=-445.11925464970244 stress="-0.0010627392123195628 0.00439906180259088 5.714813445612972e-07 0.00439906180259088 -0.002434807960128593 -1.968920721610059e-05 5.714813445612972e-07 -1.968920721610059e-05 -4.9854026202937615e-06" pbc="T T T"
C        0.11167720      -0.02719809       3.73232816      -0.00351638      -0.00285115       0.00286314
C       -1.08695842       2.13504686       3.53081028       0.00102635      -0.00242514       0.00192591
C       -2.34700355       4.26041306       3.45331925       0.00633594       0.00416107       0.00832180
C       -3.60451461       6.38141466       3.60685756      -0.00475451      -0.00177039       0.00320759
C       -4.84833189       8.50555695       3.77035181       0.00503377      -0.00036401      -0.00346912
C        2.57783097      -0.06876306       3.87471457      -0.00301640      -0.00182333       0.00305304
C        1.39104513       2.06709287       3.86320617      -0.00674185      -0.00076331       0.00045247
C        0.08086161       4.36514452       3.24105237       0.00103850      -0.00465734       0.00618509
C       -1.17496887       6.43251402       3.25161752       0.00823988       0.00019407      -0.00694215
C       -2.37643437       8.52239665       3.57195902       0.00456810      -0.00078512       0.00976710
C        5.05609119      -0.04526443       3.81792211       0.00248371      -0.00402768       0.00594100
C        3.84117818       1.95769035       4.42655325       0.00286044      -0.00760559      -0.00599806
O        1.22863251       6.48081124       3.21039931       0.00679385      -0.00155245      -0.00153413
C        0.08684962       8.53593982       3.45723775      -0.00020912      -0.00232496      -0.00326298
C        7.52131769      -0.03351843       3.64299582      -0.00440514       0.00011861       0.00249993
C        6.33149391       2.07402556       4.06328350      -0.00000172       0.01285999       0.00523722
C        5.26713461       4.23432423       4.66941880      -0.00874469      -0.00287794       0.00766206
P        3.73635535       6.40632426       5.06724370       0.00586234      -0.00158603       0.00788863
C        2.53663833       8.49764249       3.67185591      -0.00208395       0.00231218      -0.00435132
C        9.98637327      -0.03028577       3.62162920       0.00094550       0.00603418       0.00486892
C        8.77336964       2.10833187       3.64616817      -0.00252028      -0.00329290       0.00084379
C        7.56033412       4.23290666       3.88415609       0.00107327       0.00193607       0.00144891
C        6.32948925       6.38082243       4.09947823      -0.00331034       0.00170643       0.00082569
C        5.01785144       8.51312652       3.91093767      -0.00432947       0.00100418      -0.00723016
C        0.13928072       1.41315299       3.68246362      -0.00230243      -0.00473864      -0.00192965
C       -1.09099107       3.57269095       3.39052451       0.00318556      -0.00514256      -0.00634997
C       -2.38046299       5.68023053       3.41350635       0.00160238       0.00593611      -0.00376708
C       -3.61443945       7.80467488       3.63582784       0.00593374      -0.00400093       0.00839217
C       -4.83611219       9.92890342       3.77964104      -0.00147464      -0.00107955      -0.00463630
C        2.59417085       1.32551012       4.08696410      -0.00435795      -0.00178731      -0.00119193
P        1.71763305       3.77055380       3.55264389      -0.00399007      -0.00068032      -0.00983566
C        0.03878921       5.77442888       3.16474872       0.00651264      -0.00582760      -0.00750863
C       -1.15903208       7.83934400       3.39435068       0.00380220      -0.00123546       0.00406989
C       -2.35549970       9.92961727       3.76042137       0.00028231      -0.00026844       0.00480273
C        5.08410072       1.34746961       4.12648159       0.00509525       0.00113746      -0.00693523
P        3.85718970       3.45157150       5.39531365       0.00327304       0.00494840      -0.00282173
C        1.28029255       7.82330600       3.45653165      -0.00241372      -0.00461341       0.01218544
C        0.11370461       9.94930353       3.63390368      -0.00127388      -0.00395254      -0.00306832
C        7.53719319       1.39047997       3.76994968      -0.00803317       0.00273591      -0.00030211
C        6.37943334       3.49659869       4.21183243      -0.00191108       0.01021725       0.00339466
C        5.20906056       5.63800148       4.55332856       0.00773560      -0.01014530       0.00410665
C        3.75647483       7.84794432       4.04579203      -0.00888859       0.00134447      -0.00137599
C        2.57359892       9.92553261       3.59838124       0.00016301       0.00755071      -0.00210537
C       10.00982304       1.40662721       3.56909477       0.00203639       0.00196525       0.00472515
C        8.77364365       3.53334395       3.64448519       0.00460247      -0.00130779       0.00075883
C        7.53431566       5.66021918       3.85132796      -0.00896170       0.00115525      -0.00627961
C        6.26424475       7.79659957       3.93838428      -0.00219069       0.00417292      -0.00483149
C        5.04352422       9.94130112       3.72170335      -0.00182116      -0.00030356      -0.01059407
Ir       2.22250272       4.81532721       5.67129832       0.00492967      -0.00129233      -0.00360740
O        0.69350083       6.10577159       6.04646216      -0.00334233       0.01525949      -0.01173333
O        0.36361552       4.90834497       6.80239741      -0.01150709      -0.00501807      -0.00920998
H        0.63898983       5.14921110       7.71189001       0.01068640       0.00335113       0.01544392
