51
Lattice="12.336457 0.0 0.0 -6.168228499999997 10.683685154694365 0.0 0.0 0.0 15.0" Properties=species:S:1:pos:R:3:initial_magmoms:R:1:forces:R:3 energy=-441.1420178259959 free_energy=-441.1420178259959 stress="-0.0014254225804964356 0.004073818114409714 1.1997453585864439e-05 0.004073818114409714 -0.0030347836497704606 3.6393037057570265e-05 1.1997453585864439e-05 3.6393037057570265e-05 -1.033525325598647e-05" pbc="T T T"
C        0.06054725      -0.04705937       3.63644467       0.00000000       0.00074800       0.00309249       0.00691070
C       -1.14299395       2.11341364       3.45613225       0.00000000       0.00150205      -0.00063737      -0.00286662
C       -2.40172752       4.24085212       3.36584962       0.00000000       0.00002594       0.00892166      -0.00454649
C       -3.65597249       6.36298316       3.50319229       0.00000000      -0.00201288       0.00902237       0.00164959
C       -4.89533017       8.48830194       3.66816327       0.00000000       0.00304824      -0.00021869      -0.00436651
C        2.52727553      -0.08965548       3.78233921       0.00000000      -0.00073461      -0.01238518      -0.00281818
C        1.33508321       2.04277714       3.79359585       0.00000000       0.00950328      -0.00067573       0.00947676
C        0.02629862       4.34620170       3.20266086       0.00000000       0.01264172      -0.00804612       0.00482868
C       -1.22117504       6.41336864       3.18086167       0.00000000       0.00384212       0.00567972       0.00236540
C       -2.42329042       8.50320801       3.48680728       0.00000000      -0.00942191      -0.00171820      -0.00616265
C        5.00537736      -0.06542909       3.74284053       0.00000000       0.00672878      -0.01378265      -0.00156449
C        3.78591373       1.93777726       4.32974769       0.00000000      -0.00194820      -0.00457757      -0.00114501
O        1.18656062       6.44878656       3.23471541       0.00000000      -0.00169649       0.00920150      -0.00712041
C        0.04126615       8.51280260       3.38913048       0.00000000      -0.00428706       0.00186679       0.01084722
C        7.46938684      -0.05427241       3.58529309       0.00000000       0.00791208       0.00707106      -0.01072750
C        6.27426608       2.06010443       3.97343002       0.00000000      -0.00179373       0.00011560      -0.00714822
C        5.20069781       4.22971566       4.54215005       0.00000000      -0.00312373       0.00410731      -0.00076727
P        3.75295871       6.44907609       5.10715607       0.00000000      -0.01926482       0.00385656      -0.00238596
C        2.48725734       8.47521281       3.63117067       0.00000000       0.00328426      -0.00202379       0.00637326
C        9.93310371      -0.04910457       3.55316548       0.00000000      -0.00682053       0.00856048      -0.00826218
C        8.71765204       2.08919786       3.56823301       0.00000000      -0.00098541       0.00519851       0.00268478
C        7.50174017       4.21632079       3.77682444       0.00000000       0.00599521      -0.00037750       0.00182266
C        6.27824651       6.36741276       3.99391834       0.00000000       0.00000787       0.00036715      -0.00485112
C        4.97039491       8.49738512       3.82457418       0.00000000      -0.00514850      -0.00429922      -0.00380824
C        0.08367446       1.39142406       3.60111334       0.00000000       0.00748967       0.00345521       0.00757184
C       -1.14761731       3.55104044       3.31949638       0.00000000       0.00264635      -0.00099051       0.00128545
C       -2.43162759       5.66093391       3.31734623       0.00000000      -0.00025476       0.01303090       0.00627414
C       -3.66163925       7.78580497       3.54038839       0.00000000      -0.00399962       0.00352058      -0.00814259
C       -4.88557475       9.91015939       3.67908300       0.00000000      -0.00127428      -0.00502141       0.00470719
C        2.54132982       1.30128780       3.99768806       0.00000000       0.00073852      -0.01236291       0.00266411
P        1.65305511       3.75167182       3.54245201       0.00000000      -0.00915805      -0.00363703      -0.00231520
C       -0.00835605       5.75357814       3.13961363       0.00000000       0.00496922      -0.00250870      -0.00317236
C       -1.20463157       7.82004013       3.31440109       0.00000000      -0.00799460       0.00506979       0.00373087
C       -2.40464233       9.90938457       3.67953133       0.00000000       0.00007431      -0.00757152      -0.01404579
C        5.03175858       1.32948030       4.04037524       0.00000000      -0.00029476      -0.01010004      -0.00669422
P        3.77401571       3.45771729       5.23694156       0.00000000      -0.00703655      -0.00368259       0.00828490
C        1.23359194       7.80033665       3.42346120       0.00000000      -0.00129929       0.00837420       0.00776648
C        0.06297935       9.92705029       3.56422977       0.00000000       0.01305824      -0.00265478       0.01348995
C        7.48224905       1.37216893       3.69713769       0.00000000       0.00205736       0.00654566      -0.00651361
C        6.31659444       3.48523278       4.10048288       0.00000000       0.00405318       0.00132928      -0.00161316
C        5.15368151       5.63637671       4.45342491       0.00000000       0.00104763       0.00283267       0.01333388
C        3.71363577       7.83317601       3.99730894       0.00000000      -0.00281282      -0.01684356       0.00864225
C        2.52190513       9.90570675       3.54724557       0.00000000       0.00073596       0.00079429      -0.00703652
C        9.95421960       1.38673527       3.49637956       0.00000000      -0.00486416       0.00584214       0.00057003
C        8.71684489       3.51435965       3.55259010       0.00000000       0.00334545       0.00259925      -0.00378008
C        7.47964860       5.64327188       3.73909369       0.00000000       0.00362191       0.00163148       0.00193339
C        6.21758031       7.78231341       3.83927973       0.00000000       0.00019686       0.00164590      -0.00923236
C        4.99267369       9.92356751       3.63226364       0.00000000      -0.00681059       0.00622197      -0.00134185
Ir       2.16342416       4.80894740       5.61254209       0.00000000      -0.00151689      -0.00260305       0.01000373
O        0.72535835       5.47540535       6.64563746       1.00000000       0.01458972      -0.00921500       0.00062143
O        0.44445866       6.48934207       5.87302174       1.00000000      -0.00930966      -0.00402137      -0.00541007
