52
Lattice="12.336457 0.0 0.0 -6.168228499999997 10.683685154694365 0.0 0.0 0.0 15.0" Properties=species:S:1:pos:R:3:forces:R:3 energy=-442.7426042157823 free_energy=-442.7426042157823 stress="-0.003128976134700032 0.0004527786031289722 6.53845049095798e-05 0.0004527786031289722 -0.009897775151444833 -3.222502555024179e-05 6.53845049095798e-05 -3.222502555024179e-05 -1.0944155053671031e-05" pbc="T T T"
C        0.00061397      -0.02015281       3.76575773      -0.00931821      -0.00384778      -0.00535759
C       -1.22159331       2.13175615       3.75465212      -0.00166530      -0.00010098       0.00972449
C       -2.46390565       4.27347316       3.62490032      -0.00398595       0.00364786      -0.00672199
C       -3.70323382       6.39997474       3.61230865       0.00636376       0.00139561      -0.00070705
C       -4.95109011       8.51467955       3.72441410       0.00567418      -0.00580721       0.00286340
C        2.46625764      -0.06392731       3.60769365       0.00304349       0.00496209       0.00475820
C        1.28095127       2.04721391       3.89159802       0.00609199       0.00428810      -0.00419526
C       -0.06802409       4.27397259       4.08714595      -0.00886603       0.00789878       0.00930673
C       -1.27048073       6.42647866       3.92389703      -0.00793681       0.00193245      -0.00012063
C       -2.46752940       8.52873687       3.72349994       0.00089502      -0.00539408      -0.00057750
C        4.93095960      -0.01025172       3.51804008       0.00211015       0.00277724       0.01586227
C        3.67181087       2.03293929       3.21380035      -0.00138081       0.01067977      -0.00042578
P        1.30432997       6.38116497       4.89189095       0.01115810      -0.01020143       0.00311485
C       -0.02640957       8.60868847       4.01859666       0.00516928      -0.00448878      -0.01578527
C        7.39231069       0.03751497       3.65862649       0.00413724       0.00043422      -0.00672481
C        6.16790661       2.12807230       3.22994001      -0.00168505      -0.00520299      -0.00225741
C        4.99673119       4.29195282       3.09552912       0.00442131       0.00202696      -0.01083866
P        3.55152800       6.19794215       4.37984508      -0.00523079       0.00654497      -0.00398306
C        2.45920594       8.67792515       4.17145425      -0.00505769       0.00444651      -0.01230810
C        9.87696520       0.02844964       3.75452512      -0.00465246      -0.00770312       0.00141043
C        8.64562235       2.14477709       3.47675302       0.00363798      -0.00526302       0.00260390
C        7.41746647       4.27142289       3.34303078       0.00228403       0.00503347       0.01125078
C        6.17536317       6.39576442       3.62875819       0.00691029       0.00023778      -0.00698009
C        4.93042282       8.55381539       3.94097194       0.00017882      -0.00877800      -0.00220462
C        0.01237765       1.40605528       3.81926760       0.00149957      -0.00056521      -0.00243387
C       -1.24641738       3.54789708       3.79528064      -0.00510003       0.00545155      -0.00722246
C       -2.47387140       5.69598026       3.68923745      -0.00142099       0.00172700      -0.00039155
C       -3.70762671       7.81599864       3.68200593       0.00525929      -0.00650768       0.00816665
C       -4.94425528       9.93212336       3.71895449      -0.00185028      -0.00312207      -0.01381220
C        2.47721970       1.34343565       3.57085121       0.00405569       0.00765962       0.00035036
P        1.44117304       3.59957339       4.65319586       0.00346381      -0.01066676      -0.00020677
C       -0.10234631       5.67811725       4.16373735      -0.00533740       0.00954555      -0.00542954
C       -1.24300055       7.84996964       3.90990257       0.00045438      -0.00222042      -0.01296282
C       -2.46165806       9.94152809       3.60132883       0.00260991      -0.00276899      -0.00015712
C        4.93014345       1.40675839       3.28106688      -0.00585093       0.00207205      -0.00516683
S        3.45879266       3.63874439       2.60178994       0.00260327      -0.00293454       0.00062014
C        1.21383061       8.02533551       4.36545926       0.00169273       0.00068639       0.00684712
C       -0.00878272      10.00204864       3.71990132       0.00632382       0.00010503      -0.00434153
C        7.39832072       1.43992211       3.42199291       0.00276578      -0.00345429       0.00217548
C        6.18772068       3.54693835       3.16113503       0.00306107      -0.00321887       0.00780806
C        4.97908512       5.63354956       3.54373350       0.00569068      -0.00533765       0.01397504
C        3.68201632       7.93454881       4.20983940      -0.00492119       0.00394706      -0.00895072
C        2.46177476      10.04453766       3.85002283      -0.00248862       0.00180450      -0.00236067
C        9.88141852       1.44018380       3.63695759       0.00182798      -0.00726175       0.00172480
C        8.64980030       3.56373897       3.44733034      -0.00035304      -0.00104633       0.00196052
C        7.40621841       5.68804359       3.49582665       0.00629256       0.00698973       0.01033168
C        6.15119111       7.81289201       3.79528759       0.00576567      -0.00506693       0.00376211
C        4.93228742       9.97639603       3.82032596      -0.00977164      -0.00833299       0.01405283
Ir       2.59551966       5.10465143       6.11684590      -0.00575087       0.01126412       0.00598201
O        3.41583890       4.43074348       7.59618100      -0.00797801       0.00735787      -0.00396536
O        2.37963999       4.84687299       8.59125736      -0.00811902       0.00747548       0.00225486
H        2.97326145       5.36442532       9.17413502      -0.00672074      -0.00309988       0.00568254
