51
Lattice="12.336457 0.0 0.0 -6.168228499999997 10.683685154694365 0.0 0.0 0.0 15.0" Properties=species:S:1:pos:R:3:initial_magmoms:R:1:forces:R:3 energy=-437.7882522536044 free_energy=-437.7882522536044 stress="-0.0031840371068539573 3.1749314300404257e-06 9.998000853078177e-06 3.1749314300404257e-06 -0.009210416891072437 -3.237571980748696e-05 9.998000853078177e-06 -3.237571980748696e-05 2.4836860475295154e-05" pbc="T T T"
C       -0.01314076      -0.01062475       3.74745801       0.00000000      -0.00083558       0.00091639      -0.00823125
C       -1.25450645       2.12463416       3.87589872       0.00000000       0.00171638       0.00058675      -0.00428961
C       -2.50945523       4.26768733       3.73880421       0.00000000      -0.00073961       0.00342234       0.00645396
C       -3.72684950       6.39945544       3.57868105       0.00000000      -0.00412865       0.00211032       0.00967212
C       -4.96531257       8.52248657       3.56458655       0.00000000       0.00315350      -0.00009287      -0.00350887
C        2.45247764      -0.05665503       3.70206085       0.00000000      -0.00112512       0.00274867      -0.00044884
C        1.25900055       2.05953179       4.01533874       0.00000000      -0.00406393      -0.00158602       0.00091109
C       -0.13250362       4.28088436       4.18339841       0.00000000       0.00056315      -0.00336775      -0.00503471
C       -1.30151781       6.42074271       3.93329345       0.00000000      -0.00557927       0.00106934       0.00400552
C       -2.48251801       8.52351262       3.72616053       0.00000000       0.00099883      -0.00019402       0.00114768
C        4.92005066      -0.02326619       3.62914405       0.00000000       0.00120136      -0.00267257       0.00531814
C        3.66073416       2.03219360       3.34107997       0.00000000      -0.00264490      -0.00063890      -0.00410366
P        1.41331205       6.27300226       4.69034758       0.00000000       0.01010160      -0.00513869       0.00101957
C       -0.00669920       8.54913968       3.91457992       0.00000000       0.00279569      -0.00133767       0.00297080
C        7.37557580       0.01940034       3.68592390       0.00000000       0.00311838       0.00252353       0.00825387
C        6.14238740       2.12633864       3.38054053       0.00000000      -0.00186526      -0.00495820      -0.00008702
C        4.99626119       4.27855819       2.95682543       0.00000000      -0.00141443      -0.00372204       0.00128544
S        3.45621604       6.40685909       2.58319741       0.00000000      -0.00513388      -0.01026385       0.00131584
C        2.46092413       8.60757087       3.73446833       0.00000000      -0.00160541       0.00183624       0.00515391
C        9.85951432       0.01934161       3.68595239       0.00000000       0.00128246       0.00486554       0.00461648
C        8.61380445       2.14139722       3.61832665       0.00000000       0.00229225       0.00395073      -0.00139941
C        7.38582248       4.26904194       3.39916103       0.00000000      -0.00029804       0.00046140      -0.00622834
C        6.16172768       6.41800815       3.24893176       0.00000000      -0.00013295       0.00070544       0.00166993
C        4.91606774       8.55945863       3.44847926       0.00000000      -0.00150499       0.00007051      -0.00235580
C       -0.00539523       1.41095323       3.91414564       0.00000000      -0.00142296      -0.00089917      -0.00286081
C       -1.30098047       3.53896215       3.92977198       0.00000000      -0.00091476      -0.00045952       0.00710271
C       -2.50910431       5.69088856       3.73920675       0.00000000      -0.00584615       0.00361042       0.00427641
C       -3.72252814       7.81702609       3.61912097       0.00000000       0.00160824      -0.00006192      -0.00097443
C       -4.96025113       9.93951963       3.69154080       0.00000000      -0.00017908      -0.00005925      -0.00153263
C        2.46177261       1.35191532       3.71916316       0.00000000      -0.00220846       0.00398232       0.00466546
P        1.41758846       3.68940970       4.67094915       0.00000000       0.00952212      -0.01073805      -0.00526635
C       -0.13292433       5.68026690       4.18941457       0.00000000      -0.00723363      -0.00359897      -0.00216857
C       -1.25512698       7.83480231       3.87561380       0.00000000       0.00077679       0.00140099      -0.00281318
C       -2.47678829       9.93947275       3.67687379       0.00000000      -0.00062013      -0.00018409       0.00095539
C        4.91610485       1.39927099       3.42937632       0.00000000      -0.00411535      -0.00217684       0.00430669
S        3.45578979       3.55643060       2.57088075       0.00000000       0.01003821      -0.00059909       0.00493101
C        1.25687758       7.90145265       4.02848176       0.00000000       0.00139957      -0.00633496      -0.00038625
C       -0.01395878       9.96971928       3.73884896       0.00000000       0.00421847      -0.00146728      -0.00445041
C        7.37107942       1.43621826       3.55695668       0.00000000       0.00286481       0.00026453      -0.00562035
C        6.16191390       3.54149004       3.24071278       0.00000000      -0.00205391      -0.00496774       0.00320948
C        4.99612952       5.68241238       2.96197591       0.00000000       0.00037504      -0.00364606       0.00363144
C        3.66080358       7.92661761       3.36031577       0.00000000      -0.00336865      -0.00007329      -0.00304825
C        2.45184351      10.01572690       3.70881732       0.00000000       0.00214223       0.00424024      -0.00057434
C        9.85396885       1.43534887       3.73012708       0.00000000       0.00256871       0.00479248      -0.00447448
C        8.60904661       3.55889483       3.57918065       0.00000000       0.00207886       0.00436514      -0.00207900
C        7.38595488       5.68966226       3.40078598       0.00000000      -0.00050186       0.00166923      -0.00322581
C        6.14184338       7.83243427       3.39448713       0.00000000       0.00172205       0.00265363      -0.00657160
C        4.92030837       9.98222082       3.64412319       0.00000000      -0.00133487       0.00146990       0.00200751
Ir       2.33387786       4.97241831       6.23022707       0.00000000       0.00623796      -0.00062024       0.00447979
O        2.93658233       4.96080544       7.86992811       1.00000000      -0.00686971       0.01435893      -0.00916448
O        4.20909702       4.90145490       7.72862645       1.00000000      -0.00503514       0.00178404      -0.00246179
