51
Lattice="12.336457 0.0 0.0 -6.168228499999997 10.683685154694365 0.0 0.0 0.0 15.0" Properties=species:S:1:pos:R:3:initial_magmoms:R:1:forces:R:3 energy=-685696.8089113163 free_energy=-685696.8089113163 stress="758.3796885825291 -46.56587039540006 -353.46079039287326 -46.56587039540006 281.59986491719764 151.7248909373603 -353.46079039287326 151.7248909373603 783.8967244190817" pbc="T T T"
C       -1.74262167      -1.27992104       7.82017042       0.00000000    -334.40268571    -519.11166678     -30.87734175
C        5.76245235       9.29749216       5.99058058       0.00000000   -6543.33004566    4500.79923388    3889.26921542
C       -3.29793425       1.59673678       7.33791688       0.00000000     -46.31282136      91.95994636    -129.80111635
C       -4.88236857       6.23743871       3.84109250       0.00000000    3364.99160838  -41123.30492760  -58809.78715252
C       -9.05859712       9.29709416       9.27265601       0.00000000      56.42824297    -273.22178720    -204.06457874
C       -2.50150204      -1.81903029       5.83163707       0.00000000    -287.19453289   -1648.54638484    1018.78379415
C       14.90727499       1.76981416       0.19078122       0.00000000       8.33071269      -3.48356928      -1.06312637
C        0.28296684       8.72378528       9.63053527       0.00000000     -29.23536597      21.18339094      20.75487003
C       -3.30369878       6.96752901       4.31047073       0.00000000 -1128024.82140749 2045866.49130048 5294134.14782252
C       -5.34550663       8.74318023       5.99309345       0.00000000   -1635.29371627    2170.27792915    3178.64064644
C        5.05311187       2.69388022       3.29184373       0.00000000      32.15675389     -42.76166318     -50.69312604
C        3.87145179      -2.90804043      -0.94412726       0.00000000     -44.54715174    -148.34785147     280.50506646
P       -3.38580991       7.06234723       4.50500371       0.00000000 1677468.02580876 -1728258.36403387 -5061697.18882155
C        1.12990859       6.27967766       6.72116404       0.00000000    5666.10139001    -219.88527029    1917.46227168
C        8.37071432       4.32518247       3.98915270       0.00000000   36636.09846662   67164.43690999  -14577.24530995
C       -0.21070698      -0.98391313       2.09235200       0.00000000   -2924.81805814    2373.17482005   -3142.48305926
C        7.00262699      13.67404140      -3.30872153       0.00000000       2.67645612      -0.02187308      -6.82871513
S        3.96976751       0.68923513       6.41306861       0.00000000    2806.07036256   10809.62439987    5079.92738035
C       -1.74018320       6.59214560       3.47927719       0.00000000 -736538.72286510   -8382.41462877 -446508.02177023
C       10.60761637      -1.05246073       3.85680035       0.00000000   -3313.44318922    1927.90148124    -476.47157744
C        8.63190038       0.64593836       1.28648717       0.00000000      -0.07151178      18.54435991       6.86202417
C       11.70880819       3.58098650       0.35878501       0.00000000     -84.35530683     206.85057507     188.01003057
C        6.73500089       1.35385535      -5.03581055       0.00000000      -7.92090728      -1.43007930      26.47761489
C        1.55651102       7.37269514       4.90640899       0.00000000    3628.19514766    -313.33715175     158.82567993
C       -2.66401530       3.51688763      11.15725891       0.00000000      -6.06119584      -2.57623820       0.12330157
C       -0.32372088       1.82546380       3.04193558       0.00000000     -52.08310833     137.54366117       4.72752851
C       -2.11820731       6.89544805       3.06321192       0.00000000 -383052.62407385 -822291.43514128  328799.63167409
C       -4.41497134       5.46800949       4.54735158       0.00000000   23503.61611225  -52033.32781365  -73526.17718507
C       -7.06375055       5.76292783      -1.35796013       0.00000000      12.41968457       5.52240617      27.15460890
C       -4.54513222       2.72376167      -3.38314398       0.00000000       5.24020358       1.97041409      -1.57577097
S        6.89729573       1.15633502       6.28309103       0.00000000      23.91338523     -58.07103951     -26.14844919
C       -1.55322584       4.07976033       4.30241991       0.00000000  -13610.83712698   21015.70385127   -6859.06313223
C       -4.25244682       7.23796589       5.20263549       0.00000000   -9679.21634905 -171646.16232508 -236047.03862166
C       -0.27371739      13.11851645       6.95766451       0.00000000      38.42774525     227.38702783     -90.97014736
C        6.88342777       1.38122457      -5.72852819       0.00000000      -1.49323993       8.31642434      -4.41707762
P        5.29525527       5.02310549       6.54330617       0.00000000  -22930.12936269    7168.11779350   12754.98997787
C        2.27227147      11.45567305       3.86471331       0.00000000     -22.59944897      21.59475971     -17.09485301
C        1.97210877      13.30809945       6.04826829       0.00000000    -453.33556838   -3668.08523426     681.26908899
C       10.20615464      -5.72837834       2.19078192       0.00000000    -132.75036156     -70.67016020    -132.75483576
C        3.74146774       6.61803699       1.40467328       0.00000000      50.72230869     -12.82708959      -2.19089379
C        6.44388483       5.52740528       5.08241212       0.00000000   -9819.33713583  -10051.21596621   -3837.40906462
C        0.95949869      10.59829302       3.46525950       0.00000000     649.20513177     566.53193492    -104.48461340
C        3.01876686      10.21848314       1.60170838       0.00000000       6.90658355       3.66167878       6.27336865
C        8.20576836      -3.24504312       3.37405446       0.00000000     856.03323226     -64.13840794     -19.18312924
C        7.19288446       6.58000319       2.76780476       0.00000000  119356.50623589    8657.30002505   31398.68168766
C       10.00515496       6.42035779       3.09166546       0.00000000  429433.21056193  677061.20651264  236141.65227862
C        6.25909055       3.11237766       7.00123194       0.00000000   -1400.59068864   -1991.17984140    1017.46170763
C        7.95018294      14.09711618       3.51371940       0.00000000    -134.19045839      54.90414268     -34.99135465
Ir       3.66423129       6.44995720       7.12118167       0.00000000  -54490.63173519   30215.13960701    8493.69493043
O        3.82102392       5.41796660       7.97544553       1.00000000    6799.18741644   15128.91618218  -18389.77089174
O        4.04859141       6.15412145       7.13415360       1.00000000   65195.88586801  -52601.14062357   -4497.53085390
