51
Lattice="12.336457 0.0 0.0 -6.168228499999997 10.683685154694365 0.0 0.0 0.0 15.0" Properties=species:S:1:pos:R:3:initial_magmoms:R:1:forces:R:3 energy=-972561.9135068059 free_energy=-972561.9135068059 stress="583.9314053059829 62.13354777260832 -117.06120011034642 62.13354777260832 90.52552043355232 504.0690281263742 -117.06120011034642 504.0690281263742 50.37910584018611" pbc="T T T"
C       -0.92595677       2.99378347       4.76616911       0.00000000  -26863.89184011   51983.71884039   12159.10478323
C       -4.87079899       3.03207890      -3.52274332       0.00000000      -0.11592274      -0.10556732       0.09449277
C       -4.00964669       4.23140636       4.58584229       0.00000000    -327.31106632     178.96022438     -39.21142282
C       -4.27952681       8.83454819       1.60652135       0.00000000  -22948.58973005   17642.83252623   49430.68157475
C       -4.37639881      10.19985939       2.37091035       0.00000000 -111909.01997307 -132120.09143426  225614.82135989
C       -1.11337112      -1.45216935       2.83164822       0.00000000  136309.96409456    1068.05860583  117456.64458825
C        0.50426169       0.12827048       4.04313357       0.00000000 -6567856.57043590 5445559.27462947 -2592043.18615650
C       -1.36468008       4.64385316      15.12458032       0.00000000       0.18727179      11.78083381      -3.91437146
C       -1.37681030       6.30727899      11.94375554       0.00000000      -3.33399344     -21.66857801      28.25494540
C       -1.28645446      13.78443129       3.17334591       0.00000000    3719.17867477    2578.67369942    1323.05743623
C        3.52269936       1.65723822       3.31042089       0.00000000   53350.79856689   12187.62288726   -6022.67211039
C       15.66445330       5.71115745       1.52783530       0.00000000    -105.28368144       7.35152423      27.26978372
P        2.08596935       9.42984744       7.32847033       0.00000000    1682.00976247   -1652.11975596    2694.87523942
C        5.37060975       8.55546212       4.57904023       0.00000000  178082.56541762  222184.10446029  -78852.16139782
C        5.80773864       0.23815397      11.61006958       0.00000000       0.92148308      -0.05012212      -1.61586416
C        2.81865113       5.85462244      -1.87685932       0.00000000      -0.04384784      -0.27917604       0.08861406
C       11.74241997       5.29004569      -1.49211913       0.00000000      -3.03631218       3.08039470       3.41413279
P        5.89634341       5.57964508       4.42045997       0.00000000    1306.01441308   12946.80932240    1625.01025336
C       -1.21939645      15.99401182       3.15828825       0.00000000  -11353.38254055     387.31270261  -16765.35188621
C       10.57104509      -1.53658239       6.19829339       0.00000000   26370.43654057   10484.00469732  -15797.48254723
C        2.57310298      -7.31453220       4.72467106       0.00000000   -6479.33315364    4739.85255648    1108.65626503
C        7.85629702       5.19082927       2.89649912       0.00000000      16.94961774     180.47118811      46.00098884
C        4.13251891       5.54841509       4.05213402       0.00000000    2116.02775020    -223.25671070    -634.41175154
C        3.27819450       7.18392685       7.59178390       0.00000000    -891.58019847    -719.87264921    7397.59328109
C        2.12059652      -0.48120593       4.20628462       0.00000000  150206.75919397 -300813.94847696  110376.26166661
C       -0.91748841       4.50793926       6.07429039       0.00000000   -3027.56062747    8973.61212862    3930.29941317
C       -4.62713535       1.11505966       6.15543441       0.00000000   -1537.59311045    -133.39764590     865.92947937
C       -5.37172768       8.88500445       8.67896436       0.00000000     -20.76762795     197.03234108   -2544.15059006
C       -7.29857526       9.97225519       4.85611845       0.00000000  231957.47473369  -87734.63713224  -32199.98246150
C        0.10284381      -0.82925319       5.29678470       0.00000000 -114366.38458364 -907068.37263381  846138.42926297
P        0.48342746       0.28406723       3.99981705       0.00000000 5754479.13428564 -4334851.69815633 1445924.97148268
C       -1.31787597       4.80407979      -4.82427829       0.00000000      -0.06540029       2.75277555       2.99780830
C       -3.15292684      11.68489869      -0.69574901       0.00000000    2655.00447012     698.36692953   -4895.48819929
C        0.51114445      15.84511471       5.88187359       0.00000000    -876.28156091      54.31828976    -748.02154868
C        3.83739172      -0.30199524       1.13397863       0.00000000    6505.25355734   -4075.15777453   -4484.75935060
S       11.14757500       7.02162980      -4.09077840       0.00000000       4.07778486      17.60417742     -26.81903878
C        3.37518734      10.20050658       0.94075441       0.00000000   -6215.14521484   -3869.20238467   -5548.15620274
C       -7.79682514       4.52013413       1.03940217       0.00000000    -112.12403035    -116.83505257    -219.44544169
C        8.09518365      -0.93074600       6.68353739       0.00000000   -2081.48273353    1518.86392607   -2401.26106890
C       11.57509046       6.68966473      -0.02161146       0.00000000      -6.43633265      -5.54267680       0.01198246
C        5.48261423       6.02986454       0.25810175       0.00000000     -18.60041021      25.38696805      95.27875308
C        3.36417828       7.29132650       7.01628277       0.00000000    1546.41827359    2835.40980026   -7777.08696421
C        2.63387719       9.18839666       0.65264267       0.00000000   -1845.18531184   -1125.86836090   -1439.67601277
C        9.49290261      -0.52046554       5.89078429       0.00000000    3550.40224754   -5156.29087851   -1730.82094145
C        9.28158647       1.02391880       4.35191762       0.00000000  -30423.83985061   -2423.31558555    5870.98793887
C        7.12369423       3.30718920       3.85705965       0.00000000     715.52006698     139.17003288    -201.41432426
C        5.26439220       5.32010828       3.61638934       0.00000000   10216.25162311    2714.71611917   16517.50995633
C        5.51403761       9.41744252       4.64306229       0.00000000  337920.27375837  -23370.35643596  -69807.85097308
Ir       3.71650685       3.02706276       5.77136245       0.00000000 -578470.50400457  610773.48677630  318173.57917587
O        3.28525114       3.51658361       6.07440396       1.00000000  235470.83939437 -945075.42974234 -1131308.61207814
O        3.17314211       3.32266282       5.69533042       1.00000000  349561.00051272  340462.86757306  808681.72804572
