52
Lattice="12.336457 0.0 0.0 -6.168228499999997 10.683685154694365 0.0 0.0 0.0 15.0" Properties=species:S:1:pos:R:3:forces:R:3 energy=-441.7457186300141 free_energy=-441.7457186300141 stress="-0.0031285757483974276 5.778414310199957e-05 2.715968110199785e-05 5.778414310199957e-05 -0.010784441443765209 -4.6081167024456916e-05 2.715968110199785e-05 -4.6081167024456916e-05 -2.1537260459195624e-05" pbc="T T T"
C        0.04036612      -0.00485864       3.77955114       0.00301373       0.00113902       0.00503065
C       -1.19461748       2.13827237       3.88792567       0.00060457       0.00271067      -0.00211612
C       -2.44430440       4.28211793       3.73856951       0.00402518      -0.00003797       0.00615806
C       -3.66703645       6.41133057       3.60457924      -0.00736526      -0.00700584       0.00844373
C       -4.91077370       8.52957889       3.60267799       0.00040208       0.00791963       0.01016798
C        2.50716231      -0.05405767       3.74590985       0.00608383      -0.00005724       0.01244431
C        1.31230798       2.05385684       4.05099931       0.00017789      -0.00761152       0.00327414
C       -0.05514809       4.29320929       4.14439894       0.00258851       0.00532444       0.00177954
C       -1.23579176       6.43236853       3.94688131      -0.00016145      -0.00275763      -0.00358948
C       -2.42541741       8.53317633       3.77532196      -0.00156341      -0.00447771       0.00235489
C        4.97457839      -0.00936542       3.69696075      -0.00084716       0.00608665      -0.00574549
C        3.71513753       2.03913449       3.40802699      -0.00199367      -0.00935627       0.00164226
P        1.46209374       6.30610182       4.75325442      -0.00657477       0.00192675      -0.00147765
C        0.04579976       8.57062812       3.99125537       0.00012441      -0.00161667      -0.00568175
C        7.43073899       0.03949095       3.76033759      -0.00331204      -0.00145107      -0.00962847
C        6.19759657       2.14050466       3.43666362       0.00003891       0.00413421       0.00501170
C        5.04628173       4.29098978       3.02854664      -0.00208343      -0.00703913      -0.00212407
S        3.48335065       6.40580821       2.72193845      -0.00253785      -0.00020567      -0.00058388
C        2.51633325       8.63114318       3.82864404       0.00200973      -0.00053317      -0.00272226
C        9.91503299       0.03543794       3.73840986       0.00739659       0.00073786       0.00170590
C        8.67191922       2.15776805       3.65228297      -0.00131045      -0.00033207      -0.00450135
C        7.44387510       4.28259674       3.42995675       0.00085787      -0.00439175      -0.00058567
C        6.21413810       6.42830722       3.30131924      -0.00294126       0.00026750      -0.00186713
C        4.96696194       8.56862499       3.51179065       0.00186648      -0.00051211       0.00388999
C        0.04773674       1.41558701       3.93873053       0.00328613      -0.00289311      -0.00009716
C       -1.23253137       3.55382238       3.91507449       0.00477094       0.00155610       0.00838000
C       -2.44506640       5.70427582       3.74956858      -0.00050020      -0.00231544      -0.00553244
C       -3.66523916       7.82705018       3.65622761      -0.00322612      -0.00489193      -0.00425690
C       -4.90656204       9.94467479       3.72854588       0.00522948       0.00950688      -0.00373951
C        2.51782562       1.35175137       3.76854959      -0.00033883      -0.00550788      -0.00307089
P        1.47005951       3.67008507       4.70320736      -0.00505829       0.00866272       0.00829652
C       -0.05825204       5.69145213       4.16979013       0.00236780       0.00281972       0.00718852
C       -1.19690763       7.84777617       3.92705471       0.00206680      -0.00318685      -0.01238124
C       -2.42026524       9.94805882       3.73315492       0.00307143       0.00038993      -0.00455368
C        4.97094378       1.41233868       3.49415010      -0.00052926       0.00153468      -0.00441374
S        3.49664770       3.57421230       2.66937586       0.00037088       0.00031656       0.00116053
C        1.30974477       7.93236019       4.11864925       0.00032944       0.00182045       0.00006309
C        0.04073269       9.98963491       3.81611366      -0.00520519      -0.00012216      -0.00631739
C        7.42723038       1.45333633       3.61162443      -0.00291733       0.00078546      -0.00245102
C        6.21696040       3.55424692       3.29012831       0.00099855      -0.00252968      -0.00265768
C        5.04271183       5.69185290       3.04271319       0.00166619      -0.00502077      -0.00677348
C        3.70928080       7.94055727       3.45769967       0.00197903      -0.00386865       0.00193073
C        2.50691123      10.03719919       3.78449014       0.00407484       0.00014474       0.00561734
C        9.91160224       1.45134765       3.76127877       0.00050672       0.00374973      -0.00354962
C        8.66998539       3.57402824       3.59806833       0.00337905      -0.00039479      -0.00121678
C        7.44349884       5.70234780       3.43283154      -0.00751781      -0.00672240       0.00014376
C        6.19385308       7.84140897       3.44432549       0.00245276       0.00460576       0.00582981
C        4.97264079       9.99253624       3.69148414       0.00492480      -0.00069794      -0.00384254
Ir       2.34607259       4.95309113       6.25296443      -0.00579804       0.00978715       0.00470855
O        3.56858091       4.85385197       7.53492473      -0.00439396       0.00101469      -0.01279080
O        2.33887622       5.11760772       8.47396373      -0.00625099       0.01401795      -0.00395171
H        2.36635671       4.23680353       8.90130285       0.00176214      -0.00542184       0.01699793
