51
Lattice="12.336457 0.0 0.0 -6.168228499999997 10.683685154694365 0.0 0.0 0.0 15.0" Properties=species:S:1:pos:R:3:initial_magmoms:R:1:forces:R:3 energy=-453.1527136499838 free_energy=-453.1527136499838 stress="-0.00014419066181147063 -0.0017686711940399524 -4.2421830008599815e-06 -0.0017686711940399524 0.0020121586385035634 -2.126811364998401e-05 -4.2421830008599815e-06 -2.126811364998401e-05 1.307855855786359e-05" pbc="T T T"
C        0.00806804      -0.00074124       3.61498249       0.00000000       0.00503729       0.00350273       0.00860427
C       -1.23900849       2.12670389       3.57959554       0.00000000      -0.00419586      -0.00796187      -0.01270997
C       -2.46488869       4.26604486       3.47886519       0.00000000       0.00254829      -0.00721530       0.00846234
C       -3.68932290       6.41109863       3.45622297       0.00000000      -0.00034549       0.00462882      -0.00524470
C       -4.92137919       8.55232278       3.53665070       0.00000000      -0.00399580      -0.00223507       0.00520554
C        2.46858228       0.02645394       3.61137392       0.00000000      -0.00171564      -0.01145506      -0.00206421
C        1.19812516       2.14499374       3.75807149       0.00000000      -0.00728891       0.00891905       0.00439340
C       -0.02479120       4.23235890       3.76920599       0.00000000      -0.00410346       0.00096714       0.00425394
C       -1.22370605       6.37411502       3.63949427       0.00000000       0.01356929       0.00608316       0.00302925
C       -2.44924294       8.54124035       3.53674091       0.00000000       0.00228098      -0.00009870       0.00237604
C        4.93712858      -0.00409884       3.61646034       0.00000000       0.00339344      -0.00437308       0.00486211
C        3.69883414       2.10584383       3.93320269       0.00000000       0.00379488       0.00204920      -0.00106065
B        0.95607508       6.50874696       4.63710959       0.00000000      -0.01032534      -0.00174044       0.00033267
C        0.01855803       8.54267774       3.74174990       0.00000000      -0.00719635      -0.00088297       0.00021657
C        7.40981970      -0.01130946       3.65566769       0.00000000      -0.00948243      -0.00233154      -0.00648542
C        6.16674354       2.13805257       3.71008511       0.00000000       0.00703242       0.00619420      -0.00324526
C        5.00395078       4.31046531       4.00648479       0.00000000       0.00288680       0.00496458       0.00961052
N        3.85970008       6.45955059       4.29693238       0.00000000       0.00488521      -0.00876803      -0.00442875
C        2.47535606       8.51212149       3.93748769       0.00000000      -0.00070087       0.00235341      -0.00364065
C        9.86855824      -0.01884316       3.65289762       0.00000000       0.00303887       0.00515978       0.01122807
C        8.63239542       2.12939363       3.54826365       0.00000000       0.00126852      -0.01223494      -0.00302086
C        7.41234229       4.28016328       3.54482980       0.00000000      -0.00614936      -0.00366391      -0.00879594
C        6.19079377       6.42441756       3.65477854       0.00000000      -0.00571338       0.00192628      -0.00018559
C        4.94663457       8.53227822       3.74893357       0.00000000       0.00291718       0.00704338      -0.00165605
C        0.00288248       1.43183087       3.63981346       0.00000000      -0.00503976       0.00221752       0.00134820
C       -1.23368573       3.54409799       3.56538280       0.00000000       0.00430791      -0.00954123      -0.00614020
C       -2.46392333       5.68399969       3.47327876       0.00000000       0.01196883       0.00449746      -0.00102836
C       -3.68759094       7.83618532       3.48868570       0.00000000      -0.00005601       0.00451804      -0.00272599
C       -4.92414208       9.98508647       3.57723879       0.00000000      -0.00427224      -0.00814751      -0.00086852
C        2.45860462       1.46272509       3.76800715       0.00000000      -0.00481079      -0.00281700       0.00093706
O        1.16685186       3.51884010       3.87025975       0.00000000       0.00036779       0.00939928       0.00674838
C       -0.04972829       5.63080193       3.88796172       0.00000000       0.00530182      -0.00269539       0.00941329
C       -1.22107201       7.81878067       3.64603020       0.00000000       0.00054040       0.00133872       0.00523365
C       -2.46484232       9.97812702       3.57613146       0.00000000       0.00094176      -0.00587012       0.00778570
C        4.91925122       1.42539905       3.74415575       0.00000000       0.01343745       0.00048616      -0.00371858
B        3.87360766       3.45692140       4.60890223       0.00000000      -0.00107893       0.01148700       0.00863516
C        1.23102591       7.86797171       3.99738059       0.00000000      -0.00583690       0.00207849      -0.00400074
C        0.00728829       9.97265626       3.64032744       0.00000000      -0.00704268      -0.00752170      -0.00474756
C        7.39604426       1.42233451       3.61329396       0.00000000      -0.00035992      -0.00416163       0.00157409
C        6.17576828       3.58039308       3.73539100       0.00000000      -0.00574572       0.00394875      -0.00471124
C        4.99224196       5.73078305       3.96667593       0.00000000       0.00244310      -0.00121957      -0.00465130
C        3.75150725       7.80658994       4.00961167       0.00000000       0.00599740      -0.00653146      -0.01130292
C        2.47398436       9.94592107       3.73000494       0.00000000      -0.00195451       0.00820094      -0.00510000
C        9.86936120       1.41330213       3.56919619       0.00000000       0.00029494      -0.00481084       0.00655416
C        8.63417776       3.55588635       3.49183038       0.00000000      -0.00292289      -0.01261641      -0.00388943
C        7.41291856       5.70192962       3.51657269       0.00000000      -0.00662410       0.00156279       0.00150603
C        6.18448773       7.83957929       3.63263950       0.00000000      -0.00427390       0.00248034       0.00038857
C        4.93972478       9.95936626       3.66071478       0.00000000       0.00618308       0.01074211       0.00867236
Mn       2.85525279       5.49840449       5.65632832       0.00000000       0.00429091      -0.00011965      -0.01334931
O        3.33860394       3.69816631       5.83447774       1.00000000       0.00376994       0.00673513      -0.01394441
O        1.21403763       6.30880788       5.95981978       1.00000000      -0.00126726       0.00552897       0.01134525
