51
Lattice="12.336457 0.0 0.0 -6.168228499999997 10.683685154694365 0.0 0.0 0.0 15.0" Properties=species:S:1:pos:R:3:initial_magmoms:R:1:forces:R:3 energy=-449.9623109873164 free_energy=-449.9623109873164 stress="-0.006086322610453687 5.2423385990809386e-05 -9.701355823524637e-07 5.2423385990809386e-05 -0.004481980897813709 1.1767277936534163e-06 -9.701355823524637e-07 1.1767277936534163e-06 -2.0620290026413952e-06" pbc="T T T"
C        0.23896530       0.01296956       3.60963105       0.00000000      -0.00434980       0.00201161       0.00565798
C       -1.00148650       2.12935414       3.53864796       0.00000000      -0.00414262      -0.00409629      -0.00148114
C       -2.23311435       4.26852557       3.41876988       0.00000000       0.00225891      -0.00082697      -0.00037242
C       -3.46085139       6.40964943       3.41900756       0.00000000       0.00517450       0.00095131       0.00309325
C       -4.69751474       8.55092104       3.53312834       0.00000000      -0.00229738       0.00002144      -0.00874633
C        2.69728541      -0.00596234       3.64070483       0.00000000       0.00175528      -0.00459259       0.00528041
C        1.47524890       2.17312452       3.72122563       0.00000000      -0.00279383       0.00321299      -0.00566863
C        0.21497667       4.26108960       3.58265540       0.00000000       0.00144509      -0.00134092       0.00106953
C       -1.01093490       6.41567242       3.47733787       0.00000000       0.00163652       0.00179310      -0.00209771
C       -2.23658068       8.54649330       3.52751741       0.00000000      -0.00107824      -0.00142236       0.00221385
C        5.17518083      -0.01943366       3.62339507       0.00000000       0.00564278       0.00017296      -0.00737382
C        3.93544143       2.08979893       3.75257540       0.00000000      -0.00379334       0.00822659      -0.00923463
C        1.44491693       6.37410212       3.76745072       0.00000000      -0.00844503       0.00423425      -0.00098731
C        0.23612219       8.52609280       3.62148689       0.00000000      -0.00276112      -0.00105725      -0.00644397
C        7.63649429      -0.00999745       3.59906006       0.00000000      -0.00214018       0.00046103       0.00366408
C        6.40924290       2.12115777       3.56777195       0.00000000       0.00178249      -0.00652888      -0.00013202
C        5.22539528       4.27745393       3.62345317       0.00000000       0.00390284      -0.00108994       0.00801342
B        3.90693405       6.38948688       3.82796423       0.00000000       0.00232124      -0.00048977       0.00555580
C        2.69628940       8.54782732       3.71530799       0.00000000       0.00202686       0.00539687      -0.00363435
C       10.10226828      -0.00135801       3.59515241       0.00000000      -0.00132394      -0.00485839       0.00189350
C        8.87051915       2.12723138       3.48749104       0.00000000       0.00175243       0.00139149      -0.00189792
C        7.65421618       4.26740841       3.42687908       0.00000000      -0.00721803       0.00352155       0.00861234
C        6.42356343       6.41876956       3.50295586       0.00000000      -0.00062368       0.00093614       0.00737237
C        5.17810500       8.55783322       3.63375315       0.00000000       0.00365724      -0.00281097      -0.00073733
C        0.23666398       1.43733616       3.62436341       0.00000000      -0.00327811       0.00239275      -0.00782634
C       -1.01064283       3.54785097       3.48073271       0.00000000       0.00273001      -0.00422235      -0.00084857
C       -2.23343169       5.69476285       3.41621841       0.00000000       0.00617335      -0.00009177       0.00093097
C       -3.46609280       7.83592682       3.48143575       0.00000000      -0.00166924       0.00036312      -0.00305230
C       -4.69988166       9.97319953       3.59686208       0.00000000      -0.00347801       0.00009175       0.00019007
C        2.69664989       1.41505527       3.72991459       0.00000000      -0.00281028       0.00099834      -0.00484895
C        1.44502314       3.58962916       3.77195942       0.00000000       0.00240677       0.00317506       0.00910448
C        0.21470233       5.70241646       3.58108091       0.00000000      -0.00245701      -0.00079955      -0.00315695
C       -1.00201603       7.83434280       3.53452710       0.00000000      -0.00332480      -0.00086258       0.00553287
C       -2.23469873       9.96482049       3.60188159       0.00000000       0.00665813      -0.00204171       0.00298804
C        5.17888417       1.40504609       3.65439535       0.00000000      -0.00232330       0.00154561      -0.00998490
B        3.90877315       3.57277371       3.84734918       0.00000000       0.00495465       0.00884815      -0.00920662
C        1.47476309       7.79033828       3.71326737       0.00000000      -0.00068128       0.00406358      -0.00623658
C        0.23856099       9.95040392       3.61441430       0.00000000       0.00173110      -0.00296291       0.00254846
C        7.63895018       1.41237021       3.54097084       0.00000000       0.00383430      -0.00210547      -0.00585005
C        6.42398298       3.54401091       3.51133205       0.00000000      -0.00179073      -0.00648368       0.01556633
C        5.22522285       5.68497791       3.61723654       0.00000000       0.00181206      -0.00070104       0.00133866
C        3.93458840       7.87221921       3.72901098       0.00000000       0.00153638       0.00154613      -0.00172427
C        2.69755866       9.96923062       3.63319622       0.00000000      -0.00292760       0.00439293       0.00524696
C       10.10032618       1.41725501       3.52990979       0.00000000      -0.00143826      -0.00597228      -0.00257809
C        8.87619325       3.55323540       3.42511132       0.00000000      -0.00400996       0.00497557      -0.00562640
C        7.65382961       5.69497778       3.42332727       0.00000000       0.00029438       0.00511342       0.00759305
C        6.40890776       7.84209311       3.55351054       0.00000000       0.00146460      -0.00136721       0.00021287
C        5.17545451       9.98263710       3.60997641       0.00000000      -0.00029130      -0.00345486      -0.00025683
Mn       2.59770405       4.98398276       4.49275390       0.00000000       0.00438061      -0.00963562       0.00439830
O       -3.05420138       4.86529209       9.98235655       1.00000000      -0.00210461       0.00064754      -0.00315108
O       -3.73973839       5.07624579       8.97490596       1.00000000       0.00221917      -0.00066991       0.00507792
