51
Lattice="12.336457 0.0 0.0 -6.168228499999997 10.683685154694365 0.0 0.0 0.0 15.0" Properties=species:S:1:pos:R:3:initial_magmoms:R:1:forces:R:3 energy=-448.7312165091773 free_energy=-448.7312165091773 stress="0.0027945884605158847 0.000729530689386828 -2.0349114347995785e-05 0.000729530689386828 -0.002476468559158493 2.3755686996699e-05 -2.0349114347995785e-05 2.3755686996699e-05 2.171758873012446e-05" pbc="T T T"
C        0.04305948       0.02350584       3.68479061       0.00000000      -0.00469602       0.00032179      -0.00146327
C       -1.18953705       2.17693122       3.83891450       0.00000000       0.00681969       0.00416522      -0.00016743
C       -2.43047948       4.31496980       3.69824824       0.00000000      -0.00412743       0.00243502       0.00138174
C       -3.66708995       6.43678076       3.57979037       0.00000000       0.00216226       0.00660243      -0.00327254
C       -4.90191967       8.56677583       3.58394819       0.00000000      -0.00894099       0.00573879       0.00519366
C        2.50948479       0.03172075       3.74484826       0.00000000       0.00237582       0.00229003      -0.00626654
C        1.27252596       2.09862462       4.11951828       0.00000000      -0.00158229       0.00328181      -0.01118072
C       -0.00849939       4.32537180       4.13019229       0.00000000       0.00297153      -0.00585471       0.00754505
C       -1.16640846       6.43493127       3.68250661       0.00000000       0.00614453       0.00260626       0.00575680
C       -2.42429849       8.57226031       3.62074097       0.00000000      -0.00235743      -0.00065100       0.00200178
C        4.97105577       0.04124906       3.68032435       0.00000000      -0.00139116       0.00252120      -0.00505706
C        3.76017743       2.20563753       3.91591424       0.00000000      -0.00434559      -0.00143204       0.00028650
B        1.49178129       6.40295408       3.78347117       0.00000000      -0.00051662      -0.01151599      -0.00818935
C        0.04645081       8.58357104       3.63478045       0.00000000       0.00488127       0.00913301       0.00484267
C        7.43691861       0.05749292       3.60423558       0.00000000       0.00149070      -0.00531347       0.00570391
C        6.20386110       2.17189052       3.64285446       0.00000000      -0.00042635      -0.00523530       0.00901491
C        4.96111764       4.25415602       3.70510320       0.00000000       0.00413640       0.00434795       0.00936885
B        3.52536027       6.39610180       3.65036350       0.00000000      -0.00622696       0.00259308       0.00137745
C        2.50740488       8.63964132       3.60004895       0.00000000       0.00159141      -0.00766397       0.00280261
C        9.91909970       0.06066391       3.61008651       0.00000000      -0.00592720      -0.00224539       0.00217576
C        8.67996309       2.18511894       3.63377903       0.00000000       0.00093802       0.00431835      -0.01357543
C        7.43316510       4.30721606       3.57631769       0.00000000      -0.01061859       0.00488898       0.00474363
C        6.16355051       6.42454721       3.55369801       0.00000000       0.00501721      -0.00211758       0.00675303
C        4.96392796       8.58081600       3.55790882       0.00000000       0.00034440      -0.00619859       0.00424775
C        0.05242736       1.44638596       3.87376155       0.00000000       0.00163989      -0.00039836      -0.00761003
C       -1.20262325       3.60480689       3.89213814       0.00000000       0.00160333       0.00179150      -0.00040195
C       -2.41930411       5.73366794       3.64517497       0.00000000       0.00199917       0.00543416       0.00600834
C       -3.66246123       7.85989699       3.58610317       0.00000000      -0.00849618       0.00586056      -0.00123021
C       -4.89214752       9.99619550       3.66448682       0.00000000      -0.00296649       0.00637358      -0.00246871
C        2.50219647       1.46715735       3.93897195       0.00000000      -0.00374012       0.00168900      -0.00246654
B        1.06400610       3.44064918       4.83113902       0.00000000       0.00509670      -0.00161420       0.00008775
C        0.07881531       5.69730438       3.85755111       0.00000000       0.00215496      -0.00343740      -0.00808011
C       -1.18555243       7.85867191       3.63674501       0.00000000       0.00521190       0.00572629      -0.00294509
C       -2.42937655      10.00184151       3.67843720       0.00000000       0.00230993      -0.00093087      -0.01301284
C        4.97115171       1.46960417       3.73192104       0.00000000      -0.00462303      -0.00111047       0.00031755
N        3.81281622       3.56428706       4.00920729       0.00000000       0.01480402      -0.00768371       0.00330941
C        1.29580066       7.91031698       3.65512222       0.00000000       0.00143457      -0.00394360      -0.00270606
C        0.03730308      10.01739248       3.62563444       0.00000000       0.00065770       0.00658950       0.00395200
C        7.44245314       1.47435109       3.61222279       0.00000000       0.00272774      -0.00522200      -0.00783053
C        6.20756416       3.57900030       3.60610387       0.00000000      -0.00466139      -0.00261234       0.00272554
C        4.91860696       5.68754844       3.61532442       0.00000000      -0.00044753       0.00605919       0.00806219
C        3.71511968       7.91293848       3.58226826       0.00000000       0.00278858      -0.00321605       0.00418979
C        2.51052561      10.05568428       3.58371771       0.00000000      -0.00229657      -0.00908549      -0.00638338
C        9.92159923       1.48050053       3.67907201       0.00000000       0.00469312       0.00468915      -0.00683762
C        8.67608359       3.60416843       3.62310154       0.00000000      -0.00956638       0.00628652       0.00081588
C        7.42277024       5.72773967       3.56048920       0.00000000       0.00401911       0.00491522      -0.00060904
C        6.19280531       7.85518389       3.55534299       0.00000000      -0.00113253      -0.00514955      -0.00207618
C        4.97720131      10.01465687       3.59856391       0.00000000      -0.00588549      -0.00408648       0.01354554
Mn       2.63777924       5.07333307       4.92872217       0.00000000      -0.00779563       0.00008944       0.01798419
O        1.99850245       4.43552969       6.63173161       1.00000000       0.00778721      -0.01298305      -0.01037917
O        1.14872940       3.34313060       6.29240475       1.00000000       0.00496681      -0.00104638      -0.00998451
