51
Lattice="12.336457 0.0 0.0 -6.168228499999997 10.683685154694365 0.0 0.0 0.0 15.0" Properties=species:S:1:pos:R:3:initial_magmoms:R:1:forces:R:3 energy=-450.1698892543051 free_energy=-450.1698892543051 stress="-0.002489395625139219 4.242751906330233e-07 -2.412203850967732e-07 4.242751906330233e-07 -0.004666540605831217 -1.6988001132570248e-06 -2.412203850967732e-07 -1.6988001132570248e-06 8.090267846829255e-06" pbc="T T T"
C       -0.01539771       0.36286271       3.56695233       0.00000000       0.00406916       0.00191338      -0.00456370
C       -1.24974679       2.49393608       3.49786555       0.00000000      -0.00861897      -0.00531845      -0.00801575
C       -2.48403839       4.63781125       3.45875314       0.00000000      -0.00841905       0.00068500      -0.00735468
C       -3.71418921       6.76878389       3.50386249       0.00000000      -0.00051588      -0.00229360       0.00569889
C       -4.95189698       8.90501971       3.56017846       0.00000000       0.01025576       0.00147584       0.00488477
C        2.45381227       0.36227791       3.62080778       0.00000000      -0.00035505      -0.00427014      -0.00330302
C        1.21766596       2.50802178       3.68583068       0.00000000       0.00653966      -0.00312873      -0.00568349
C       -0.03267692       4.61630013       3.60154961       0.00000000      -0.00409329      -0.00819074       0.01216212
C       -1.22740911       6.76764734       3.54741684       0.00000000      -0.00580851       0.00862089      -0.00284469
C       -2.47723452       8.90491956       3.55804242       0.00000000      -0.00324867       0.00702433       0.00220625
C        4.92291081       0.36296775       3.56451436       0.00000000       0.00261816      -0.00607689       0.01557394
C        3.69051818       2.50767075       3.68990021       0.00000000      -0.00312409      -0.00308682       0.01409987
B        1.38846629       6.71420493       3.73794963       0.00000000       0.01103750       0.00730622      -0.00545118
C       -0.00541266       8.90724758       3.57659055       0.00000000       0.01021947      -0.00112568       0.01015539
C        7.38553984       0.37394791       3.50070296       0.00000000       0.00532668       0.00563565       0.01147056
C        6.15877069       2.49319454       3.50715943       0.00000000       0.00264715       0.00021679      -0.00474826
C        4.94221479       4.61542910       3.61813387       0.00000000      -0.00050084      -0.00405599       0.00032754
B        3.51950713       6.71431957       3.74365433       0.00000000      -0.00665038      -0.00271379       0.00051778
C        2.45420653       8.94991704       3.59264112       0.00000000      -0.00267455      -0.00043120       0.01299623
C        9.85908461       0.37474571       3.50257859       0.00000000      -0.00514667      -0.00513734      -0.00205997
C        8.62237431       2.50331773       3.44109064       0.00000000       0.00308757      -0.00049616       0.00477647
C        7.39287275       4.63758277       3.46509968       0.00000000       0.00606527       0.00018296      -0.00306822
C        6.13570733       6.76717958       3.55593363       0.00000000       0.00252649       0.01080505      -0.00721570
C        4.91335446       8.90715510       3.58422448       0.00000000      -0.01102042       0.00273209      -0.00053180
C       -0.01981875       1.78434789       3.57418064       0.00000000      -0.00011304       0.00288625       0.01145704
C       -1.26298079       3.91219011       3.48397193       0.00000000      -0.01424365      -0.00515998       0.00535980
C       -2.47620555       6.06012290       3.49579982       0.00000000      -0.00376573       0.00185569      -0.00661404
C       -3.71460015       8.19404219       3.54090304       0.00000000       0.00522824      -0.00296180      -0.00107022
C       -4.94900844      10.33025899       3.58779880       0.00000000       0.00524728      -0.00074162      -0.00143171
C        2.45391854       1.78279521       3.69346004       0.00000000       0.00207254      -0.00666325      -0.00399065
C        1.17766740       3.90828893       3.76992313       0.00000000       0.01023770       0.00074797      -0.00436225
C        0.00079217       6.03990610       3.61602731       0.00000000      -0.00199662      -0.00303370       0.00089866
C       -1.24128378       8.19322626       3.56369581       0.00000000      -0.00051290       0.01231251      -0.00566345
C       -2.47996337      10.33018345       3.58598483       0.00000000      -0.00393642       0.00187508      -0.00243538
C        4.92822828       1.78421178       3.58089988       0.00000000      -0.00049867      -0.00373398      -0.00959250
C        3.73139479       3.90720669       3.78153404       0.00000000      -0.01528371       0.00597778      -0.01079105
C        1.24030502       8.22671124       3.62706343       0.00000000       0.00587880      -0.00194457       0.00576194
C       -0.01235122      10.33787470       3.54112084       0.00000000       0.01054795      -0.00168024      -0.00727478
C        7.39122971       1.79057393       3.46818567       0.00000000       0.00470922       0.00627357      -0.00771380
C        6.17244536       3.91145298       3.49779867       0.00000000       0.00690770      -0.00016282       0.00145061
C        4.90778078       6.03925936       3.62847305       0.00000000       0.00352544      -0.00206667      -0.00192163
C        3.66789254       8.22675938       3.63387243       0.00000000      -0.00988528      -0.00489076      -0.00338344
C        2.45425747      10.36494583       3.51744157       0.00000000      -0.00292921      -0.00365059       0.00489651
C        9.85385710       1.79143444       3.46369361       0.00000000      -0.00498410      -0.00753084       0.00517460
C        8.62256415       3.92729431       3.43954008       0.00000000       0.00064152      -0.00290018      -0.01103799
C        7.38457301       6.05991655       3.50039900       0.00000000       0.00044295       0.00186475      -0.00108364
C        6.14900562       8.19293168       3.56886286       0.00000000       0.00149766       0.01357357       0.00445323
C        4.91992164      10.33788384       3.54462227       0.00000000      -0.00263043       0.00232733       0.00250526
Mn       2.45146310       5.04509841       4.58263221       0.00000000      -0.00037371      -0.00284619      -0.00362045
O        2.75333567      -4.38294408      10.60350408       1.00000000       0.00008987       0.00552501      -0.01043624
O        2.76274876      -3.80426074       9.51042406       1.00000000      -0.00008987      -0.00552501       0.01043624
