52
Lattice="12.336457 0.0 0.0 -6.168228499999997 10.683685154694365 0.0 0.0 0.0 15.0" Properties=species:S:1:pos:R:3:forces:R:3 energy=-447.445080373219 free_energy=-447.445080373219 stress="-0.005361375353099944 -0.003368047884978236 2.531693982998379e-05 -0.003368047884978236 -0.007028474088314704 -2.006814088861872e-05 2.531693982998379e-05 -2.006814088861872e-05 4.1183189193687655e-05" pbc="T T T"
C       -0.01382913      -0.04948502       3.81674275      -0.00146599      -0.00164133      -0.00546277
C       -1.26926596       2.08296567       3.99739223       0.00086976      -0.00653480      -0.00138500
C       -2.50503920       4.22997908       3.82698698       0.00149896      -0.00047690       0.00862233
C       -3.69995627       6.37413809       3.62193494       0.00299358      -0.00174359      -0.00175691
C       -4.92930065       8.51243631       3.62856889       0.00257531      -0.00303476       0.00852978
C        2.46228711      -0.07347490       3.75665721      -0.00368525       0.00079303       0.00627480
C        1.22758584       1.99094835       4.20517484       0.00509827       0.00738003       0.00143505
C       -0.13913943       4.25274977       4.38908182       0.00124750      -0.00209385       0.00146559
C       -1.27020398       6.37893214       3.92739353      -0.00168020      -0.00125157      -0.00140075
C       -2.46162019       8.50121253       3.69296162       0.00090093      -0.00106040       0.00725192
C        4.92677955      -0.03883474       3.64245596      -0.00433640       0.00097439       0.00392038
C        3.64847181       2.05097824       3.57997943       0.00001274       0.00057406      -0.00091812
B        1.19787046       6.40001709       4.37681486       0.00252380      -0.00313506      -0.00619489
C       -0.00228829       8.51533233       3.84687724       0.00163418       0.00167860       0.00201818
C        7.39147149      -0.03410440       3.67513311       0.00357514       0.00263839       0.00608722
C        6.14301746       2.11005354       3.50227057      -0.00354454      -0.00341442       0.00080399
C        4.94785832       4.31392899       3.40596793       0.00842417       0.00653208      -0.00709460
N        3.81109108       6.42033931       3.82542765      -0.01003030       0.00135224       0.00279182
C        2.48432730       8.50906444       3.85743667       0.00181664       0.00088580       0.00019364
C        9.85669427      -0.03656645       3.74742376      -0.00249509      -0.00159484       0.00173460
C        8.61292173       2.09927028       3.67959698      -0.00120696       0.00582581      -0.00029888
C        7.38815359       4.24503766       3.53130456       0.00121414      -0.00209898      -0.00693016
C        6.19521280       6.41345791       3.49808798       0.00058707      -0.00013749      -0.00089965
C        4.94207478       8.51659713       3.66805429      -0.00244393      -0.00281451      -0.00901437
C       -0.02736501       1.36028901       4.03002010       0.00530163      -0.00045538       0.00066648
C       -1.29866397       3.50445109       4.08069016       0.00073750      -0.00468846       0.00469350
C       -2.49032060       5.65637944       3.77516376       0.00065330      -0.00126593       0.00440125
C       -3.69497375       7.79592547       3.63376902       0.00319029      -0.00189228      -0.00198179
C       -4.94415443       9.92225169       3.73983049      -0.00267047      -0.00255129       0.00012582
C        2.45276725       1.33028616       3.86309123       0.00022790       0.00335953      -0.00224735
P        1.35091674       3.55027777       5.00278329       0.00311358      -0.00433334       0.00611864
C       -0.09515959       5.66036440       4.23941220      -0.00239500      -0.00154842      -0.00300730
C       -1.23397188       7.79548609       3.81666237       0.00109982      -0.00234252      -0.00578148
C       -2.46523148       9.91924446       3.68118305      -0.00428900      -0.00034686      -0.00217602
C        4.90854930       1.39337874       3.55049645      -0.00399931      -0.00087657      -0.00844757
P        3.34503258       3.69816132       3.01494449       0.00735238      -0.00273042       0.00409499
C        1.24612751       7.83402419       4.01070801       0.00263614       0.00127605       0.00444685
C       -0.00951585       9.93896690       3.70277656       0.00085417       0.00428246      -0.00513280
C        7.37830532       1.39335310       3.59829306       0.00052929       0.00288301      -0.00302212
C        6.14430924       3.54335792       3.44985700       0.00037243      -0.00365674       0.00540737
C        4.97452411       5.73739156       3.51906570      -0.00386740       0.00655279      -0.00001535
C        3.73126609       7.79263378       3.78891636      -0.00327274       0.00061807      -0.00182394
C        2.46400279       9.93402601       3.73703068       0.00167486      -0.00059742      -0.00014196
C        9.84725658       1.38627634       3.79753922      -0.00416622      -0.00159514       0.00024927
C        8.60931618       3.52468263       3.66324225       0.00125292       0.00442316       0.00079669
C        7.40799888       5.66964830       3.52615757       0.00290468      -0.00184596       0.00548270
C        6.17714844       7.81910790       3.58385149       0.00163144      -0.00114990       0.01011815
C        4.92483661       9.93468676       3.73673475      -0.00308204      -0.00269199       0.00165392
Mn       2.78934068       5.34257211       5.02180793       0.00877870       0.00192416      -0.00793918
O        3.47970452       5.99097610       6.66913348      -0.01068483       0.00660265       0.00609409
O        2.64771302       5.46229068       7.74968979      -0.00895282      -0.00953537      -0.01298810
H        3.27116860       4.82940516       8.15445042       0.00098530       0.01458020      -0.00941796
