51
Lattice="12.336457 0.0 0.0 -6.168228499999997 10.683685154694365 0.0 0.0 0.0 15.0" Properties=species:S:1:pos:R:3:initial_magmoms:R:1:forces:R:3 energy=-441.4325739631573 free_energy=-441.4325739631573 stress="0.002455023067876833 0.0016467451108383786 8.529602200772391e-05 0.0016467451108383786 -0.009368775595445855 6.871721059855419e-06 8.529602200772391e-05 6.871721059855419e-06 5.767993403884603e-05" pbc="T T T"
C        0.01298584       0.02928338       3.75958176       0.00000000      -0.02776641      -0.01643616       0.01427989
C       -1.19652661       2.19719686       3.57746703       0.00000000       0.02509125       0.01894459      -0.03871493
C       -2.43178992       4.32594579       3.56304951       0.00000000      -0.01532554       0.00719592       0.01361911
C       -3.68805666       6.43883321       3.64632414       0.00000000       0.01240530       0.01234283       0.04650784
C       -4.94025674       8.55279629       3.78856594       0.00000000       0.00613794      -0.01342820       0.03949472
C        2.47862091      -0.03495974       3.80161729       0.00000000      -0.00764875       0.00700849      -0.00813443
C        1.28270553       2.07351219       3.43315714       0.00000000      -0.00031455      -0.02110710      -0.03780078
C        0.04333651       4.35932993       3.46703344       0.00000000       0.00906567      -0.02257808      -0.01471255
C       -1.18448275       6.44937832       3.76933885       0.00000000      -0.02257057       0.01177025       0.06090057
C       -2.44862948       8.55441430       3.85723410       0.00000000      -0.00644213       0.00809538      -0.01873661
C        4.94923395       0.03107078       3.84400137       0.00000000       0.00721716      -0.01074673       0.01434027
C        3.69717470       2.10185327       3.67041609       0.00000000      -0.00343239       0.01983434      -0.02460236
B        1.41266895       6.48196730       3.93264773       0.00000000      -0.02707959       0.00232180       0.03080271
C        0.01329094       8.61473086       3.97663586       0.00000000      -0.01824225       0.01470683      -0.04334927
C        7.40835375       0.09958614       3.88136368       0.00000000       0.01546425      -0.01560870       0.00170163
C        6.17088320       2.18880015       3.59597149       0.00000000      -0.00080450       0.01118960       0.00045176
C        4.91804692       4.30837839       3.30793729       0.00000000       0.00159940      -0.01030814       0.05802656
P        3.34208782       6.25528551       4.20456669       0.00000000       0.01910913      -0.01727932       0.02967238
C        2.47312353       8.70683680       4.09076409       0.00000000      -0.00545301       0.01401737      -0.03297318
C        9.89744761       0.09592689       3.85870171       0.00000000       0.00141533       0.02294726       0.01912168
C        8.65682900       2.20928081       3.64760600       0.00000000       0.00976593      -0.01129802      -0.01348823
C        7.40710758       4.32208156       3.47307735       0.00000000       0.01705238       0.01675724       0.00508068
C        6.14493875       6.44940738       3.60173185       0.00000000       0.01011819      -0.03122359       0.02857960
C        4.93652972       8.59905718       3.95430480       0.00000000       0.00904199       0.00374129      -0.00282213
C        0.02657361       1.45364200       3.59212176       0.00000000       0.00385261      -0.00752963      -0.05203928
C       -1.18149514       3.61918040       3.51110968       0.00000000      -0.00366781       0.00730406       0.02044610
C       -2.43340706       5.74321690       3.64781266       0.00000000      -0.00711246       0.01035775       0.02662291
C       -3.69261716       7.85072180       3.76198534       0.00000000       0.00664457      -0.00473958       0.03981638
C       -4.93484534       9.96881765       3.79717956       0.00000000      -0.01507326      -0.00633535       0.04192914
C        2.48189056       1.36044737       3.65642108       0.00000000      -0.00810369       0.01334288      -0.00264840
P        1.58391399       3.69706873       2.82108616       0.00000000       0.06400973       0.00492576      -0.05866467
C        0.07318088       5.74212286       3.73749229       0.00000000      -0.03746118      -0.01695783       0.01053413
C       -1.20703449       7.86470105       3.88908304       0.00000000      -0.01271153       0.02023119      -0.03683436
C       -2.44545027       9.96978413       3.86471369       0.00000000      -0.00447812      -0.00090672      -0.00414691
C        4.95125844       1.45000138       3.71175890       0.00000000      -0.00641300      -0.00201157       0.02769538
B        3.55680709       3.55683288       3.23606823       0.00000000       0.02333545      -0.01644294      -0.03356814
C        1.26307585       7.97350953       4.03602888       0.00000000      -0.01962145       0.03177776      -0.01917547
C        0.01327041      10.04171850       3.92201454       0.00000000       0.01024511      -0.01232439      -0.01715459
C        7.41241486       1.50473660       3.70967309       0.00000000      -0.00317548      -0.01205373      -0.01262952
C        6.16523101       3.60053558       3.40225993       0.00000000       0.01769114       0.02748355       0.00416697
C        4.91648641       5.71791182       3.51435445       0.00000000      -0.03801072      -0.01462251       0.01668973
C        3.68474660       7.96984371       4.12997202       0.00000000       0.00584881       0.01044273       0.01521917
C        2.48402486      10.10775346       3.96965865       0.00000000       0.01334520       0.01151781       0.00923191
C        9.90141645       1.50703724       3.69993875       0.00000000       0.02815626       0.01664378      -0.02111572
C        8.65651438       3.62390483       3.55255359       0.00000000      -0.00294759      -0.01754804      -0.05407196
C        7.39979094       5.74110488       3.54481457       0.00000000       0.02772185       0.00708611      -0.00672054
C        6.15362030       7.85951483       3.79496112       0.00000000       0.01703697      -0.02429643       0.00119449
C        4.94887221      10.03300094       3.87369325       0.00000000      -0.02356020      -0.00638353       0.00506468
Mn       3.51311604       3.84997750       5.37511489       0.00000000      -0.03420408      -0.01712199       0.11963827
O        1.68452872       4.32963823       6.36151129       1.00000000      -0.00137811      -0.01335481      -0.01604600
O        0.70706138       3.52378349       6.29120271       1.00000000      -0.00837321       0.01065656      -0.13067865
