52
Lattice="12.336457 0.0 0.0 -6.168228499999997 10.683685154694365 0.0 0.0 0.0 15.0" Properties=species:S:1:pos:R:3:forces:R:3 energy=-449.7995901198195 free_energy=-449.7995901198195 stress="0.004286158862698722 0.0014165773864878634 -2.409793923099997e-05 0.0014165773864878634 -0.012978479141242031 -3.0394739942264694e-05 -2.409793923099997e-05 -3.0394739942264694e-05 6.638190570061792e-05" pbc="T T T"
C        0.02182430       0.00992702       3.75694291       0.00974289      -0.00762281      -0.01065778
C       -1.18202788       2.19167026       3.77803542       0.01034385       0.00088378      -0.00293915
C       -2.42526632       4.31566063       3.73765275      -0.01624161       0.00185138       0.00939955
C       -3.68847242       6.42301883       3.74707023      -0.01552598      -0.00752053      -0.00325564
C       -4.94025293       8.53033676       3.77441586       0.00345635       0.00435052      -0.03226622
C        2.48092744      -0.07128392       3.52047406       0.00570759      -0.01125008       0.01137654
C        1.30628957       2.03960168       3.83369644       0.01516846       0.00848980       0.00040679
C        0.04855750       4.35350703       3.92040585       0.00855281      -0.00978416       0.00303096
C       -1.18346780       6.45032285       3.75606804       0.01282806       0.01074649       0.00694732
C       -2.44403133       8.53797621       3.57715932      -0.01818214      -0.01706810      -0.01228450
C        4.95854601       0.00318536       3.40140187      -0.00618428       0.01263386      -0.00929259
C        3.70525590       2.06643261       3.47894946      -0.00290061      -0.00752524       0.00858156
B        1.42565901       6.49744528       4.00160154       0.01125359      -0.01178490      -0.01434897
C        0.02945376       8.59851121       3.57652523      -0.00441124       0.01274952       0.01080962
C        7.42170960       0.08417788       3.47777802      -0.01260170      -0.01157306       0.00931713
C        6.17810996       2.18317663       3.46902143       0.02121292       0.00494482       0.01083519
C        4.89822754       4.29741999       3.75283271       0.00128540       0.00365997      -0.02395034
P        3.32288289       6.34835925       4.62787831       0.01062068      -0.01795962       0.00832629
C        2.48826569       8.70806018       3.81351493      -0.00186740       0.01036187       0.01536719
C        9.90767742       0.08937807       3.69154436       0.00674642       0.00420868      -0.01189829
C        8.66772045       2.20370887       3.58958610      -0.01894267      -0.01223770       0.00797595
C        7.40338598       4.30729829       3.67717685      -0.01055073       0.01984690      -0.00915393
C        6.13637401       6.41690512       3.93564194      -0.01252014       0.02575951      -0.00471890
C        4.93151198       8.60086629       3.98258810      -0.00425152      -0.02301381      -0.00197259
C        0.03741377       1.43879750       3.79687169       0.01314003       0.00078586       0.00032991
C       -1.17180439       3.61167489       3.80877350       0.00571874       0.00198726       0.00204524
C       -2.43139618       5.73161590       3.73909247       0.00030552       0.00490261       0.03100295
C       -3.69032706       7.83511235       3.69895580      -0.01563042      -0.01426523       0.01670199
C       -4.93055133       9.94358100       3.68369788       0.01141365       0.00107710      -0.00384881
C        2.49765559       1.32850319       3.56279347      -0.00703109      -0.00352799       0.02584620
P        1.67129130       3.69052460       4.23440986       0.02788542      -0.01130153      -0.01205265
C        0.07346500       5.76426174       3.89681329       0.01206350      -0.01163921      -0.01524776
C       -1.19897261       7.85845665       3.62200698      -0.00183065       0.00943610       0.00866674
C       -2.43908645       9.94472711       3.46480867       0.00239875      -0.01507431       0.01352320
C        4.95657679       1.43054827       3.40769924       0.01955692       0.01043358      -0.01494027
B        3.55672746       3.54260513       3.69464351      -0.01253663       0.00745176      -0.00744586
C        1.27661620       7.96575268       3.76096672       0.00401098       0.00674210      -0.00816671
C        0.02749588      10.02005149       3.45036044      -0.01547553       0.01086803       0.00455068
C        7.42327105       1.49887273       3.48588271      -0.00054838      -0.01942207      -0.03297594
C        6.15515440       3.59689361       3.60625768       0.01316065       0.00547219       0.02043248
C        4.91350023       5.67660510       4.01599758      -0.00696968       0.00931112       0.00846014
C        3.67107536       8.02322002       4.14176783      -0.00709501      -0.02252908       0.00613489
C        2.49648799      10.10006314       3.61275768      -0.00432608       0.00804360       0.03041940
C        9.91390267       1.50455378       3.67051978      -0.00094073       0.00532435      -0.00551952
C        8.66219796       3.61522003       3.65546259      -0.02434127      -0.00288606       0.00753817
C        7.39607040       5.71923763       3.79116563      -0.02355353       0.01954093      -0.00274535
C        6.15751562       7.84382408       3.93833973       0.00531653       0.01112222      -0.00833362
C        4.95307700      10.02633732       3.80899304       0.00658046      -0.01839378      -0.00555945
Mn       2.41693944       4.41671899       6.47604749      -0.03141888       0.00151413       0.03512105
O        3.38408329       6.11015309       6.19565119       0.00373901      -0.00137423      -0.01143405
O        1.65979115       2.95701175       7.34387079       0.07390872       0.01828099      -0.03217345
H        1.03748839       3.19388595       8.04770784      -0.04024001       0.00497249      -0.01596479
