52
Lattice="12.336457 0.0 0.0 -6.168228499999997 10.683685154694365 0.0 0.0 0.0 15.0" Properties=species:S:1:pos:R:3:forces:R:3 energy=-455.74184610494433 free_energy=-455.74184610494433 stress="0.004770908233687423 0.0003003024752226067 1.4574824177395964e-05 0.0003003024752226067 -0.0021702786912034472 -2.452976324398513e-05 1.4574824177395964e-05 -2.452976324398513e-05 1.585053342905153e-05" pbc="T T T"
C       -0.00780609      -0.06723840       3.77315296      -0.00028133       0.00363208      -0.00147415
C       -1.23673545       2.09025564       3.87577749       0.00166920       0.00794027      -0.00781788
C       -2.47339523       4.23186661       3.73385062       0.00095662      -0.00365842      -0.00627407
C       -3.71212871       6.35243272       3.66545142      -0.00067996      -0.01320338      -0.00021790
C       -4.95097792       8.47703915       3.68728322       0.00784283       0.00728846       0.00986179
C        2.46163234      -0.05604656       3.83002815       0.00469354       0.00141982      -0.00905005
C        1.22277597       2.01663672       4.15225683      -0.00266191      -0.00337287       0.00613435
C       -0.03119690       4.23030039       4.08372168      -0.00356075       0.00636194      -0.00468745
C       -1.19502556       6.34665595       3.76062205       0.00108581       0.00537853       0.00349046
C       -2.46698240       8.48416909       3.72641892      -0.00967460      -0.00146839      -0.00966707
C        4.92471090      -0.04414888       3.77774174       0.00499234      -0.00719306      -0.00196569
C        3.70840243       2.12505538       3.98919147      -0.00062992       0.00127158      -0.00648510
B        1.49205735       6.31079311       3.96555404      -0.01191072      -0.00231919      -0.00711093
C        0.00672686       8.49561011       3.78172755      -0.00339066      -0.00698655      -0.01135869
C        7.38861695      -0.02532180       3.71099647       0.00184329      -0.00175218       0.00074258
C        6.15320229       2.09191377       3.71351513       0.00457390      -0.00370767       0.01014722
C        4.89775467       4.17657710       3.80330165       0.00000004      -0.00295675      -0.00719914
B        3.45450798       6.31444283       3.84659331       0.00499841      -0.00836169       0.01138278
C        2.46093990       8.55361289       3.76605487      -0.00489033       0.00688939      -0.01573898
C        9.86798750      -0.02601744       3.70916276       0.01010463       0.00800001       0.00151486
C        8.63041475       2.10320736       3.68707308       0.00309182      -0.00346070       0.00999199
C        7.38195524       4.22524967       3.65505874      -0.00173609      -0.00289836      -0.01874427
C        6.10463329       6.33626446       3.66644501      -0.00261518       0.00531337      -0.01081850
C        4.91372613       8.49168069       3.69347792      -0.00232218      -0.00170848       0.00294795
C        0.00026849       1.35650942       3.92913425      -0.00596522       0.00246222       0.00358822
C       -1.23886774       3.51998028       3.89207163      -0.00110770       0.00497001       0.00711594
C       -2.45794717       5.65018550       3.70764128       0.00565432      -0.00523111       0.00003120
C       -3.70795206       7.77375577       3.68465764      -0.00241773      -0.00929115       0.00196023
C       -4.94185747       9.90547302       3.75612129       0.00455887       0.00709039       0.01338232
C        2.45393402       1.37566160       4.00542457       0.00000179      -0.00031068       0.00568186
B        1.07519526       3.39374374       4.79519411      -0.00613769       0.00257231      -0.01608960
C        0.06137415       5.61248221       3.91012596      -0.00053651       0.00422450      -0.00151213
C       -1.22478623       7.77146931       3.75074419      -0.00834834       0.00358828       0.00354698
C       -2.47416493       9.91356470       3.77537459      -0.00030092      -0.00234878       0.00267210
C        4.92173800       1.38499248       3.80863159       0.00531330      -0.00574505       0.01314823
N        3.76037319       3.48018579       4.08944500      -0.00386400       0.00269790      -0.00138398
C        1.25520482       7.81926341       3.83167669      -0.00063810      -0.00178370       0.00092128
C       -0.00716693       9.93176108       3.74886560       0.00327813      -0.01013549      -0.00796084
C        7.39241685       1.39284701       3.68252418       0.00360793      -0.00402172       0.01345003
C        6.15462782       3.50073391       3.68449655       0.00092365      -0.00225603       0.00449558
C        4.85240770       5.60961180       3.73451700       0.00170037      -0.00302044       0.00310066
C        3.66723643       7.82763752       3.74907158      -0.00951179      -0.00162853       0.00032957
C        2.46033164       9.97062030       3.70812478       0.00640117       0.01192714       0.01135309
C        9.87163136       1.39549329       3.73756826       0.00646303       0.00487997       0.00532355
C        8.62854562       3.52219614       3.67828621      -0.00000169      -0.00469018      -0.01359659
C        7.37295555       5.64476764       3.65064439      -0.00627971      -0.00367742       0.01205692
C        6.14245209       7.76671874       3.67276741       0.00472924       0.00738397       0.00778259
C        4.92494905       9.92588722       3.71010742       0.00435724      -0.00029156      -0.00224458
Mn       2.68310192       5.14339720       5.41711868       0.00100950       0.00311368       0.00210567
O        1.52611059       3.70969738       6.01872473       0.00242834      -0.00906493      -0.00006271
O        3.77846572       6.04610154       6.62351690      -0.00045560       0.00613407      -0.01599848
H        3.30048835       6.79629926       7.01348939      -0.00636068       0.01200455       0.00919880
