52
Lattice="12.336457 0.0 0.0 -6.168228499999997 10.683685154694365 0.0 0.0 0.0 15.0" Properties=species:S:1:pos:R:3:forces:R:3 energy=-451.51401215222927 free_energy=-451.51401215222927 stress="0.0031406786624973257 -0.0005223376557525538 2.3786850254728033e-05 -0.0005223376557525538 -0.0005887872600754045 -4.822878823631085e-05 2.3786850254728033e-05 -4.822878823631085e-05 -1.4392427815455693e-05" pbc="T T T"
C        0.02131288      -0.04397649       3.76358345      -0.01146224      -0.00313352       0.00010137
C       -1.20575261       2.10502018       3.79899433       0.00737904       0.00125420      -0.00047777
C       -2.43672868       4.23167635       3.74095395       0.00107224       0.00101430      -0.00007898
C       -3.68317538       6.36062374       3.66387512       0.00261223      -0.00629726       0.00850824
C       -4.92161854       8.49186414       3.67644557      -0.00127602       0.00491940       0.00460772
C        2.48734304      -0.08182998       3.75206311       0.00694660       0.00008510       0.00391976
C        1.27640059       2.05947098       3.83472790       0.00257340       0.00525884       0.00289607
C        0.07176319       4.26731503       3.85657204      -0.00001208      -0.00006875       0.00797826
C       -1.22336568       6.38040638       3.74992679       0.00174261       0.00220628       0.00021456
C       -2.44486758       8.49335127       3.71636475      -0.00730837      -0.00817297      -0.01599636
C        4.95483401      -0.04907280       3.78262627       0.00626001       0.00005852       0.00809363
C        3.69577433       2.06438004       3.82743426      -0.00486625       0.00554408       0.00729635
N        1.15633996       6.40229905       4.14998558      -0.00688424       0.00120064      -0.00017134
C        0.02623210       8.49439854       3.83730716      -0.00196721      -0.00539795       0.00081468
C        7.42492310      -0.04541605       3.83915796       0.00043789      -0.00393698      -0.00916463
C        6.17221377       2.11232584       3.78448812       0.00178451      -0.00594971      -0.00568970
C        4.88463699       4.28809156       3.75589518       0.00417515      -0.01013925       0.00294275
O        3.80506127       6.43693674       3.77180744       0.00119423       0.00294799       0.00027225
C        2.50047018       8.45982231       3.91566630       0.00182826       0.00670823      -0.00696527
C        9.88532188      -0.04545815       3.82145776      -0.00294184       0.00062633      -0.00706376
C        8.65139554       2.10086520       3.78332572       0.00303827       0.00126875       0.00431123
C        7.39944154       4.23347288       3.70836899      -0.00189151       0.00452049      -0.00770706
C        6.18970321       6.38008553       3.63528304      -0.00405109      -0.00318423      -0.00440719
C        4.95575268       8.50901213       3.74817630       0.00499485      -0.00795137       0.00618758
C        0.02850710       1.38788849       3.80128650       0.00375088      -0.00116717      -0.00051976
C       -1.17565355       3.53575572       3.79144082       0.00206034       0.00022107      -0.00226052
C       -2.44499341       5.65258774       3.70621546       0.00706053      -0.00041875      -0.00448365
C       -3.68071522       7.78196231       3.67225270      -0.00758563      -0.00746544      -0.00186077
C       -4.91935162       9.91370130       3.72668920      -0.00239511       0.00759567       0.00409122
C        2.48680742       1.33433605       3.80908156      -0.00035247       0.00144843       0.00713009
B        1.46870524       3.57332184       3.90945706       0.00337329       0.00997867       0.00930042
C        0.01820384       5.70098362       3.89021973      -0.00286906      -0.00086082      -0.00429845
C       -1.21130187       7.78998720       3.76077948      -0.00556243      -0.00078865      -0.00302545
C       -2.44153286       9.91205930       3.74683724       0.00822129      -0.00585933      -0.00280427
C        4.94314705       1.38614972       3.79703252      -0.00491344       0.00408910       0.00775444
B        3.49237337       3.57761416       3.88004857       0.00568729       0.00142782      -0.00396417
C        1.23765905       7.75116595       3.97393969       0.00203050       0.00109424       0.00033027
C        0.02332597       9.92393156       3.81754812       0.00360981      -0.00672018      -0.00479589
C        7.41350452       1.39017192       3.80108257       0.00329671      -0.00553240      -0.00102621
C        6.13887855       3.54289626       3.74274872       0.00524106      -0.00666126      -0.00164828
C        4.97376511       5.69463372       3.69098149      -0.00249848      -0.00702895       0.00084121
C        3.75121346       7.81689198       3.83745921       0.00195229       0.00234463       0.00050669
C        2.48959833       9.90220426       3.86307768      -0.00114360       0.00412431      -0.00981049
C        9.89103211       1.39050229       3.80117708       0.00619476       0.00261277      -0.00035170
C        8.65229477       3.52508706       3.74018061      -0.00255528       0.00464136       0.00110530
C        7.41798668       5.65025480       3.65789235      -0.00208168       0.00287344      -0.00291295
C        6.18772737       7.79486196       3.66922407       0.00462949      -0.00261736       0.00285960
C        4.95288518       9.93720567       3.77940099      -0.00996353      -0.01043671      -0.00007482
Mn       2.44703820       5.01391234       5.10307498      -0.00905052       0.00614813       0.00476570
O        3.23727395       5.67755309       6.74142110      -0.00235779       0.00857099      -0.00437453
O        1.82613606       5.80570175       7.18081626      -0.00233960       0.00812492       0.00322030
H        1.84082103       5.16801106       7.91348697      -0.00481808       0.00688030       0.00588428
