52
Lattice="12.336457 0.0 0.0 -6.168228499999997 10.683685154694365 0.0 0.0 0.0 15.0" Properties=species:S:1:pos:R:3:forces:R:3 energy=-457.90736682899865 free_energy=-457.90736682899865 stress="-0.002996651376864667 -0.001076673519570522 -1.3094834108017275e-05 -0.001076673519570522 -0.001367882465930885 3.336268976138801e-05 -1.3094834108017275e-05 3.336268976138801e-05 -1.6425061895542663e-05" pbc="T T T"
C        0.03562792       0.01188382       3.72775065      -0.00018032      -0.00200362       0.00011678
C       -1.20948282       2.12597878       3.61646036      -0.00133258      -0.00583773       0.00178980
C       -2.44199145       4.26425566       3.53066055       0.00421669      -0.00136962       0.00319196
C       -3.66786212       6.40816177       3.58848609      -0.00088603       0.00424462      -0.00499490
C       -4.89932165       8.55006688       3.72415343       0.00057507      -0.00180115      -0.00805813
C        2.49750550      -0.00526987       3.76464901      -0.00207442      -0.00597402       0.00005330
C        1.26891727       2.16314354       3.82221099       0.00248589       0.00176483       0.00157177
C        0.02220451       4.25347512       3.68560759      -0.00632850       0.00773647       0.00073842
C       -1.21884162       6.41407129       3.61197951      -0.00103929       0.00289339      -0.00407082
C       -2.43710716       8.54575084       3.67394923      -0.00142739       0.00189079      -0.00555508
C        4.97257863      -0.01610508       3.78516119      -0.00289048      -0.00128258       0.00245640
C        3.72398598       2.10777891       3.95331673      -0.00196119      -0.00356178       0.00591046
C        1.19840675       6.36431655       4.04300687       0.01713477      -0.00148550      -0.00152718
C        0.03998399       8.51643728       3.81449320      -0.00590979       0.00841950      -0.00475675
C        7.43565552      -0.01854702       3.77481936       0.00709190       0.00241958      -0.00424583
C        6.19781982       2.13009457       3.76823669      -0.00384867      -0.00471876      -0.00610093
C        4.99520113       4.30560931       3.97034755       0.00049881       0.00695830       0.00317675
B        3.87662170       6.48344621       4.73023810      -0.00686687      -0.00477104       0.00285279
C        2.51887473       8.52462645       4.00436246      -0.00289699      -0.00206930       0.00057861
C        9.89632769      -0.00735780       3.74541895      -0.00011265       0.00523503      -0.00415411
C        8.65996303       2.12383975       3.62289583      -0.00438488       0.00537985      -0.00819908
C        7.43686410       4.26773362       3.63521735       0.00594923      -0.00186096      -0.00431356
C        6.22669165       6.41449930       3.84591475       0.00578157      -0.00159591       0.00123845
C        4.97699048       8.56677236       3.93089957       0.00168530      -0.00416569      -0.00206298
C        0.03107284       1.43528876       3.70217550       0.00242344      -0.00241516       0.00916641
C       -1.21156540       3.54531698       3.56240588      -0.00085699      -0.00471917       0.00158409
C       -2.43991330       5.69317373       3.54571156      -0.00290095       0.00068417      -0.00257037
C       -3.66683307       7.83449646       3.64731686       0.00053487       0.00398992      -0.00299567
C       -4.90042257       9.97559683       3.73458442      -0.00168397      -0.00477487      -0.00407258
C        2.49360024       1.41874327       3.86474305       0.00128308      -0.00431113       0.00192384
C        1.24284421       3.57909463       3.92277883      -0.01003880       0.00322139      -0.00124936
C        0.01532258       5.69816784       3.73818193       0.00628934       0.00963695       0.00279984
C       -1.20166871       7.83033708       3.68976211      -0.00390804       0.00368783      -0.00331227
C       -2.43443745       9.96566927       3.74352827      -0.00231919      -0.00262889       0.00621782
C        4.96845501       1.41430250       3.84304212      -0.00458749      -0.00512785      -0.00165485
B        3.65631388       3.59428008       4.17306044      -0.00933318       0.00380489       0.00751795
C        1.27467497       7.76338627       3.97550752      -0.00684780       0.00213151       0.00080132
C        0.03684748       9.94479281       3.79409562       0.00169852       0.00804385       0.00072947
C        7.42925998       1.40996833       3.70644783       0.00012105       0.00076742       0.00273363
C        6.20082759       3.55691323       3.76146314       0.00071607      -0.00063368      -0.00162221
C        5.04078625       5.69683117       4.07594778       0.00118880       0.00571629      -0.00286630
C        3.75947579       7.89514191       4.15292163      -0.00138766      -0.00201430       0.00725798
C        2.49975017       9.95181181       3.82652243       0.00479793       0.00038483      -0.00060044
C        9.89142915       1.41295833       3.63862810      -0.00693027       0.00569351      -0.00087237
C        8.66331064       3.55115857       3.56808916       0.00568495       0.00202511       0.00021793
C        7.44664489       5.69336144       3.65281749       0.00419187      -0.00195805       0.00178386
C        6.21715728       7.84575634       3.84989041       0.00550925      -0.00507180       0.00584728
C        4.97137646       9.98586160       3.77869448      -0.00092853       0.00078496       0.00131674
Mn       2.21579024       4.79482177       5.04270423       0.00557064      -0.00760738       0.00243974
O        3.33842508       6.06228542       5.88151199       0.00230908       0.00182480       0.00031632
O        1.38670847       4.19784209       6.60208986      -0.00102722       0.00031706      -0.00543056
H        1.70589823       4.78765991       7.31188436       0.00715203      -0.01589693       0.00895661
