51
Lattice="12.336457 0.0 0.0 -6.168228499999997 10.683685154694365 0.0 0.0 0.0 15.0" Properties=species:S:1:pos:R:3:initial_magmoms:R:1:forces:R:3 energy=-446.9556697637069 free_energy=-446.9556697637069 stress="-0.0031285999169828635 -0.0025581823582180698 1.0606677567923229e-06 -0.0025581823582180698 -0.0007236391745277325 1.127478146082605e-06 1.0606677567923229e-06 1.127478146082605e-06 8.130150654397432e-06" pbc="T T T"
C       -0.03128827       0.01491549       3.83732503       0.00000000       0.00196268      -0.00118782       0.00176739
C       -1.28077002       2.13647964       3.79613883       0.00000000       0.00217578      -0.00088984       0.00232595
C       -2.50053011       4.28168324       3.73473617       0.00000000      -0.00273095      -0.00057955       0.00095715
C       -3.71255052       6.42846634       3.74047884       0.00000000      -0.00036217       0.00074666      -0.00411904
C       -4.94700387       8.57329106       3.81430978       0.00000000      -0.00077088      -0.00115518       0.00426694
C        2.43809579       0.03026744       3.79179283       0.00000000      -0.00093370       0.00346087       0.00225599
C        1.17727262       2.18157469       3.82432474       0.00000000       0.00041632       0.00238113       0.00250004
C       -0.05017989       4.22941057       3.86566115       0.00000000       0.00077855      -0.00080830      -0.00092227
C       -1.25054717       6.41292788       3.81046644       0.00000000      -0.00158898      -0.00391412      -0.00127588
C       -2.48467562       8.56433611       3.79827267       0.00000000       0.00176001      -0.00120265       0.00138180
C        4.90193678       0.02307595       3.67651865       0.00000000      -0.00205082      -0.00231202      -0.00015927
C        3.63764562       2.11004774       3.37489770       0.00000000      -0.00106394       0.00321036      -0.00091980
B        1.28609151       6.36778306       3.94089456       0.00000000      -0.00166862       0.00729219       0.00224892
C       -0.02562353       8.56345997       3.80694376       0.00000000       0.00069785      -0.00176462       0.00118190
C        7.36738903       0.01852035       3.70571604       0.00000000       0.00181747       0.00060066       0.00214706
C        6.12690187       2.15968754       3.45982832       0.00000000      -0.00266364       0.00168769       0.00061807
C        4.98226521       4.34894438       3.23603055       0.00000000       0.00095017      -0.00072754      -0.00180855
C        3.68976246       6.38905034       3.76575490       0.00000000       0.00095491       0.00391476      -0.00116629
C        2.44663326       8.56212287       3.84416345       0.00000000       0.00003488      -0.00116689       0.00044039
C        9.83496977       0.00839000       3.79028961       0.00000000      -0.00080163      -0.00052795      -0.00085928
C        8.59511449       2.15041543       3.66478556       0.00000000       0.00233944       0.00044782       0.00030565
C        7.38581708       4.29863602       3.57182277       0.00000000       0.00316966      -0.00175033       0.00088088
C        6.17344331       6.45046612       3.65403253       0.00000000      -0.00029901      -0.00298790       0.00053305
C        4.91427021       8.55331537       3.82099967       0.00000000      -0.00246408       0.00323837      -0.00115653
C       -0.03953326       1.44295216       3.82976904       0.00000000       0.00215504      -0.00203743      -0.00066057
C       -1.28643193       3.54487162       3.78686325       0.00000000      -0.00127597      -0.00008595      -0.00157631
C       -2.48999013       5.70716025       3.75892572       0.00000000      -0.00298414      -0.00121214      -0.00115116
C       -3.71623623       7.85508398       3.79179034       0.00000000       0.00083223       0.00025950      -0.00002981
C       -4.95905343       9.99503433       3.84065842       0.00000000       0.00075427      -0.00059901      -0.00005057
C        2.42589267       1.46281309       3.69373190       0.00000000      -0.00082146       0.00318479      -0.00211062
N        1.12919373       3.54312298       3.98039195       0.00000000      -0.00283457      -0.00122728       0.00350901
C       -0.03620454       5.66114262       3.86314185       0.00000000       0.00029421       0.00100762       0.00186669
C       -1.25219534       7.84480331       3.80711827       0.00000000       0.00079598      -0.00448882       0.00293433
C       -2.49413552       9.99501368       3.76543395       0.00000000      -0.00246976      -0.00059199      -0.00204087
C        4.88973119       1.45075929       3.49304107       0.00000000      -0.00287119      -0.00014513       0.00114145
S        3.56628001       3.64551533       2.53426207       0.00000000       0.00226028      -0.00228801      -0.00040166
C        1.22040230       7.87089093       3.85922641       0.00000000      -0.00000115       0.00176467      -0.00094870
C       -0.03189419       9.99350880       3.73102943       0.00000000       0.00103169      -0.00067404       0.00094087
C        7.35430979       1.44649912       3.60721727       0.00000000       0.00005381       0.00275262      -0.00133721
C        6.15235174       3.58674219       3.39989449       0.00000000       0.00140633       0.00101535      -0.00090411
C        4.92794990       5.74297535       3.53157648       0.00000000      -0.00111650      -0.00006059      -0.00493465
C        3.67290595       7.80880121       3.83346608       0.00000000      -0.00028573       0.00239342      -0.00394344
C        2.43669105       9.98893352       3.78351611       0.00000000       0.00094050      -0.00282547      -0.00394399
C        9.82468689       1.43030216       3.75257085       0.00000000       0.00221902      -0.00072209       0.00248119
C        8.60308123       3.57495141       3.65600616       0.00000000       0.00175268      -0.00131767      -0.00153714
C        7.39239819       5.72327066       3.65088113       0.00000000       0.00210732      -0.00176777      -0.00165923
C        6.15743969       7.86251328       3.77968167       0.00000000      -0.00278964      -0.00076137       0.00114790
C        4.90333474       9.97674579       3.82932809       0.00000000      -0.00032160       0.00293684      -0.00151503
Mn       2.54001422       4.90417845       4.47307270       0.00000000       0.00118303       0.00206638       0.01933821
O        2.76737877       4.87328362       6.39382282       1.00000000      -0.00089612      -0.00156994       0.00043363
O        3.62224237       3.99808665       5.91610741       1.00000000       0.00122214      -0.00101228      -0.01647248
