52
Lattice="12.336457 0.0 0.0 -6.168228499999997 10.683685154694365 0.0 0.0 0.0 15.0" Properties=species:S:1:pos:R:3:forces:R:3 energy=-454.8903981125565 free_energy=-454.8903981125565 stress="-0.0005573784659213905 0.0015387316595806605 -3.3101591077025257e-05 0.0015387316595806605 0.003009422647500965 -2.3858642358622324e-06 -3.3101591077025257e-05 -2.3858642358622324e-06 1.2546247888057721e-05" pbc="T T T"
C       -0.01189831       0.03736467       3.78214856      -0.00256353      -0.00119603      -0.00278317
C       -1.23851566       2.18085294       3.84992591      -0.00170390      -0.00252897       0.00071439
C       -2.49680144       4.31580035       3.75141726       0.00595639       0.00311892       0.00306323
C       -3.72426185       6.45733857       3.65912118      -0.00691871      -0.00527194      -0.00340399
C       -4.94962512       8.59460179       3.67772380       0.00273047       0.00047913       0.00657620
C        2.46972831       0.06861424       3.70122432      -0.00626911      -0.00270763      -0.00125944
C        1.24699315       2.17657433       3.97106090       0.00430861       0.00206998       0.00833428
C       -0.07946636       4.35596295       4.17206292       0.00139501       0.00009451      -0.00203247
C       -1.28109731       6.46363826       3.96241065       0.00010404      -0.00211457       0.00570084
C       -2.48245002       8.59783521       3.73233358       0.00081677      -0.00379002      -0.00011833
C        4.92496934       0.04851106       3.65682776      -0.00141783       0.00251930      -0.00331816
C        3.72970556       2.18177158       3.63024828       0.00032663      -0.00052413      -0.00123258
B        1.05308542       6.58694669       4.85234572      -0.00358512       0.00106031      -0.00906903
C       -0.01368167       8.60466460       3.93039364       0.00032292       0.00102880      -0.00009880
C        7.40196297       0.02769016       3.71314081       0.00355216      -0.00070881      -0.00050330
C        6.17125868       2.17203567       3.55465049       0.00085637       0.00138438       0.00286350
C        4.94953267       4.29996281       3.61262112      -0.00204100      -0.00334532      -0.00000188
N        3.75016805       6.41714131       4.03860149       0.00783077       0.00494344      -0.00751650
C        2.45095259       8.54859117       3.98819897      -0.00304723      -0.00031951       0.00031727
C        9.86044688       0.02355711       3.77676595       0.00134546      -0.00247079       0.00468463
C        8.63504490       2.17004712       3.65813553      -0.00739774       0.00637658      -0.00021796
C        7.38680318       4.31635335       3.58010613      -0.00145738       0.00024828      -0.00406914
C        6.14464434       6.44394268       3.63975947       0.00119869       0.00525751       0.00606237
C        4.91498463       8.55564614       3.80396878       0.00002525      -0.00188808      -0.00124035
C        0.00101842       1.47164349       3.87628668       0.00214657      -0.00028369       0.00853710
C       -1.26614560       3.60572618       3.90460864       0.00478207      -0.00146274       0.00090340
C       -2.50539777       5.74305490       3.76339456      -0.00179338       0.00117167       0.00265710
C       -3.71839660       7.88363001       3.67798762      -0.00036690      -0.00487232      -0.00272950
C       -4.93964212      10.02554925       3.72215679      -0.00604100      -0.00057282      -0.00191184
C        2.49137297       1.50574584       3.76451044       0.00128959      -0.00200539       0.00099445
B        1.17667457       3.58839458       4.38792317      -0.00386554       0.00586985      -0.00194893
C       -0.10395707       5.75513688       4.24886053      -0.00093814       0.00011815       0.00346729
C       -1.26373578       7.89408416       3.89259821       0.00199726      -0.00290687      -0.00102031
C       -2.47728156      10.02917981       3.68464826      -0.00356479      -0.00046477      -0.00196856
C        4.93291530       1.47623813       3.57975627       0.00117947       0.00353630      -0.00055422
O        3.76978876       3.56432651       3.54978442      -0.00252896      -0.00008301       0.00701830
C        1.20656584       7.93562485       4.16491615      -0.00248678      -0.00137169      -0.00543993
C       -0.00964704      10.02127881       3.73752321       0.00208803       0.00153479      -0.00224457
C        7.39720702       1.46002047       3.61991426      -0.00316729       0.00081936      -0.00647282
C        6.15340490       3.59990057       3.54829430       0.00046445      -0.00209609       0.00026902
C        4.90182900       5.73045137       3.73768396       0.00534987      -0.00119020       0.00352898
C        3.70426056       7.78586915       3.96359288      -0.00293970       0.00228208      -0.00206884
C        2.46390235       9.98217778       3.80646243       0.00274359      -0.00202830      -0.00041100
C        9.86595955       1.45601625       3.74677542      -0.00755635      -0.00002766       0.00333210
C        8.61914332       3.59845904       3.63882423       0.00128376       0.00729608       0.00332735
C        7.37546368       5.73735823       3.59967508      -0.00655227      -0.00145754       0.00917616
C        6.15003763       7.86748743       3.69950766       0.00304520       0.00479143      -0.00591089
C        4.92100238       9.99058259       3.79314645       0.00094160      -0.00528765      -0.00671749
Mn       2.64488707       4.80151285       5.40177535       0.00162578      -0.00962700       0.00563725
O        1.61954587       6.29347403       6.04172802       0.00421404       0.00314475      -0.00587748
O        3.73778326       3.56177477       6.28191275      -0.00466291       0.00249943      -0.01046827
H        3.50795552       3.43475775       7.22064437       0.01894475       0.00095849       0.00544450
