51
Lattice="12.336457 0.0 0.0 -6.168228499999997 10.683685154694365 0.0 0.0 0.0 15.0" Properties=species:S:1:pos:R:3:initial_magmoms:R:1:forces:R:3 energy=-447.0304857454325 free_energy=-447.0304857454325 stress="-0.002138035950560307 0.0011037215432125806 -1.493564285477407e-05 0.0011037215432125806 -0.006998443911935462 -8.648676996170996e-07 -1.493564285477407e-05 -8.648676996170996e-07 4.807009912472703e-06" pbc="T T T"
C        0.02844033      -0.06981117       3.63010755       0.00000000      -0.00408203      -0.00266050       0.00165542
C       -1.18578550       2.09425998       3.71952209       0.00000000       0.00409086       0.00312316       0.00128833
C       -2.43336094       4.22079621       3.65882362       0.00000000      -0.00471052      -0.00105563      -0.00103146
C       -3.67650350       6.34880588       3.54621297       0.00000000      -0.00208757       0.00119950       0.00037886
C       -4.91003820       8.47637735       3.52222641       0.00000000       0.00153218      -0.00163873       0.00317313
C        2.50342881      -0.11522876       3.47066687       0.00000000      -0.00058631       0.00149987       0.00733830
C        1.30717189       1.99510236       3.76991271       0.00000000      -0.00333392      -0.00176583       0.00424525
C        0.00181186       4.30610137       3.98510391       0.00000000       0.00446095      -0.00707773       0.00467916
C       -1.24564670       6.37205789       3.89542432       0.00000000       0.00132793       0.00718796       0.00092888
C       -2.43136624       8.47396746       3.56585355       0.00000000      -0.00716116       0.00339790       0.00131890
C        4.97711948      -0.07365838       3.49570330       0.00000000       0.00174854      -0.00434847       0.00294661
C        3.73106846       2.01190486       3.51983952       0.00000000      -0.00526896       0.00300689      -0.00168371
B        0.97978631       6.56511980       4.93577445       0.00000000       0.00388767       0.00146732      -0.00680865
C        0.02984361       8.51627317       3.86727074       0.00000000       0.00083551       0.00145579      -0.00296421
C        7.44066794      -0.04696022       3.65241908       0.00000000       0.00200695       0.00028365      -0.00401784
C        6.20615844       2.08032008       3.51347203       0.00000000       0.00120582       0.00266762      -0.00360983
C        4.95912464       4.23823022       3.63336725       0.00000000      -0.00001827      -0.00435216      -0.00366379
C        3.77770002       6.36230241       4.03235439       0.00000000       0.00127835      -0.00085817      -0.00001326
C        2.47917394       8.50492657       4.00298167       0.00000000       0.00007623      -0.00078793       0.00166767
C        9.90285724      -0.04979568       3.71108425       0.00000000      -0.00483093       0.00419554       0.00211485
C        8.67681951       2.08683478       3.59435029       0.00000000       0.00588945      -0.00510197      -0.00404781
C        7.42972109       4.21747966       3.52806081       0.00000000       0.00376736       0.00021780      -0.00384964
C        6.20239439       6.36362157       3.56517924       0.00000000      -0.00247509      -0.00715600      -0.00118550
C        4.95449525       8.48213123       3.73397248       0.00000000       0.00105100      -0.00239407      -0.00683883
C        0.04024801       1.35832073       3.71689052       0.00000000      -0.00037210      -0.00159163       0.00109294
C       -1.19131503       3.52173548       3.76716537       0.00000000       0.00017817      -0.00018070      -0.00181322
C       -2.45301623       5.64271246       3.66832424       0.00000000      -0.00248017       0.00355166      -0.00042326
C       -3.67413435       7.76833446       3.52405863       0.00000000      -0.00241593      -0.00102011       0.00416129
C       -4.91195240       9.88978219       3.53051284       0.00000000      -0.00093560      -0.00079278       0.00274617
C        2.51932082       1.28511984       3.55402487       0.00000000      -0.00465586       0.00204061       0.00137288
P        1.63862533       3.66492210       4.12413998       0.00000000      -0.00222718       0.00554858      -0.00280772
C       -0.07581307       5.68453716       4.21906530       0.00000000       0.00390238      -0.00014735      -0.00077065
C       -1.21610224       7.79210660       3.79298676       0.00000000      -0.00416980       0.00943706      -0.00059013
C       -2.42308171       9.88563534       3.47881568       0.00000000      -0.00126484       0.00059439       0.00021302
C        4.97734284       1.35261728       3.47764539       0.00000000      -0.00344981       0.00031407       0.00470997
B        3.60668765       3.51250754       3.71578855       0.00000000       0.00295687       0.00237563      -0.00291966
C        1.23773458       7.87960793       4.20684933       0.00000000      -0.00056750       0.00287684       0.00377433
C        0.03744659       9.92479310       3.63669838       0.00000000       0.00441737      -0.00171307      -0.00721473
C        7.44079812       1.37645857       3.56280377       0.00000000       0.00309246      -0.00011077      -0.00065078
C        6.18659110       3.50848313       3.53340277       0.00000000       0.00178157       0.00260793      -0.00493148
C        4.97229880       5.66554209       3.71396672       0.00000000      -0.00295367      -0.00509028      -0.00433334
C        3.72620687       7.76149760       3.95154266       0.00000000       0.00216263      -0.00225554      -0.00408641
C        2.49969131       9.92380497       3.77711174       0.00000000      -0.00166389       0.00196628       0.00547018
C        9.91353667       1.37847882       3.66366534       0.00000000       0.00744623       0.00215613      -0.00277367
C        8.66809699       3.50968823       3.57101680       0.00000000       0.00007455      -0.00601233       0.00081988
C        7.42748002       5.64031426       3.51861317       0.00000000       0.00040200       0.00004701       0.00190302
C        6.18928240       7.77843971       3.59786674       0.00000000       0.00261105      -0.00496292      -0.00020597
C        4.96298703       9.90743896       3.69345125       0.00000000      -0.00654754       0.00086706       0.00656265
Mn       2.96203095       5.09671485       5.32416400       0.00000000       0.00082801      -0.00173849       0.02317583
O        2.39244247       6.34601074       6.64842392       1.00000000       0.01868757      -0.01634648       0.00519700
O        0.98758491       6.56619632       6.39857441       1.00000000      -0.01344100       0.01707334      -0.01969893
