51
Lattice="12.336457 0.0 0.0 -6.168228499999997 10.683685154694365 0.0 0.0 0.0 15.0" Properties=species:S:1:pos:R:3:initial_magmoms:R:1:forces:R:3 energy=-448.3549614918333 free_energy=-448.3549614918333 stress="0.0025995218714698694 0.0006420860279763212 -4.3168795921666153e-07 0.0006420860279763212 -0.0013418454438084715 1.0301234365797236e-05 -4.3168795921666153e-07 1.0301234365797236e-05 -4.984037665226965e-07" pbc="T T T"
C        0.01545396       0.02337199       3.65013366       0.00000000       0.00502429      -0.00099722      -0.00659500
C       -1.21343457       2.17375342       3.84143011       0.00000000       0.00026849       0.00313364       0.00509680
C       -2.47160323       4.30967169       3.78628098       0.00000000       0.00275122       0.00371716      -0.00488150
C       -3.70685489       6.43599613       3.64968081       0.00000000      -0.00042113       0.00210277       0.00544661
C       -4.92808995       8.56693376       3.58590932       0.00000000      -0.00376416      -0.00705652       0.00909712
C        2.48640328       0.03597844       3.63131561       0.00000000       0.00296363      -0.00010856       0.00405889
C        1.26483103       2.11767663       3.95521496       0.00000000       0.00093784       0.00650841       0.00104536
C       -0.03022753       4.31737581       4.12827903       0.00000000       0.00543555      -0.00400090       0.00304420
C       -1.21539861       6.43179856       3.75703696       0.00000000      -0.00966980      -0.00435726       0.00232077
C       -2.45430670       8.56818276       3.61705214       0.00000000      -0.00019906      -0.00426548       0.00443683
C        4.94144141       0.03296316       3.62666391       0.00000000       0.00185043       0.00083417       0.00245394
C        3.73926061       2.16961016       3.70221194       0.00000000      -0.00430165      -0.00531917      -0.00291442
B        1.34866178       6.44274425       3.89843225       0.00000000       0.00551968      -0.00915142       0.00402878
C        0.01267908       8.58608095       3.67347032       0.00000000       0.00113948       0.00212913       0.00273529
C        7.41225951       0.04989065       3.63187830       0.00000000      -0.00182257       0.00131913       0.00716172
C        6.17365961       2.17332260       3.65707491       0.00000000      -0.00097835       0.00095471      -0.00931331
C        4.91773292       4.26737010       3.69051802       0.00000000       0.00046516      -0.00180377       0.00480693
C        3.64549346       6.43377387       3.80692429       0.00000000      -0.00193575       0.00218633       0.00284602
C        2.48874959       8.61772508       3.68796088       0.00000000      -0.00174509       0.00570215       0.00070078
C        9.89091845       0.05131407       3.64500311       0.00000000      -0.00089829      -0.00011661       0.00865873
C        8.64890636       2.17976246       3.69546340       0.00000000      -0.00228100       0.00198495       0.00056217
C        7.38841086       4.30822938       3.67689216       0.00000000       0.00646684       0.00764133       0.00029465
C        6.13051266       6.41843811       3.62443222       0.00000000       0.00731120       0.00218103      -0.00252593
C        4.94254859       8.57220339       3.60382614       0.00000000      -0.00675906      -0.00008452       0.00581677
C        0.03252879       1.45007228       3.80713034       0.00000000       0.00223812       0.00333610      -0.00000063
C       -1.23189080       3.60024322       3.93063193       0.00000000       0.00492623       0.00408537      -0.00425750
C       -2.46924467       5.72957787       3.72990475       0.00000000      -0.00686633      -0.00022736      -0.00729097
C       -3.69488901       7.85854925       3.60832700       0.00000000      -0.00157684      -0.00359149      -0.00674993
C       -4.91925219       9.99683601       3.61090402       0.00000000       0.00430038      -0.00624818      -0.00522198
C        2.49471766       1.47027957       3.74824925       0.00000000      -0.00178686       0.00137420       0.00468058
B        1.12255336       3.44966157       4.63048773       0.00000000      -0.00078563      -0.00361966       0.00257930
C        0.00856123       5.69574727       3.93443684       0.00000000      -0.00488212      -0.00351683      -0.00996967
C       -1.21689201       7.85792228       3.67547524       0.00000000      -0.00086423      -0.00390691      -0.00133382
C       -2.45582709       9.99971253       3.60969306       0.00000000       0.00284989      -0.00104715       0.00261756
C        4.94226751       1.46343130       3.65115038       0.00000000      -0.00084181      -0.00044817       0.00300258
O        3.74643333       3.53717740       3.71625823       0.00000000      -0.00458172      -0.00518423       0.00579960
C        1.26500747       7.92242238       3.75012276       0.00000000       0.00162395       0.00301314      -0.00350204
C        0.00903090      10.01425128       3.63179014       0.00000000       0.00050916       0.00165499      -0.00162348
C        7.40737587       1.47336916       3.65096071       0.00000000      -0.00277714      -0.00107651      -0.00212679
C        6.14769871       3.59187364       3.67037648       0.00000000       0.00374179       0.00368104      -0.00688480
C        4.86632986       5.69579371       3.69966907       0.00000000       0.00784396       0.00224081       0.00143232
C        3.70163069       7.85900648       3.69602965       0.00000000      -0.00668817       0.00092285      -0.00426942
C        2.48702436      10.03718110       3.62994457       0.00000000      -0.00246519       0.00300597      -0.00453596
C        9.89180263       1.47254870       3.71443023       0.00000000      -0.00203107       0.00096378      -0.00482042
C        8.63254347       3.60085146       3.71657425       0.00000000       0.00410706       0.00471251      -0.00154802
C        7.37862600       5.72501747       3.64609733       0.00000000       0.00770548       0.00626021      -0.00498376
C        6.16477218       7.84909858       3.59575609       0.00000000      -0.00631341      -0.00029837      -0.00265329
C        4.94828332      10.00237426       3.62036052       0.00000000       0.00075991       0.00063291       0.00073147
Mn       2.55817016       5.97128420       5.41499513       0.00000000      -0.00987459      -0.00803070       0.00876687
O        1.62955658       3.52483874       5.98001817       1.00000000      -0.00419861      -0.00836897       0.00571813
O        2.91018148       4.17614789       6.06172473       1.00000000       0.01056991       0.00654717      -0.01193810
