52
Lattice="12.336457 0.0 0.0 -6.168228499999997 10.683685154694365 0.0 0.0 0.0 15.0" Properties=species:S:1:pos:R:3:forces:R:3 energy=-451.40013710902616 free_energy=-451.40013710902616 stress="0.0014417622529600328 -0.0015983264197667658 5.2629886885271325e-05 -0.0015983264197667658 -0.0018056070371512709 -4.703780754956286e-05 5.2629886885271325e-05 -4.703780754956286e-05 -3.4156892272468264e-06" pbc="T T T"
C        0.04921620      -0.02301371       3.68782205      -0.00268943      -0.00052788       0.00688086
C       -1.18765275       2.11679703       3.74592880       0.00846933       0.00098079       0.00188506
C       -2.42445600       4.24623345       3.70563947       0.00430095      -0.00242650      -0.00278194
C       -3.65827660       6.37926413       3.61766144      -0.00031658      -0.00770045       0.00478474
C       -4.88893370       8.51399199       3.60543188      -0.00251086       0.00522944       0.00360693
C        2.51569678      -0.06144168       3.69580639       0.00864171      -0.00176908       0.00721972
C        1.29968695       2.07743516       3.79221917       0.00056285       0.00023933       0.01008136
C        0.07118100       4.26284442       3.83246839      -0.01087637       0.00713489       0.00264115
C       -1.20617969       6.39133268       3.72261818      -0.00230267      -0.00202235       0.00348477
C       -2.41681235       8.51267438       3.67271339      -0.00293268      -0.00281641      -0.00837376
C        4.98254253      -0.03329280       3.76676363       0.00480597      -0.00245847       0.00480053
C        3.71987705       2.08419614       3.81682113      -0.00201426      -0.00164491       0.00055256
C        1.22376856       6.38503864       4.08490175      -0.00797244       0.01122078      -0.00299109
C        0.05842624       8.50924981       3.83348870      -0.00753036       0.00270782      -0.00661258
C        7.44910832      -0.02479500       3.82607697       0.00375781      -0.00855454      -0.01681516
C        6.19315389       2.13188366       3.77763521       0.00059262      -0.00350304       0.00224734
C        4.91047994       4.31354368       3.77769269       0.01054401      -0.00064858       0.00804509
O        3.86533025       6.47605238       3.97437151      -0.00495443      -0.00134269      -0.00193570
C        2.54541181       8.50156508       3.91506585       0.00456664      -0.01182997      -0.00316332
C        9.91399595      -0.02309616       3.77410844      -0.00636488      -0.00299332      -0.00881045
C        8.67095546       2.11780145       3.75359647       0.00667023       0.00865333      -0.00159185
C        7.41866738       4.25384818       3.68985486       0.00351154      -0.00168158      -0.01813859
C        6.21918232       6.40330185       3.60701681      -0.00405036      -0.00446293       0.00346152
C        4.99361180       8.53452929       3.69612963       0.00464714      -0.00088989       0.00802623
C        0.05217793       1.40575328       3.73795552       0.00235115      -0.00171572       0.01454478
C       -1.16874525       3.54138085       3.75091803      -0.00060418       0.00028682      -0.00010977
C       -2.42712999       5.66882673       3.66954801       0.00275122      -0.00690053      -0.00147188
C       -3.64966180       7.80218300       3.61366651      -0.00645497      -0.00192126       0.00883210
C       -4.88970956       9.93540644       3.65370839       0.00129690       0.00795220       0.00139727
C        2.51243606       1.35333471       3.77059716       0.00037482      -0.00025873       0.00153694
B        1.47784671       3.58817460       3.90788805       0.00033703       0.01186418       0.00172110
C        0.03481943       5.68847842       3.86540321      -0.00283452       0.00509671      -0.00634977
C       -1.18255512       7.80768393       3.73752044      -0.00597711      -0.00426850      -0.00570944
C       -2.41355761       9.92933838       3.70636426       0.00767846      -0.00298950       0.00382234
C        4.96727726       1.40336745       3.79008346      -0.00085890      -0.00501842      -0.00582788
B        3.52255730       3.59709878       3.88889792       0.01072638       0.00971868      -0.00107177
C        1.29699469       7.76253595       3.95729191      -0.00765105       0.00802605       0.00284118
C        0.04982120       9.93753217       3.81066349       0.00166201      -0.00022016      -0.00189908
C        7.43403638       1.40795175       3.78433589       0.00543960       0.00034234       0.00051675
C        6.16098943       3.56360138       3.74085638       0.00583688      -0.00224530      -0.00450281
C        5.00860323       5.72143609       3.73753930      -0.00438532      -0.00004881      -0.00452739
C        3.79245990       7.84979420       3.85693368       0.00740097      -0.00359651      -0.00107715
C        2.52129761       9.93271427       3.84085429      -0.00076559      -0.01440584      -0.01061721
C        9.91146388       1.40762217       3.75327294       0.00809229       0.00137590       0.00729497
C        8.66867638       3.54205420       3.71177470       0.00391488       0.00599997      -0.00387472
C        7.44257339       5.67000716       3.62242972      -0.00022781      -0.00377587      -0.00280421
C        6.22119372       7.81892910       3.61175961       0.00073538      -0.00277819       0.00491901
C        4.98195848       9.95911551       3.71245039      -0.00393609      -0.00097042       0.00150733
Mn       2.46041221       5.02895623       5.10821497      -0.00303379      -0.00216700       0.00103164
O        2.72732889       5.81952009       6.87089863      -0.01344538       0.01280338       0.00045061
O        1.37525144       5.57574756       7.37821954      -0.01402578      -0.00327473       0.00221756
H        1.56453496       4.85290105       8.00524083      -0.00095292       0.01419548       0.00070608
