52
Lattice="12.336457 0.0 0.0 -6.168228499999997 10.683685154694365 0.0 0.0 0.0 15.0" Properties=species:S:1:pos:R:3:forces:R:3 energy=-456.691948813517 free_energy=-456.691948813517 stress="-0.0004066966623501677 -0.000988984151969814 -6.005005896326364e-05 -0.000988984151969814 0.0001811362998301238 -6.81670151862595e-05 -6.005005896326364e-05 -6.81670151862595e-05 0.00011636523288147723" pbc="T T T"
C        0.06542543      -0.00441420       3.70874066      -0.00330010      -0.00311763      -0.00176139
C       -1.18363239       2.11944279       3.68621939       0.01245228      -0.00911668      -0.03162184
C       -2.40794683       4.26014631       3.56056702       0.01777319      -0.01092748       0.01359970
C       -3.63158745       6.40430137       3.51052180       0.02114744      -0.01668118       0.02931413
C       -4.86336199       8.54762836       3.59404310       0.00825681      -0.02148157       0.01999947
C        2.52472060       0.01377665       3.75143336      -0.00881780       0.01241733      -0.01644033
C        1.25420875       2.13605015       3.89375770      -0.00799987       0.01024171      -0.00207554
C        0.02807453       4.21481391       3.89446167      -0.01242009       0.00073403      -0.00242983
C       -1.17009946       6.36719822       3.77768119      -0.00287653      -0.00327593       0.00830290
C       -2.39532202       8.53111417       3.68337616       0.01543540       0.01850617      -0.00026901
C        4.99089830      -0.01501322       3.80606705       0.01478179      -0.00914719      -0.00868030
C        3.75362515       2.09818811       4.05431357      -0.01108862       0.00495373       0.00335722
B        1.04269482       6.46292554       4.74509070      -0.01811366      -0.00954007       0.04332252
C        0.06591533       8.53800649       3.96970035      -0.00559700      -0.00714756      -0.02602505
C        7.46083227      -0.01089902       3.83322274      -0.01093000      -0.01340042      -0.03956556
C        6.22636378       2.12679839       3.83003933      -0.01720097       0.00881823      -0.01766064
C        5.05521522       4.28080076       4.03080240       0.00307574      -0.00095506       0.01536998
C        3.83945058       6.42226009       4.14914234       0.02448075      -0.00448106       0.02349492
C        2.51996597       8.53300040       4.07179630      -0.00711546       0.02028244      -0.00773478
C        9.92388945      -0.01797789       3.75821759       0.00148568      -0.00308962       0.01594322
C        8.68832045       2.12325744       3.64757467      -0.00372243      -0.00719525       0.01650166
C        7.46943055       4.26951327       3.59101036      -0.00065393      -0.00365637       0.00011891
C        6.24547206       6.40979439       3.63073371      -0.00222140      -0.00557574       0.01024521
C        5.00331584       8.53631528       3.77543968      -0.01391831      -0.00054308      -0.01956802
C        0.05869535       1.42553906       3.75367283       0.00325738      -0.00484837       0.01506727
C       -1.17788023       3.53565440       3.66627069       0.01742490      -0.00680119      -0.00491206
C       -2.40473924       5.67919661       3.56169847       0.01573298      -0.01819386       0.00960689
C       -3.63127131       7.83007053       3.56836612       0.02158684      -0.01310363       0.01657598
C       -4.86732504       9.97699942       3.67472825      -0.00306154      -0.00844275       0.00052100
C        2.51416968       1.45223553       3.90581035      -0.01672125       0.01896708      -0.00794157
O        1.21438308       3.50533811       4.04628324       0.01158986       0.01206651       0.00259255
C        0.00363132       5.61396236       4.04332713      -0.04496198      -0.00355384      -0.00150875
C       -1.16813109       7.81080749       3.81962469      -0.00375622       0.00503731      -0.01087101
C       -2.41049201       9.96572180       3.74460861       0.00671555       0.01979945      -0.01228985
C        4.97705296       1.41620914       3.89327710      -0.01563052      -0.00178850      -0.00263227
B        3.90267320       3.47827797       4.68346498      -0.00598866       0.03527492      -0.02707694
C        1.28439490       7.87170371       4.23640512      -0.01806140       0.04418180      -0.03207205
C        0.05891902       9.96542079       3.85356359       0.00181072      -0.01839634      -0.01057153
C        7.45376773       1.41563100       3.74569997      -0.01511697      -0.00094942       0.00626189
C        6.23659814       3.56265553       3.79676734      -0.00269464      -0.00130389      -0.01532585
C        5.03256149       5.69216163       3.90809720       0.00309355      -0.00687463       0.03790154
C        3.77796386       7.81603496       4.00500569       0.00189565      -0.00200944       0.03591409
C        2.52422335       9.95596588       3.87376697      -0.00050694       0.00296196      -0.00528264
C        9.92472848       1.40885019       3.67473014       0.00676915      -0.00787449      -0.00141093
C        8.69155692       3.54872503       3.56332946       0.00513304      -0.00494082       0.00727341
C        7.47060998       5.69296102       3.53295850       0.00262823      -0.00323578       0.02407642
C        6.23902115       7.83342405       3.63765277      -0.01364510      -0.00432829       0.00730791
C        4.99787978       9.95939494       3.73460268      -0.00554643       0.00008449       0.01826695
Mn       3.17965255       5.69411457       5.80557925      -0.05804512       0.01435469       0.06510309
O        3.33358776       3.77496194       5.86444544       0.01468655       0.00232416       0.00487892
O        1.25869429       6.16298316       6.17649316       0.00659547      -0.03645745      -0.11909068
H        0.59112516       5.55495653       6.55191600       0.09190400       0.04142854      -0.02609934
