51
Lattice="12.336457 0.0 0.0 -6.168228499999997 10.683685154694365 0.0 0.0 0.0 15.0" Properties=species:S:1:pos:R:3:initial_magmoms:R:1:forces:R:3 energy=-451.2066421765766 free_energy=-451.2066421765766 stress="-0.0040917345349737524 0.00032962173500656396 1.6437430183881483e-05 0.00032962173500656396 -0.002316894573079342 4.9109641753689544e-05 1.6437430183881483e-05 4.9109641753689544e-05 -7.101366058232951e-06" pbc="T T T"
C       -0.03880606      -0.05181367       3.58635643       0.00000000      -0.00276471       0.00583677       0.00076784
C       -1.27426133       2.08615063       3.48971114       0.00000000      -0.00135861       0.00359975      -0.00073361
C       -2.52451177       4.22976392       3.47568841       0.00000000       0.00353943      -0.00257232      -0.00514313
C       -3.74801978       6.36484104       3.57235328       0.00000000       0.00415954      -0.00124453       0.00119782
C       -4.97597776       8.49817756       3.66856871       0.00000000      -0.00240094       0.00284213      -0.00084369
C        2.43507443      -0.05124453       3.64612293       0.00000000       0.00205735      -0.00275724      -0.00158948
C        1.20789841       2.04944700       3.60663357       0.00000000      -0.00084568      -0.00088707      -0.00576891
C       -0.09024154       4.25874513       3.55268668       0.00000000      -0.00035554       0.00358686      -0.00539899
C       -1.29921770       6.38603498       3.55404451       0.00000000       0.00002903       0.00399746       0.00005383
C       -2.51086687       8.50791300       3.60999746       0.00000000       0.00064746       0.00207723       0.00621847
C        4.90274850      -0.04386653       3.68727152       0.00000000      -0.00106198       0.00313643      -0.00396706
C        3.66160075       2.12500058       3.80746612       0.00000000       0.00189326      -0.00020265       0.00135583
C        1.15618010       6.33247039       3.91752324       0.00000000       0.00497424      -0.00397464       0.00428160
C       -0.03229914       8.48666580       3.72759630       0.00000000      -0.00022012       0.00006680       0.00337787
C        7.37078683      -0.05860257       3.67176660       0.00000000      -0.00317937      -0.00244861       0.00274829
C        6.13832794       2.08370389       3.69222206       0.00000000       0.00010039      -0.00119633       0.00418105
C        4.91220592       4.22201720       3.97842394       0.00000000       0.00012923       0.00539583      -0.00234897
B        3.89660959       6.52265180       4.82431800       0.00000000      -0.00576226      -0.01839891      -0.00784858
C        2.44806422       8.48649757       3.91337406       0.00000000       0.00449810       0.00199949       0.00538591
C        9.82890159      -0.05174123       3.62249415       0.00000000       0.00574865      -0.00205576      -0.00460946
C        8.59525447       2.08323928       3.54058303       0.00000000       0.00113230       0.00208099      -0.00083979
C        7.36342344       4.22215041       3.63575023       0.00000000      -0.00929726       0.00481267       0.00102242
C        6.14864016       6.35650620       3.87967253       0.00000000      -0.00050113       0.00213862      -0.00110096
C        4.89789296       8.51639095       3.85659140       0.00000000      -0.00057793      -0.00412763       0.00204416
C       -0.04048198       1.37113636       3.53508997       0.00000000      -0.00516940       0.00527418       0.00045571
C       -1.28898938       3.51500732       3.46670298       0.00000000       0.00283437       0.00033808       0.00234435
C       -2.52009973       5.65677690       3.50772306       0.00000000       0.00524383      -0.00253687      -0.00217598
C       -3.74116826       7.79089738       3.60692859       0.00000000       0.00107029       0.00108852       0.00376352
C       -4.97041150       9.92354948       3.62665147       0.00000000      -0.00208018       0.00404641      -0.00690846
C        2.43973099       1.37103846       3.69345466       0.00000000       0.00085692      -0.00248136      -0.00270217
B        1.21896631       3.53573493       3.66380632       0.00000000      -0.00487437      -0.00196672      -0.00425072
C       -0.06468916       5.68034561       3.64598920       0.00000000      -0.00211523       0.00335087       0.00582179
C       -1.27779336       7.79957081       3.62444017       0.00000000      -0.00079232       0.00325397       0.00573944
C       -2.50164185       9.92658270       3.65287298       0.00000000       0.00272195       0.00080969       0.00305263
C        4.90371655       1.38156725       3.73202605       0.00000000       0.00127045       0.00075039       0.00383263
C        3.67359746       3.52546633       4.00300526       0.00000000       0.00855320      -0.00161184      -0.00237635
C        1.20130277       7.73597153       3.87622537       0.00000000       0.00180002      -0.00004120       0.00684529
C       -0.03263166       9.91242090       3.69944213       0.00000000      -0.00535225       0.00065829       0.00328367
C        7.36994627       1.36635276       3.61904699       0.00000000      -0.00030965      -0.00268447      -0.00188175
C        6.14361876       3.50470712       3.74679540       0.00000000      -0.00360804      -0.00129514       0.00193224
C        4.97374776       5.63283515       4.16143744       0.00000000       0.01399987      -0.00457284      -0.00177485
C        3.68214224       7.86420451       4.10918046       0.00000000      -0.00062842       0.00568238       0.00140282
C        2.43374825       9.91268558       3.71663080       0.00000000       0.00195169       0.00262776      -0.00412262
C        9.82947393       1.37313510       3.52429198       0.00000000       0.00171317       0.00003019      -0.00293537
C        8.59164164       3.51107450       3.52387358       0.00000000      -0.00302294       0.00496312       0.00306371
C        7.37024648       5.64531793       3.66801303       0.00000000      -0.00241205       0.00496872      -0.00280587
C        6.13914166       7.79205781       3.82312749       0.00000000       0.00025979       0.00082099      -0.00862816
C        4.89716088       9.93203387       3.65523827       0.00000000       0.00417999      -0.00300144       0.00061521
Mn       2.30977550       4.82583492       4.65705986       0.00000000      -0.00551981       0.01266200      -0.00347184
O        2.84015407       5.43340443       6.45328321       1.00000000      -0.01201327      -0.00164505      -0.00558775
O        3.71393309       6.55746775       6.27721897       1.00000000       0.00085898      -0.03119397       0.01502640
