52
Lattice="12.336457 0.0 0.0 -6.168228499999997 10.683685154694365 0.0 0.0 0.0 15.0" Properties=species:S:1:pos:R:3:forces:R:3 energy=-456.74449006815996 free_energy=-456.74449006815996 stress="-0.00016884091966193804 -0.0023259566251872224 3.5721727890788865e-06 -0.0023259566251872224 0.0014225084918861237 7.551964128222864e-06 3.5721727890788865e-06 7.551964128222864e-06 -5.014430158829766e-07" pbc="T T T"
C        0.06707563      -0.00668555       3.69922356       0.00899086      -0.00234764       0.00242038
C       -1.18557913       2.11473876       3.67386456       0.00003800       0.00137417       0.00346602
C       -2.41300416       4.25501604       3.58259629       0.00008923       0.00313050       0.00766498
C       -3.63387490       6.40139804       3.54828466      -0.00107761       0.00199879      -0.00457989
C       -4.86141791       8.54401155       3.61449395      -0.00087154      -0.00285614       0.00495761
C        2.52671207       0.01627316       3.70144356       0.00044149       0.00455557       0.00151160
C        1.25454699       2.13496120       3.85571808      -0.00622769       0.00845902      -0.00200507
C        0.02439928       4.21084626       3.87573325       0.00321349      -0.00811308      -0.01334340
C       -1.17211785       6.36502044       3.74309121       0.00391884      -0.00697774       0.00450184
C       -2.38977068       8.53129453       3.63382549      -0.00331239       0.00237650       0.00275525
C        4.99428604      -0.01408361       3.72751695       0.00072067       0.00076325      -0.00671238
C        3.75256703       2.10036703       4.02048707      -0.00739070      -0.00595311       0.00200954
B        1.03005504       6.48271117       4.67559091       0.00958825      -0.00965281      -0.00031872
C        0.07675222       8.53364867       3.87002477       0.00420716      -0.00134044      -0.00092939
C        7.46433514      -0.01790023       3.77063969      -0.00271158      -0.00554406       0.00834630
C        6.21928309       2.13260973       3.81868385      -0.00327036      -0.00168572       0.00333947
C        5.04607502       4.30486577       4.10800382       0.00249927       0.00688410      -0.00641870
N        3.90321787       6.46120742       4.33655198       0.00470638      -0.00236123       0.00185079
C        2.53894173       8.51492952       4.04736314       0.00105626       0.00089669      -0.01005534
C        9.92548468      -0.02421568       3.74736295      -0.00105464       0.00189649       0.00915395
C        8.68527508       2.12080691       3.65546524      -0.00478738       0.00010126      -0.00574781
C        7.46208886       4.27148889       3.64977432      -0.00039384       0.00233678      -0.01053274
C        6.24417841       6.41685613       3.72493431       0.00803435       0.00610973      -0.00328848
C        5.00959827       8.53154462       3.81529844      -0.00813924      -0.00319800      -0.01209082
C        0.05900517       1.42365582       3.73178218      -0.00046047       0.00159438      -0.00128570
C       -1.18221087       3.53004410       3.66616601       0.00143669      -0.00124320      -0.01223331
C       -2.40888597       5.67407047       3.57344362      -0.00134225       0.00238183      -0.00487847
C       -3.62773692       7.82662162       3.57568412      -0.00384943       0.00104417       0.00312291
C       -4.86555234       9.97659507       3.66077954       0.00670404      -0.00305893      -0.00588061
C        2.51434471       1.45406878       3.85768600      -0.01014132       0.00598104       0.00701655
O        1.21704520       3.50573394       3.99903268       0.00249140       0.00290408       0.01004561
C       -0.00062734       5.61093840       4.00587240       0.00274546      -0.01231644       0.00491313
C       -1.16126560       7.80903311       3.74863385      -0.00038525      -0.00392353       0.00546780
C       -2.40632571       9.96751048       3.67624823      -0.00078085       0.00539782       0.00456861
C        4.97461937       1.41776956       3.84557660      -0.00412617      -0.00360654       0.00848639
B        3.90038613       3.45646847       4.69781338       0.00606115      -0.00191629      -0.00414518
C        1.29605718       7.86385229       4.14671477       0.00352771       0.00456596       0.00851285
C        0.06374056       9.96141777       3.76201059      -0.00042930      -0.00062821       0.00391355
C        7.44940876       1.41471133       3.72382191      -0.00365100      -0.00440673       0.00860521
C        6.22356466       3.57427116       3.84433798      -0.00335349       0.00252216      -0.01202057
C        5.04036930       5.72535012       4.03035815       0.00889597       0.00746715      -0.00333526
C        3.81288664       7.81020813       4.07206023      -0.00507135      -0.00530220      -0.00911810
C        2.53096508       9.94275654       3.83778081      -0.00151624       0.00085804       0.00266063
C        9.92303847       1.40497644       3.66801317      -0.00146721       0.00039468       0.00110484
C        8.68576153       3.54684279       3.59897473      -0.00132317       0.00236613      -0.00288697
C        7.46604813       5.69312516       3.60553567       0.00634997       0.00296764       0.00542525
C        6.24387607       7.83292695       3.69928911      -0.00259795       0.00380563      -0.00279648
C        4.99909306       9.95664086       3.74144053       0.00280045      -0.00080928       0.00493055
Mn       3.08606768       5.56633443       5.88793887      -0.00324799      -0.00569713      -0.00546575
O        3.30929818       3.68035095       5.89608491       0.00482170       0.00701900       0.00573268
O        1.25462017       6.24566475       6.12432819      -0.00113026       0.01359108       0.01022548
H        0.55791349       5.70347637       6.54467681      -0.00922813      -0.01280520      -0.00664062
