51
Lattice="12.336457 0.0 0.0 -6.168228499999997 10.683685154694365 0.0 0.0 0.0 15.0" Properties=species:S:1:pos:R:3:initial_magmoms:R:1:forces:R:3 energy=-443.4719550869528 free_energy=-443.4719550869528 stress="-0.0009681384133065528 -0.003100500720509901 2.030601424240555e-06 -0.003100500720509901 -0.007320683582852071 -2.223141382129016e-06 2.030601424240555e-06 -2.223141382129016e-06 -1.3598656959891475e-05" pbc="T T T"
C       -0.02819853      -0.01824438       3.98626436       0.00000000      -0.00304884       0.00005825       0.00516590
C       -1.27127486       2.12484148       4.04494359       0.00000000       0.00327671      -0.00179675      -0.00279196
C       -2.49047409       4.26562942       3.86618051       0.00000000       0.00371571       0.00028667       0.00207221
C       -3.70946089       6.39623158       3.72150279       0.00000000      -0.00382836      -0.00572942       0.00718233
C       -4.95344208       8.52588563       3.81124435       0.00000000       0.00452263      -0.00490858      -0.00148652
C        2.43833734      -0.03419442       3.89596928       0.00000000      -0.00368611      -0.00204170      -0.00046985
C        1.17653408       2.09956930       4.01691857       0.00000000      -0.00012116       0.00307648       0.00438274
C       -0.02775778       4.20352341       3.93765672       0.00000000      -0.00155130       0.00412187      -0.00043289
C       -1.20874867       6.37045749       3.69301902       0.00000000      -0.00200556      -0.00131946      -0.00219210
C       -2.46877604       8.51811080       3.76004445       0.00000000      -0.00141926       0.00149060      -0.00033131
C        4.90607872      -0.00514143       3.76552873       0.00000000       0.00549636       0.00427842       0.00434744
C        3.62911613       2.10700306       3.61300844       0.00000000      -0.00496347       0.00294393      -0.00069872
P        1.56615985       6.25305487       3.02283385       0.00000000      -0.00049812       0.00077885       0.00694823
C       -0.01087433       8.54812374       3.62884880       0.00000000      -0.00324312      -0.00119481       0.00412929
C        7.36068218       0.02757003       3.82421281       0.00000000      -0.00050250       0.00395641      -0.00388221
C        6.12695576       2.14308734       3.63761904       0.00000000       0.00023337      -0.00281205      -0.00376028
C        4.96318669       4.28322592       3.20452483       0.00000000       0.00191506      -0.00120462       0.00816113
B        3.55709448       6.44951008       3.32582214       0.00000000      -0.00678648      -0.01080644      -0.00220751
C        2.45560756       8.63721801       3.65482218       0.00000000       0.00379482       0.00347525       0.00163713
C        9.84349156       0.02134719       3.95660202       0.00000000      -0.00254809      -0.00088528      -0.00507911
C        8.59431358       2.14755747       3.88892833       0.00000000       0.00319577       0.00373717       0.00062254
C        7.38281667       4.27528134       3.63938939       0.00000000      -0.00219153       0.00028642       0.00343291
C        6.14359751       6.41613609       3.53408176       0.00000000       0.00035024       0.00222960       0.00057229
C        4.91983440       8.56418249       3.75342426       0.00000000       0.00757025      -0.00085369      -0.00003250
C       -0.04599460       1.40272916       4.04785325       0.00000000       0.00214111       0.00089830      -0.00244748
C       -1.26772246       3.53503554       3.98221887       0.00000000       0.00249776      -0.00084114      -0.00213687
C       -2.46840352       5.68217872       3.76681091       0.00000000      -0.00119243      -0.00206884       0.00060406
C       -3.71071091       7.81632239       3.76392488       0.00000000       0.00186521      -0.00542614       0.00128573
C       -4.96158585       9.94426254       3.91988464       0.00000000      -0.00396853      -0.00422337       0.00213735
C        2.41303348       1.38733682       3.87581322       0.00000000      -0.00276516      -0.00016028       0.00351823
N        1.14272541       3.47269321       4.07776529       0.00000000      -0.00340903       0.00273145      -0.00177909
C        0.00965755       5.60344341       3.66790567       0.00000000       0.00224670       0.00278619      -0.00386177
C       -1.22932428       7.80600074       3.67068165       0.00000000      -0.00466211      -0.00200350      -0.00267191
C       -2.48614619       9.94390696       3.80975191       0.00000000       0.00240498       0.00412780      -0.00982886
C        4.89738233       1.42120513       3.67098245       0.00000000      -0.00081270       0.00229480      -0.00047001
P        3.55905066       3.46993448       2.47760948       0.00000000      -0.00247453      -0.00138702      -0.00097640
C        1.24673348       7.91883036       3.47237309       0.00000000       0.00046859       0.00533127       0.00533583
C       -0.02693610       9.97860469       3.74659402       0.00000000       0.00257923      -0.00029048      -0.00021415
C        7.35667760       1.44457789       3.80681381       0.00000000       0.00228950       0.00291827      -0.00442801
C        6.15777031       3.55703860       3.47864887       0.00000000       0.00176776      -0.00315988       0.00000058
C        4.90914407       5.71312660       3.30919827       0.00000000       0.00253024      -0.00025351      -0.00471390
C        3.67697438       7.92457479       3.58578853       0.00000000       0.00484475      -0.00228557       0.00508049
C        2.43611624      10.02816717       3.85427355       0.00000000      -0.00271466       0.00431372      -0.00658970
C        9.82954054       1.43488831       3.99740854       0.00000000       0.00177318      -0.00145072      -0.00500214
C        8.60410192       3.56533659       3.81587864       0.00000000       0.00173919       0.00422298      -0.00066019
C        7.38421011       5.69946158       3.62939772       0.00000000      -0.00568676      -0.00133609       0.00459017
C        6.15048686       7.82977520       3.70648662       0.00000000       0.00706324      -0.00083894      -0.00210337
C        4.90827640       9.97796037       3.92819495       0.00000000      -0.00134161      -0.00061092      -0.00365200
Mn       2.74676829       4.21878213       4.62328192       0.00000000      -0.00293397       0.00186939      -0.01794048
O        2.48656124       5.21464125       6.40012344       1.00000000      -0.00386587       0.00488778       0.00638556
O        3.69097558       4.78507195       6.23281854       1.00000000       0.00193893      -0.00721266       0.01524913
