52
Lattice="12.336457 0.0 0.0 -6.168228499999997 10.683685154694365 0.0 0.0 0.0 15.0" Properties=species:S:1:pos:R:3:forces:R:3 energy=-448.8236015335168 free_energy=-448.8236015335168 stress="-0.0040977948911662485 0.003638710023709788 1.7635766660561953e-05 0.003638710023709788 0.002187501878792821 -3.268384146748376e-05 1.7635766660561953e-05 -3.268384146748376e-05 -4.565137169846266e-06" pbc="T T T"
C        0.07972347       0.02296976       3.75323275       0.00292099       0.00025159      -0.00202340
C       -1.14418422       2.16446361       3.55113710      -0.00740215      -0.00091879      -0.00560886
C       -2.39150069       4.30119208       3.63559549      -0.00352260      -0.00339292       0.01402641
C       -3.63470455       6.43747689       3.81239792      -0.00999722       0.00532026      -0.00508133
C       -4.85994852       8.58054665       3.88299854       0.00439754      -0.00932815      -0.01612544
C        2.55380993       0.05101333       3.87420608      -0.00338797      -0.00330777      -0.00152730
C        1.34784620       2.14456173       3.47591087       0.00335996       0.01086498      -0.00208256
C        0.02246851       4.38026345       3.27362590      -0.00249759      -0.00013553      -0.00336919
C       -1.21109694       6.47533386       3.58443719      -0.01346476      -0.00023900      -0.00700809
C       -2.40262144       8.58530490       3.82918723       0.00099520       0.00254567       0.01511107
C        5.01652140       0.02335768       3.89403500      -0.00122203      -0.00264244      -0.00732217
C        3.83239453       2.13897969       3.95315771       0.00453097      -0.00194213       0.00577860
O        1.17933523       6.48379749       3.57422112       0.01092553      -0.00610433      -0.00220709
C        0.05792495       8.56975369       3.76354369      -0.00352028       0.00839428       0.01158979
C        7.49393752      -0.00709730       3.83480009       0.00164093       0.00207046      -0.00408667
C        6.28079677       2.13820362       3.94240073       0.00554025      -0.00806138      -0.00717662
C        5.09310029       4.26376703       4.09916392       0.00010616       0.00392856      -0.00418196
C        3.82482049       6.38868966       4.09195181       0.00825047      -0.00195626       0.00088770
C        2.51517459       8.50243925       3.83420315       0.00307879       0.00092403       0.00205823
C        9.94889447      -0.00335957       3.76396867      -0.00156077       0.00108817      -0.00471298
C        8.73440881       2.14586526       3.77075053      -0.00245591      -0.00561115      -0.00806827
C        7.49999061       4.28808805       3.88213869       0.00417830      -0.00407355       0.00328205
C        6.26216268       6.42294922       3.95896065       0.00515679       0.00157501      -0.00758857
C        5.00274973       8.54269372       3.88154791       0.00893646      -0.00236819       0.00868872
C        0.09836365       1.45296860       3.57852171       0.00001665       0.00695248       0.00500729
C       -1.16569236       3.59690833       3.46931304      -0.00438182      -0.00076644       0.00284408
C       -2.41879629       5.72678490       3.67719673      -0.01652323      -0.00078277       0.00048872
C       -3.63632806       7.86601494       3.84866435       0.00415918       0.00138883       0.00180002
C       -4.85397285      10.00872963       3.84614429       0.00049886      -0.01126997      -0.00802821
C        2.58054511       1.48416416       3.79999695       0.00204849       0.00127877       0.00408239
P        1.47168354       3.66380535       2.56915857       0.00524405       0.00064072      -0.00997607
C       -0.02849532       5.78913613       3.38854128      -0.00530203      -0.00113069      -0.00800491
C       -1.18879590       7.88333215       3.72910328      -0.00317884       0.00338635      -0.00236532
C       -2.39301053      10.01511457       3.88893701      -0.00221509       0.00039312      -0.00012957
C        5.03376628       1.45032509       3.94643573       0.00576080      -0.00646928      -0.00274921
O        3.90483101       3.52390426       4.22447085      -0.00695937       0.00458229       0.01393643
C        1.26075487       7.86928534       3.74852496      -0.00019527       0.00593759       0.00814501
C        0.08204983       9.98961469       3.84323928      -0.00013674       0.00703190       0.00347272
C        7.49950086       1.42989098       3.85696063       0.00388420      -0.00553416      -0.00674245
C        6.27840184       3.55829749       3.98111867      -0.00050270      -0.00325381       0.00423247
C        5.02303523       5.68506168       4.06339284       0.00858287       0.00692696       0.00324327
C        3.76815272       7.76474273       3.93181250       0.00755860      -0.00164728       0.01411088
C        2.54545199       9.94207262       3.80772235       0.00010446       0.00175569       0.00156995
C        9.96465016       1.43306562       3.69192713      -0.00672675      -0.00002013      -0.00383767
C        8.72628900       3.57663160       3.76467355       0.00310432      -0.00815548       0.00939208
C        7.48037976       5.71199503       3.88963870      -0.00207150      -0.00131464       0.00094843
C        6.24497372       7.85030990       3.91027630       0.00742616      -0.00389330      -0.00207433
C        5.01292846       9.97398966       3.79430671       0.00125038       0.00046043       0.00121233
Mn       2.35766021       4.97876700       4.54297430      -0.00266278      -0.00472287       0.00192572
O        1.84876303       5.44347794       6.34135087       0.00044094      -0.00647776      -0.00511184
O        0.86535258       4.36127742       6.56145573      -0.00660991       0.01211579      -0.00104710
H        1.28859518       3.93042833       7.32833748      -0.00760101       0.01570627       0.00040282
