51
Lattice="12.336457 0.0 0.0 -6.168228499999997 10.683685154694365 0.0 0.0 0.0 15.0" Properties=species:S:1:pos:R:3:initial_magmoms:R:1:forces:R:3 energy=-449.9124573391084 free_energy=-449.9124573391084 stress="-0.007563930872983321 -0.0009580767164196614 -2.598542084653652e-06 -0.0009580767164196614 -0.0008716195935196668 2.909037148547987e-06 -2.598542084653652e-06 2.909037148547987e-06 6.858021427937501e-06" pbc="T T T"
C       -0.11565048       0.10111515       3.69743228       0.00000000      -0.00939510       0.00140840       0.00189175
C       -1.37114797       2.20863759       3.74697704       0.00000000       0.00011821      -0.00032987       0.00295201
C       -2.60424440       4.35513826       3.77312015       0.00000000       0.00257188       0.00772326       0.00972849
C       -3.81094541       6.50684105       3.73657180       0.00000000      -0.00159430      -0.00153104      -0.00965131
C       -5.03687714       8.65913703       3.70625984       0.00000000       0.00450116      -0.00074520      -0.00215768
C        2.35344706       0.10889480       3.63540451       0.00000000      -0.00142931       0.00203800      -0.00617232
C        1.11246321       2.27818227       3.62960989       0.00000000       0.00613455      -0.00235000       0.00372109
C       -0.16412902       4.34503249       3.82183126       0.00000000       0.00019861      -0.00505088      -0.00268306
C       -1.37984944       6.50997824       3.82671483       0.00000000       0.00493432      -0.00151091      -0.00493164
C       -2.58695864       8.65049377       3.73472584       0.00000000       0.00583495      -0.00200920       0.00868330
C        4.82135766       0.08292073       3.54694605       0.00000000       0.00408459      -0.00286854       0.00491269
C        3.57473874       2.15755576       3.15983758       0.00000000       0.00301734       0.00826692       0.00863204
C        1.06958498       6.46405232       3.74638988       0.00000000      -0.00823916       0.01145194      -0.01039478
C       -0.11953136       8.61947892       3.70514002       0.00000000      -0.00458609       0.00092574      -0.00410378
C        7.28411910       0.06695143       3.59230671       0.00000000       0.00145834       0.00275164      -0.00067227
C        6.05648728       2.21597743       3.35466618       0.00000000      -0.00715661       0.00049902      -0.01058104
C        4.94125870       4.41464533       3.04118668       0.00000000      -0.00117018      -0.00045722       0.00439992
C        3.66244583       6.49766760       3.39309851       0.00000000       0.00093836       0.00103492      -0.01106434
C        2.35132605       8.60029843       3.63731695       0.00000000       0.00034492       0.00165817      -0.00356400
C        9.74472245       0.06850144       3.66855552       0.00000000      -0.00065621      -0.00137162      -0.00526459
C        8.50904926       2.21112696       3.62904114       0.00000000       0.00012995      -0.00089142       0.00317391
C        7.30317938       4.36400188       3.54127402       0.00000000       0.00469103      -0.00166811      -0.00929690
C        6.10808140       6.53012858       3.50994440       0.00000000      -0.00601355      -0.00161344      -0.00105243
C        4.83540777       8.63761250       3.61957390       0.00000000       0.00187016      -0.00163423       0.00084388
C       -0.12350728       1.52421125       3.70805648       0.00000000       0.00104509       0.00177750      -0.00768679
C       -1.38997311       3.62825498       3.80473606       0.00000000      -0.00072050       0.00016797       0.00477086
C       -2.59784998       5.78497950       3.79729860       0.00000000       0.00256804       0.00595022      -0.00508048
C       -3.81222289       7.93740590       3.74113844       0.00000000       0.00598659      -0.00267149      -0.00348541
C       -5.04562799      10.08030745       3.70038411       0.00000000      -0.00558555       0.00204142       0.00410416
C        2.34991816       1.53264634       3.48766486       0.00000000       0.00431872       0.00454618       0.00052982
C        1.06386612       3.67247363       3.72744258       0.00000000       0.00065905      -0.00542236      -0.00244818
C       -0.16261243       5.79025185       3.82838990       0.00000000       0.00232088      -0.00494664      -0.00595254
C       -1.35961038       7.93185047       3.76496027       0.00000000       0.00201536      -0.00339134       0.00575388
C       -2.58382690      10.07293887       3.64349346       0.00000000       0.00325376      -0.00072928       0.00150552
C        4.82390076       1.50233523       3.34101077       0.00000000      -0.00338585      -0.00075971       0.00955929
S        3.56266588       3.67043010       2.27193801       0.00000000      -0.00010768       0.00152312       0.00789533
C        1.11689530       7.87248171       3.69812440       0.00000000      -0.00489550       0.00855955       0.00208745
C       -0.11453770      10.04130315       3.61386999       0.00000000       0.00343087      -0.00038585       0.01222742
C        7.27550035       1.49974487       3.52851422       0.00000000      -0.00522019       0.00299737      -0.00554774
C        6.08473426       3.64675979       3.30516036       0.00000000       0.00166827      -0.00024360      -0.00898285
C        4.89528869       5.82730196       3.27742595       0.00000000      -0.00511794      -0.00352449       0.00271093
C        3.59974885       7.88667550       3.55758896       0.00000000       0.00201039      -0.00149125       0.00869959
C        2.34678500      10.02687546       3.63987911       0.00000000       0.00208854       0.00026050      -0.00531785
C        9.73504402       1.49131246       3.69247411       0.00000000      -0.00046538      -0.00213703       0.00878537
C        8.51250922       3.64009463       3.66093372       0.00000000       0.00563845       0.00117104       0.01091688
C        7.31126781       5.79243488       3.60405965       0.00000000      -0.00425300      -0.00159851      -0.01312701
C        6.07513336       7.94642240       3.62669932       0.00000000       0.00142733      -0.00123391       0.00186200
C        4.82015122      10.05599541       3.67696167       0.00000000      -0.00594573      -0.00250045      -0.00475254
Mn       2.39596635       5.10199593       3.68299607       0.00000000      -0.00332190      -0.01168529       0.01362394
O        4.73702103       3.05467082       9.33047340       1.00000000      -0.01098170       0.00642919      -0.00088255
O        5.80147538       2.43149012       9.41601861       1.00000000       0.01098170      -0.00642919       0.00088255
