52
Lattice="12.336457 0.0 0.0 -6.168228499999997 10.683685154694365 0.0 0.0 0.0 15.0" Properties=species:S:1:pos:R:3:forces:R:3 energy=-445.52978157486365 free_energy=-445.52978157486365 stress="-0.004716946107271408 0.001477038300908526 1.8488345393126524e-05 0.001477038300908526 -0.006137569087257918 -1.2716102244819527e-05 1.8488345393126524e-05 -1.2716102244819527e-05 -1.9887008466856188e-05" pbc="T T T"
C        0.02658565      -0.04618719       3.75598774       0.00344284      -0.00697062      -0.00289355
C       -1.19515091       2.10275108       3.61913101      -0.00219098       0.00087568      -0.00502896
C       -2.44073450       4.23767296       3.68213957      -0.00137706       0.00068482      -0.00381007
C       -3.67553128       6.36838578       3.79651973       0.00088171      -0.00113258      -0.00708563
C       -4.91930808       8.49501249       3.78708476      -0.00535067       0.00126261      -0.00470139
C        2.48961273      -0.07143189       3.98282518       0.00051986       0.00303946      -0.00844268
C        1.29906604       2.03789510       3.68410424       0.00584587      -0.00604894      -0.00436685
C       -0.04571605       4.27846799       3.24528919       0.00218306       0.00170347       0.00511044
C       -1.24188251       6.40026704       3.54797063       0.00346667      -0.00631311      -0.00132074
C       -2.44882481       8.50659128       3.83972017       0.00128205       0.00292962      -0.00037648
C        4.96748437      -0.05241568       4.06062155      -0.00178442       0.00944475      -0.00828863
C        3.71743184       2.00586939       4.40708363       0.00323845       0.00263389      -0.00172190
C        1.19716220       6.43516702       3.27988239      -0.01099095       0.00516766       0.00912599
C        0.01439503       8.52686119       3.69547113       0.00103040      -0.00069945       0.00794513
C        7.43182443      -0.02995714       3.90578356       0.00033025       0.00302843      -0.00601848
C        6.22074684       2.08605490       4.24384930      -0.00612234      -0.00555281       0.00353403
C        5.06194594       4.27398326       4.38789863       0.01331147       0.00152195       0.00302037
P        3.60151432       6.15212810       2.96756393      -0.00815454       0.01117221      -0.00297441
C        2.48209744       8.54689664       3.55514484       0.00206305      -0.00263364      -0.00107646
C        9.90157432      -0.02748541       3.74173113       0.00685750      -0.00549731       0.00514117
C        8.67772134       2.09945424       3.90123701      -0.00912081       0.00222982      -0.00325886
C        7.45919105       4.23008185       4.01894506      -0.00296731      -0.00490811      -0.00283961
C        6.21059473       6.36380676       3.81254628       0.00437169       0.00756501       0.00196705
C        4.95519231       8.50462998       3.60604252      -0.00353837      -0.00588035      -0.00531213
C        0.04099489       1.38340674       3.67288328       0.00210492      -0.00375214       0.00001181
C       -1.21632878       3.52460924       3.50260470       0.00085104       0.00441207       0.00406941
C       -2.45004831       5.66367938       3.67823359       0.00359835      -0.00316957       0.00442773
C       -3.68112612       7.79152265       3.81083059      -0.00253090       0.00323355      -0.00865218
C       -4.91348006       9.91621158       3.83487494       0.00080773      -0.00219500       0.00116326
C        2.49786152       1.34400997       4.05768905       0.01012804       0.00060194      -0.01445229
P        1.48684432       3.53785111       2.75147020      -0.00007905       0.00567248       0.01028483
C       -0.02995876       5.70934555       3.31898106       0.00250511      -0.00143559       0.00168962
C       -1.22145060       7.81239303       3.70069315       0.00255353      -0.00515525      -0.00021483
C       -2.43955413       9.91728366       3.98210734      -0.00036105       0.00634270      -0.00255951
C        4.97247161       1.36391938       4.27239925      -0.00125082       0.00385889      -0.00283943
P        3.62542955       3.60106714       5.18616187      -0.00120686      -0.01643781      -0.00964858
C        1.23964003       7.82991543       3.49913817       0.00076763      -0.00133389       0.01173666
C        0.02583062       9.93675749       3.89934632      -0.00151428       0.00349547      -0.00026444
C        7.44186905       1.38696556       4.03566632      -0.00637068       0.00072356       0.00754715
C        6.24760398       3.51302850       4.26160523       0.00234366      -0.00888786       0.00435651
C        5.01639547       5.60829692       3.90705947       0.00988288       0.00374655      -0.00206312
C        3.70979518       7.85431278       3.43137399      -0.00338246      -0.00492037       0.00158765
C        2.49240110       9.95590160       3.74396956       0.00382682      -0.00229099      -0.00343616
C        9.91068315       1.39635267       3.76076344      -0.00579132      -0.00056112      -0.00304325
C        8.68153700       3.52284352       3.88096327      -0.00339348       0.00146376       0.00084932
C        7.44319523       5.65177180       3.89063505       0.00117300      -0.00174578       0.00115411
C        6.18913430       7.78359368       3.69547656      -0.00618857       0.00509506       0.00819025
C        4.96194932       9.93482404       3.69810535       0.00544860      -0.01102715      -0.00285344
Mn       2.16656200       5.06520997       4.29676660       0.00713251      -0.00191324       0.00893823
O        1.73480402       6.13824374       6.49182083      -0.00952276       0.01185877       0.00134773
O        1.64698547       5.14847003       7.49540139      -0.01506354       0.00623428      -0.00110630
H        2.44349661       5.34715176       8.02821400       0.00630453       0.00046425       0.01745193
