52
Lattice="12.336457 0.0 0.0 -6.168228499999997 10.683685154694365 0.0 0.0 0.0 15.0" Properties=species:S:1:pos:R:3:forces:R:3 energy=-449.0014528243047 free_energy=-449.0014528243047 stress="-0.0048901252263768855 -0.0006152308773733929 -4.351056818367062e-06 -0.0006152308773733929 0.0025964118443491274 -1.980821441454561e-05 -4.351056818367062e-06 -1.980821441454561e-05 -2.0442623608272737e-06" pbc="T T T"
C        0.05760770      -0.00979091       3.90587625      -0.00149562       0.00118348      -0.00652759
C       -1.18600532       2.11715221       3.92694582       0.00425240       0.00194252       0.00409536
C       -2.40360324       4.25911211       3.89488182      -0.00400163      -0.00097918      -0.01240223
C       -3.62081531       6.40360661       3.85863604       0.00385874      -0.00368544       0.00021363
C       -4.85929367       8.55334462       3.87534713      -0.00123288       0.00070647      -0.00323242
C        2.52010390       0.01893083       3.86957054       0.00137600       0.00070312       0.00263495
C        1.25911277       2.12447492       3.90131367       0.00106960      -0.00523303      -0.00735487
C        0.01057130       4.27181108       3.97331932       0.00114171      -0.00114104      -0.00103710
C       -1.17696338       6.39581442       3.94100612       0.00464609       0.00243701       0.00510465
C       -2.39912949       8.54501842       3.91318154      -0.00283732      -0.00641112      -0.00292840
C        4.99336495      -0.00594033       3.77342820      -0.00223712      -0.00385252       0.00193741
C        3.74271988       2.09722083       3.44502506       0.00050840       0.00826556      -0.00026166
O        1.20231635       6.42635669       3.95629557      -0.01353232       0.00547514      -0.00174150
C        0.05529680       8.52124579       3.89531465       0.00198556       0.00203517      -0.00214348
C        7.46226701      -0.03684677       3.79734830       0.00351442      -0.00002848       0.00461083
C        6.23981128       2.11604108       3.57310426      -0.00041723      -0.00368413       0.00000014
C        5.10016678       4.30508978       3.27807407       0.00766976       0.00581570      -0.00251331
C        3.85690382       6.38233338       3.55815590      -0.00983556      -0.00408967       0.01293710
C        2.50415228       8.47323555       3.83041754       0.00323209      -0.00705766       0.00427136
C        9.91962753      -0.04101906       3.85925499       0.00068738      -0.00391351       0.00019098
C        8.69423486       2.10928986       3.80303442       0.00374114       0.00071342      -0.00299685
C        7.49348775       4.25974424       3.68223521      -0.00699898       0.00370052      -0.00296742
C        6.29934033       6.42805830       3.64362346      -0.00244816       0.00239813       0.00719248
C        4.99747418       8.51830092       3.79060101       0.00147445      -0.00007682       0.00866960
C        0.05597863       1.42560263       3.92964886      -0.00011070      -0.00154890       0.00436561
C       -1.17697870       3.54464055       3.93783126       0.00053355       0.00282685      -0.00403153
C       -2.40019547       5.67836227       3.90964879       0.00667533      -0.00166256      -0.00443065
C       -3.63096654       7.83389104       3.89412780      -0.00341770      -0.00471369      -0.00438959
C       -4.87114894       9.98022021       3.90776865      -0.00091634       0.00261946      -0.00734080
C        2.49934805       1.45186798       3.75851725       0.00450086       0.00176412       0.00006769
O        1.21336993       3.52672556       4.08287525      -0.00376358      -0.01079837      -0.00491804
C        0.01395993       5.67761177       3.95006737       0.00043297       0.00125170       0.01295856
C       -1.17860187       7.82347990       3.92688428       0.00193792       0.00134028      -0.00177083
C       -2.41075912       9.97943958       3.86175296      -0.00200748      -0.00715940      -0.00152208
C        4.98781214       1.41676421       3.58322556      -0.00228101      -0.00178419       0.00156662
P        3.69123371       3.60737081       2.49573263      -0.00312273       0.00662542       0.00068925
C        1.25947488       7.81064204       3.88866652      -0.00198320      -0.00137938       0.00900295
C        0.05825710       9.95289579       3.82437614       0.00209498       0.00127552      -0.00368564
C        7.46114526       1.39748440       3.72718708       0.00427104       0.00037904      -0.00501571
C        6.27366773       3.54257375       3.49433318       0.00020280      -0.00201631      -0.00631932
C        5.09069588       5.73175830       3.44013779      -0.00306733       0.00266911       0.00953102
C        3.76596796       7.76628277       3.72889367       0.00274330      -0.00208134      -0.00140163
C        2.51690891       9.90998173       3.83415134       0.00142522      -0.00645746       0.01236349
C        9.92786413       1.39545122       3.87446409       0.00484496      -0.00155619       0.00189300
C        8.70417471       3.53961821       3.80305420      -0.00809711       0.00148263      -0.00510875
C        7.50341341       5.68927123       3.72908035      -0.00019507       0.00345029      -0.00612261
C        6.25436008       7.83979012       3.78059736       0.00066028       0.00250630      -0.00555659
C        4.99243764       9.94308939       3.86599874       0.00026971      -0.00071513       0.00043892
Mn       2.86343072       4.89246178       4.31348095       0.00304362       0.00111250      -0.00485860
O        2.68908441       5.33424599       6.18001816      -0.00021915      -0.00312568       0.00628042
O        1.27867199       5.36818723       6.50167796       0.00089276       0.00906033       0.00935802
H        1.27142784       4.73940698       7.24838089       0.00053119       0.01141139      -0.00779487
