51
Lattice="12.336457 0.0 0.0 -6.168228499999997 10.683685154694365 0.0 0.0 0.0 15.0" Properties=species:S:1:pos:R:3:initial_magmoms:R:1:forces:R:3 energy=-441.83603200568695 free_energy=-441.83603200568695 stress="-0.003823749947370666 0.0015398229633567762 1.487991797285551e-06 0.0015398229633567762 -0.007037429486896308 1.3029138712297926e-05 1.487991797285551e-06 1.3029138712297926e-05 -1.3708501948730085e-06" pbc="T T T"
C        0.06188492      -0.10772937       3.49977629       0.00000000      -0.00286395       0.00282252       0.00927984
C       -1.15821874       2.05036909       3.42712236       0.00000000      -0.00031938      -0.00632317      -0.00239207
C       -2.39372387       4.18490889       3.56390821       0.00000000       0.00353464      -0.00495696      -0.00206303
C       -3.63603025       6.31335657       3.64663004       0.00000000      -0.00229614      -0.00068887      -0.00520328
C       -4.88332421       8.43619980       3.56621405       0.00000000      -0.01030644      -0.00013616      -0.00803572
C        2.52707141      -0.12776784       3.70320141       0.00000000      -0.00985875       0.00572530       0.01145864
C        1.33451230       1.96627403       3.37106518       0.00000000      -0.00333668       0.01329672      -0.00436647
C        0.01262243       4.22998935       3.11847993       0.00000000       0.00368064      -0.00372546      -0.00672963
C       -1.19382703       6.34481685       3.45544260       0.00000000      -0.00165162      -0.00748895      -0.00857902
C       -2.41189082       8.45288486       3.65959029       0.00000000      -0.00021237      -0.00242207       0.00124498
C        4.99941890      -0.09714196       3.85644349       0.00000000       0.00320362       0.00271789      -0.00221092
C        3.73883848       1.96059976       4.12930266       0.00000000       0.00016684       0.00547025      -0.00377154
C        1.24115003       6.39238333       3.19474022       0.00000000      -0.00601650       0.00946405       0.00506568
C        0.05126210       8.47868118       3.57856138       0.00000000       0.00576416      -0.00535367      -0.00534481
C        7.46793711      -0.07494779       3.74777354       0.00000000      -0.00246423      -0.00697967      -0.00019895
C        6.25088329       2.03874221       4.06761836       0.00000000       0.01063314      -0.00569957      -0.00069610
C        5.09439526       4.22572238       4.22321468       0.00000000       0.00509843      -0.00272689       0.00007202
P        3.57292358       6.07699101       2.89783983       0.00000000      -0.00371181       0.01009599       0.00547764
C        2.51818190       8.49995138       3.42822943       0.00000000       0.00352664       0.01148415       0.00444666
C        9.93932645      -0.07803273       3.55474681       0.00000000       0.00507375      -0.00159534       0.00165351
C        8.71655640       2.04933759       3.74972637       0.00000000      -0.00251098      -0.00162451      -0.00408629
C        7.49823671       4.17878249       3.87985111       0.00000000      -0.00139019       0.00166114      -0.00721349
C        6.24395255       6.30711471       3.63661959       0.00000000       0.01275693       0.00248951       0.00151644
C        4.98590901       8.44345901       3.41292265       0.00000000      -0.00408683      -0.00642715       0.00881866
C        0.07495498       1.32068725       3.41300309       0.00000000       0.00078087       0.00175138       0.00016339
C       -1.16855741       3.47517980       3.36820477       0.00000000       0.00747264      -0.00750230       0.00435556
C       -2.40553288       5.60981636       3.56621439       0.00000000      -0.00324295      -0.00383201      -0.01213643
C       -3.64407333       7.73603436       3.62310028       0.00000000      -0.00715773      -0.00179994       0.00484772
C       -4.87641257       9.85687889       3.57327542       0.00000000      -0.00815839      -0.00023899       0.00695526
C        2.53598643       1.28740157       3.74813152       0.00000000      -0.00864708       0.01007991       0.00154321
P        1.48863133       3.48246714       2.44636557       0.00000000      -0.00183800       0.00997549       0.00168967
C        0.02077690       5.65993834       3.22745702       0.00000000       0.00287278      -0.00158460      -0.00664714
C       -1.18057337       7.75888458       3.57682427       0.00000000       0.00478066      -0.00791863       0.00597470
C       -2.40349490       9.86636904       3.75555690       0.00000000      -0.00310225       0.00431342       0.00799875
C        4.99891373       1.32087252       4.04975410       0.00000000       0.00574782       0.00394308       0.01093746
P        3.59069372       3.56175852       4.88651390       0.00000000      -0.01318128      -0.00089677       0.00000744
C        1.27740486       7.78678811       3.40315690       0.00000000       0.00835899       0.00925116      -0.01178564
C        0.06128290       9.89251132       3.74259962       0.00000000      -0.00050211      -0.00791551      -0.00175544
C        7.47676414       1.34050750       3.87598294       0.00000000       0.00343915      -0.01060461      -0.00449361
C        6.28077521       3.46391730       4.10969349       0.00000000       0.00471836      -0.00658422      -0.01539313
C        5.05029532       5.55206947       3.74063388       0.00000000       0.01702968       0.00098020       0.00632606
C        3.73477077       7.79218260       3.28827991       0.00000000      -0.00499511       0.00176758      -0.00322788
C        2.52958803       9.90992882       3.58739757       0.00000000       0.00321734       0.00557910       0.01083445
C        9.94836214       1.34584708       3.58375278       0.00000000      -0.00201786      -0.00160075       0.00051870
C        8.72351686       3.47166924       3.74748849       0.00000000      -0.00102225       0.00194020       0.00264219
C        7.48033917       5.59836454       3.73493397       0.00000000       0.00224179       0.00190333      -0.00030446
C        6.22263279       7.72438622       3.49794409       0.00000000      -0.00530494       0.00024399      -0.00250434
C        4.99570779       9.87634927       3.48189208       0.00000000       0.00130793      -0.00467794       0.00320726
Mn       2.09207953       4.89444934       3.99221939       0.00000000      -0.00488927      -0.00613897       0.00063641
O        0.93395243       6.66658607       9.33807469       1.00000000       0.00016894      -0.00065973       0.00079851
O        0.50574334       7.66635609       9.92656175       1.00000000      -0.00049068       0.00114706       0.00066859
