53
Lattice="12.336457 0.0 0.0 -6.168228499999997 10.683685154694365 0.0 0.0 0.0 15.0" Properties=species:S:1:pos:R:3:forces:R:3 energy=-463.5976150818819 free_energy=-463.5976150818819 stress="-0.003296531584858897 0.003167224878413622 -3.2459634567339385e-05 0.003167224878413622 -0.004415374173269923 2.902426587611207e-05 -3.2459634567339385e-05 2.902426587611207e-05 -1.2599687544446846e-05" pbc="T T T"
C       -0.03363153       0.00484341       3.80031105       0.00560329       0.00128570       0.00621895
C       -1.24729480       2.15359527       3.89746621       0.00109348       0.00673619       0.00479444
C       -2.47539426       4.28318583       3.87318102      -0.00305192      -0.00051995       0.00730788
C       -3.72908684       6.41151763       3.75433668       0.00196819      -0.00157153      -0.00214691
C       -4.98697887       8.53995220       3.69694776      -0.00133575      -0.00392302      -0.00177611
C        2.42643803      -0.00589281       3.77614407       0.00086297      -0.00131235      -0.00627359
C        1.21265374       2.14043853       3.89608695      -0.00653258       0.00579130      -0.00074406
C       -0.00091297       4.31030484       4.03293852      -0.00196153      -0.00006573      -0.00279841
C       -1.27056076       6.43015854       3.90046250       0.00408042      -0.00004738       0.00070398
C       -2.51474653       8.55025781       3.77485706      -0.01117008       0.00506316       0.00137412
C        4.89692596       0.00300244       3.76123537       0.00160488       0.00508418       0.00621500
C        3.67464439       2.11829487       3.75402928      -0.00412670      -0.00604748      -0.00073405
C        2.49418086       4.21204352       4.05192826       0.00355260      -0.00636985       0.00348317
N        1.09737747       6.51803685       4.19772749       0.00942067       0.00192237       0.00326515
C       -0.06039625       8.56320272       3.81856702      -0.00385806      -0.00286182      -0.00421678
C        7.36734461       0.01036703       3.81231820      -0.01153084       0.01146415      -0.00646034
C        6.15146785       2.12826636       3.75377186       0.00214840      -0.00929513      -0.00246464
C        4.93437713       4.24618842       3.57709958       0.00443789      -0.00454492      -0.00643751
S        3.59559605       6.38796363       2.57330169       0.00631901       0.01192171       0.00140686
C        2.40487123       8.56210575       3.75972698       0.00192259       0.00297990       0.00798529
C        9.84161119       0.01180637       3.81542811      -0.00596269       0.00619376       0.00298505
C        8.62003431       2.14347327       3.83525781       0.00654219      -0.00071696      -0.00169548
C        7.39647339       4.26869924       3.72061127      -0.00145459      -0.00989898      -0.00195835
C        6.15009813       6.40106045       3.52548140      -0.00114524       0.00380330      -0.00553298
C        4.89036436       8.54611952       3.63070814      -0.00246433      -0.00153503      -0.00007069
C       -0.02279726       1.43359978       3.87405681      -0.00190478       0.00466885      -0.00188364
C       -1.23169853       3.58636723       3.93982843      -0.00558400       0.00253310       0.00623312
C       -2.49160251       5.70446197       3.84485847       0.00297322       0.00088819       0.00715213
C       -3.74595616       7.83319761       3.73891112      -0.00645162      -0.00106969      -0.00366800
C       -4.97767774       9.96890605       3.75890367       0.00419406      -0.00486474       0.00005988
C        2.43497836       1.41717990       3.81070592      -0.00873384       0.00015815       0.00226021
C        1.24328444       3.58068308       4.00901430      -0.00207172       0.00319340      -0.00031580
C       -0.03414096       5.74964168       4.05061407       0.00890041      -0.00048400      -0.00220603
C       -1.28454097       7.84439475       3.83175814      -0.01012506       0.00148846      -0.00421944
C       -2.50886383       9.97366838       3.76227419       0.00216992       0.00468823      -0.00361126
C        4.91077901       1.41904337       3.74536443       0.00033433      -0.00134653      -0.00773798
C        3.68103785       3.54397329       3.74443734       0.00437488      -0.00635611       0.00552450
C        1.14809424       7.85795378       3.88839356       0.00417730       0.00178446      -0.00275499
C       -0.03897051       9.98599622       3.78357276      -0.00479376       0.00170106       0.01626159
C        7.38167891       1.42881462       3.80669860       0.00420348       0.00543344      -0.00958746
C        6.16654673       3.54766771       3.68226619      -0.00058901      -0.01318550      -0.00060504
C        4.97692339       5.63810944       3.32237255      -0.00122462       0.00326400      -0.00829865
C        3.63572086       7.88055837       3.52196500      -0.00064992      -0.00910254      -0.00327156
C        2.43066523       9.98595094       3.80787584      -0.01314351       0.00822301      -0.00032823
C        9.85375040       1.43817433       3.85800890       0.00583643       0.00459446       0.00347590
C        8.62931115       3.56560279       3.81630488       0.00242809      -0.00584923      -0.00358402
C        7.38529450       5.69187139       3.67440128       0.00011389      -0.00362940      -0.00061186
C        6.11970245       7.82621196       3.59164326      -0.00179720       0.00297801      -0.00374201
C        4.89970396       9.97603748       3.76566074      -0.00070565       0.00138872       0.00702070
Mn       2.71965486       5.87017276       4.94564782       0.00628751      -0.00585667       0.00008804
O        3.91782672       5.43579904       6.29644153       0.00384703       0.00415404       0.00415943
O        2.98886285       5.49858019       7.46237767       0.01064867      -0.00218818       0.00482688
H        3.49376630       6.12953897       8.00995865       0.00232319      -0.01074256      -0.00306642
