51
Lattice="12.336457 0.0 0.0 -6.168228499999997 10.683685154694365 0.0 0.0 0.0 15.0" Properties=species:S:1:pos:R:3:initial_magmoms:R:1:forces:R:3 energy=-449.4103909909753 free_energy=-449.4103909909753 stress="-0.0063752704223388745 0.0012358035865189664 2.218930417855523e-05 0.0012358035865189664 0.0009963558271585567 -2.273287240994573e-05 2.218930417855523e-05 -2.273287240994573e-05 6.901325007762039e-07" pbc="T T T"
C        0.02468397       0.00735447       3.68098917       0.00000000       0.00053890      -0.00305430      -0.00136669
C       -1.20805257       2.13665350       3.46016999       0.00000000       0.00582600      -0.00758482      -0.01394341
C       -2.46530022       4.28273350       3.54379200       0.00000000       0.00200753       0.00311215       0.00746262
C       -3.69154694       6.42553967       3.71266269       0.00000000      -0.00017753       0.00547021      -0.00239079
C       -4.91068665       8.56579149       3.79336259       0.00000000      -0.00727697      -0.00069737       0.00357772
C        2.49088136       0.02717569       3.79959872       0.00000000      -0.00173114       0.00931593      -0.00357713
C        1.28179787       2.09128997       3.38234180       0.00000000      -0.00773788       0.00354033      -0.00476951
C       -0.07132126       4.33424581       3.21378800       0.00000000       0.00210518      -0.00630704       0.01138465
C       -1.26637615       6.44804503       3.59783428       0.00000000       0.00315080      -0.00069870      -0.00733054
C       -2.45774486       8.57465210       3.79661349       0.00000000       0.00147138      -0.00264691       0.00079556
C        4.96186940       0.01604738       3.85447342       0.00000000       0.00627059      -0.00171322      -0.00873584
C        3.73118937       2.19984516       3.83601070       0.00000000      -0.00437301      -0.00182298       0.01571002
C        1.17144410       6.39888668       3.71453453       0.00000000       0.00861479      -0.00517540      -0.00324234
C        0.01287126       8.54987570       3.79891510       0.00000000       0.00554793      -0.00353920      -0.00374512
C        7.43951459      -0.01775278       3.81059600       0.00000000       0.00159004      -0.01104679      -0.00802007
C        6.21446036       2.13029982       3.82337905       0.00000000       0.00268990       0.00109903      -0.00662893
C        4.97741806       4.27577563       3.88222817       0.00000000       0.00410934       0.00061232       0.00015233
N        3.81617334       6.41493067       3.99177026       0.00000000      -0.00146293       0.00175790      -0.00163268
C        2.50509691       8.50105375       3.85750574       0.00000000      -0.00215547       0.00017665      -0.00857490
C        9.89760894      -0.01614741       3.72197112       0.00000000      -0.00501803      -0.00038768      -0.00188338
C        8.66980101       2.12827785       3.67554127       0.00000000      -0.00292265       0.00271330      -0.00138037
C        7.43534739       4.27457044       3.73638863       0.00000000      -0.00123652       0.00955450      -0.00031823
C        6.20782725       6.42882316       3.81137616       0.00000000       0.00610834      -0.00329960      -0.00200647
C        4.96421388       8.53595229       3.82815449       0.00000000      -0.00319659       0.00162167      -0.01457408
C        0.02873874       1.43180870       3.49499679       0.00000000       0.00237246      -0.00533213       0.00708540
C       -1.23211763       3.56748616       3.38027128       0.00000000       0.00288030      -0.00647139       0.00318578
C       -2.47407674       5.71223486       3.60878503       0.00000000       0.00006515       0.00526967       0.00300441
C       -3.68414907       7.85352701       3.77119187       0.00000000      -0.00429926       0.00250553       0.00675685
C       -4.91003089       9.99285021       3.76656038       0.00000000       0.00012415       0.00135019       0.00441345
C        2.49352430       1.45256031       3.71145900       0.00000000      -0.00890048       0.00961284       0.00270297
S        1.39964374       3.65479010       2.62813670       0.00000000      -0.00054854      -0.00275162       0.00546218
C       -0.03552362       5.73624653       3.47151837       0.00000000       0.00372708      -0.00654726       0.00687513
C       -1.23281282       7.86165645       3.74397834       0.00000000       0.00529532      -0.00240626      -0.00623735
C       -2.44566860       9.99514280       3.84412009       0.00000000       0.00099782       0.00114247      -0.00520086
C        4.96862013       1.44142620       3.85769072       0.00000000       0.00308652       0.00018492       0.00029179
C        3.77974671       3.58619228       3.95085370       0.00000000      -0.00408856      -0.00260728      -0.00638492
C        1.25025122       7.78804961       3.80251023       0.00000000       0.00039669      -0.00005939       0.00152570
C        0.02704504       9.97052107       3.83797759       0.00000000       0.00475166      -0.00627770      -0.00925895
C        7.44604265       1.40806025       3.77651568       0.00000000      -0.00012688      -0.00826936      -0.00006722
C        6.22247708       3.55409491       3.81002939       0.00000000       0.00277250       0.00572434      -0.00117417
C        4.98960435       5.72961443       3.88572373       0.00000000       0.00920755      -0.00119239       0.00714564
C        3.74871323       7.78790995       3.89663250       0.00000000      -0.00127755       0.00526358      -0.00295331
C        2.50304173       9.93392296       3.80141593       0.00000000      -0.00096468      -0.00682505       0.00330697
C        9.90667584       1.41757112       3.61582403       0.00000000       0.00006651       0.00103337       0.00342738
C        8.66040048       3.55832848       3.64956389       0.00000000      -0.00227510       0.00857528       0.00813972
C        7.42813944       5.70376575       3.74748953       0.00000000       0.00510039       0.00387387       0.00905988
C        6.19920285       7.84761991       3.81271291       0.00000000      -0.00528311      -0.00361070       0.00155736
C        4.95951252       9.96312520       3.74508732       0.00000000      -0.00317096       0.00246402      -0.00177074
Mn       2.44952814       5.12169547       4.45399132       0.00000000      -0.00767626      -0.00099449       0.01441027
O        2.16085766       5.22049963       6.37205799       1.00000000      -0.01123067       0.00768631       0.01440087
O        1.47042961       4.20201194       5.89074122       1.00000000      -0.00374406       0.00765864      -0.01466665
