51
Lattice="12.336457 0.0 0.0 -6.168228499999997 10.683685154694365 0.0 0.0 0.0 15.0" Properties=species:S:1:pos:R:3:initial_magmoms:R:1:forces:R:3 energy=-449.3575515695149 free_energy=-449.3575515695149 stress="-0.0064077511683089975 -0.001965125003550281 -2.09640065845716e-05 -0.001965125003550281 0.0007946285588356205 -4.0398345739390424e-07 -2.09640065845716e-05 -4.0398345739390424e-07 -7.857817306492514e-08" pbc="T T T"
C       -0.01900593       0.02197068       3.82052754       0.00000000       0.00316603      -0.00018228      -0.00204954
C       -1.27667458       2.13074003       3.81314928       0.00000000      -0.00108543       0.00271852       0.00324634
C       -2.50135128       4.27669705       3.77420098       0.00000000      -0.00081951      -0.00163686      -0.00533627
C       -3.70797474       6.43079267       3.75040469       0.00000000       0.00240302       0.00035009      -0.00700392
C       -4.93813339       8.58134689       3.78916436       0.00000000       0.00183286      -0.00196291       0.00518698
C        2.45275769       0.03269826       3.76332082       0.00000000       0.00265232       0.00046796       0.00354679
C        1.21253514       2.20291097       3.80142320       0.00000000      -0.00032310      -0.00221643       0.00231764
C       -0.04407366       4.26276132       3.88983831       0.00000000       0.00148613       0.00006307      -0.00021933
C       -1.27636274       6.42997047       3.83356454       0.00000000      -0.00419289       0.00079299      -0.00242302
C       -2.48563016       8.57210904       3.78823077       0.00000000      -0.00102448      -0.00056573      -0.00402949
C        4.91921256       0.00999821       3.65129565       0.00000000      -0.00616726      -0.00250432      -0.00299356
C        3.66098268       2.09781140       3.34286385       0.00000000       0.00073180       0.00054632      -0.00123414
C        1.15919238       6.39391287       3.96748210       0.00000000       0.00572050      -0.00686778      -0.00057333
C       -0.01702253       8.54181177       3.80380287       0.00000000      -0.00191157       0.00203588      -0.00355618
C        7.38410782      -0.01423402       3.69675607       0.00000000       0.00115849      -0.00002869      -0.00719392
C        6.14578090       2.14601494       3.46777328       0.00000000      -0.00223101      -0.00024870       0.00600813
C        5.00049009       4.35971928       3.27241074       0.00000000      -0.00434956       0.00169625       0.00269638
N        3.79905064       6.42010573       3.75410563       0.00000000      -0.00438658      -0.00499649       0.00662097
C        2.46493631       8.50276580       3.82710054       0.00000000       0.00278253      -0.00227098       0.00217588
C        9.84105665      -0.01508395       3.78000667       0.00000000       0.00064397       0.00556462       0.00279184
C        8.60500294       2.13244803       3.68439421       0.00000000       0.00213247      -0.00027688       0.00259758
C        7.39672688       4.28941713       3.59790151       0.00000000       0.00077190      -0.00063956      -0.00490008
C        6.20102823       6.45994684       3.62022897       0.00000000      -0.00193043       0.00027252      -0.00047110
C        4.93239639       8.55129069       3.78124901       0.00000000      -0.00154414       0.00412564      -0.00574274
C       -0.02752562       1.44634241       3.82895170       0.00000000      -0.00245251      -0.00094843       0.00216972
C       -1.28764501       3.55042579       3.82469618       0.00000000       0.00002035       0.00182349      -0.00204434
C       -2.49363405       5.70818227       3.78846906       0.00000000      -0.00128993      -0.00224971      -0.00473857
C       -3.70999610       7.85958334       3.78274823       0.00000000       0.00240648      -0.00102668      -0.00092745
C       -4.94762911      10.00330104       3.81436808       0.00000000       0.00509334      -0.00175696       0.00298436
C        2.45020829       1.45796928       3.66842773       0.00000000       0.00164181       0.00015261       0.00211189
C        1.16787125       3.58698002       3.91760316       0.00000000       0.00473600      -0.00011990       0.00100216
C       -0.04608307       5.71151034       3.89798369       0.00000000      -0.00262755       0.00076509      -0.00272244
C       -1.25799558       7.85197280       3.81058600       0.00000000      -0.00259851       0.00170003      -0.00343024
C       -2.48336264       9.99645597       3.73967893       0.00000000      -0.00279340      -0.00289288       0.00192987
C        4.91268475       1.43572132       3.47090491       0.00000000      -0.00247593      -0.00211191       0.00363439
S        3.55285745       3.67747593       2.61629659       0.00000000      -0.00492112       0.00019905       0.00604052
C        1.22154254       7.78398200       3.86644627       0.00000000       0.00040738      -0.00176684       0.00414365
C       -0.01514859       9.96551391       3.71640506       0.00000000      -0.00360820       0.00284739      -0.00263716
C        7.36937790       1.42168503       3.61246598       0.00000000       0.00150567       0.00073680       0.00274612
C        6.16371512       3.58061166       3.43044434       0.00000000      -0.00426689       0.00140382       0.00308775
C        4.98338098       5.76681174       3.49965062       0.00000000      -0.00171217      -0.00031472       0.00376324
C        3.71765608       7.79387062       3.79984629       0.00000000       0.00210031      -0.00303463      -0.00292839
C        2.44872639       9.93558859       3.76912119       0.00000000       0.00317659      -0.00053377      -0.00247872
C        9.82939676       1.41084985       3.76277357       0.00000000       0.00108654       0.00436474       0.00839044
C        8.61079589       3.56311293       3.68834698       0.00000000       0.00070874      -0.00241146      -0.00113941
C        7.40927587       5.71743657       3.65413472       0.00000000       0.00177678       0.00059939      -0.00316212
C        6.17413554       7.87049247       3.74244697       0.00000000      -0.00242864       0.00204585      -0.00036895
C        4.91597405       9.97436319       3.80659954       0.00000000      -0.00004470       0.00581904      -0.00670527
Mn       2.54961234       5.09162585       4.43503400       0.00000000       0.00194474       0.00115559      -0.00266041
O        2.38352497       4.98893705       6.39469553       1.00000000       0.01728220      -0.00221645       0.00908297
O        3.35996188       4.20519633       5.97498730       1.00000000      -0.00818339       0.00353523      -0.00460550
