52
Lattice="12.336457 0.0 0.0 -6.168228499999997 10.683685154694365 0.0 0.0 0.0 15.0" Properties=species:S:1:pos:R:3:forces:R:3 energy=-449.4553165226908 free_energy=-449.4553165226908 stress="0.0004889798828817758 0.00231937807602408 1.5909634486558573e-06 0.00231937807602408 -0.0005425690297960489 -3.967980190527808e-06 1.5909634486558573e-06 -3.967980190527808e-06 1.1366869908187906e-06" pbc="T T T"
C        0.07582302       0.10572094       3.83288427       0.00604952      -0.00157169      -0.00259659
C       -1.15029798       2.24851433       3.87286299      -0.00095654       0.00050241       0.00316842
C       -2.37651007       4.38585369       3.84071142      -0.00277597      -0.00447718      -0.00551751
C       -3.62852047       6.51191155       3.80140489       0.00123888      -0.00252325      -0.00011791
C       -4.87670237       8.64561563       3.77677836      -0.00551459       0.00126757      -0.00150013
C        2.53302713       0.14517603       3.86169580       0.00385927      -0.00296610       0.00558429
C        1.28176822       2.24706831       3.89800040      -0.00346420       0.00087045      -0.00181449
C        0.07541562       4.35285873       3.87267242       0.00263941       0.00347563       0.00184481
C       -1.13840496       6.50527573       3.84169882       0.00233475      -0.00546056      -0.00439960
C       -2.40970009       8.65393680       3.86568138      -0.00470574      -0.00278858      -0.00085953
C        4.99541673       0.10438738       3.91847025       0.00296273       0.00231196      -0.00047602
C        3.81126884       2.23109745       3.82986219      -0.00093062      -0.00148561      -0.00340637
C        1.35503884       6.53348908       3.82843735       0.00098280       0.00118592      -0.00133558
C        0.05435157       8.65586297       3.92769699       0.00181125      -0.00276049       0.00388348
C        7.46901949       0.11287138       3.95047454      -0.00353097       0.00415579      -0.00701738
C        6.25627177       2.22600335       3.87173265       0.00087734       0.00399452       0.00698828
C        5.06026595       4.29930433       3.68430924      -0.00045895      -0.00103179       0.00736327
P        3.42995055       6.37148438       2.99839279      -0.00316393       0.00541844      -0.00569523
C        2.51709774       8.69354173       3.83829326       0.00667101      -0.00553256      -0.00319736
C        9.94985585       0.11561153       3.88412105      -0.00466857      -0.00345890      -0.00544574
C        8.72178399       2.24631975       3.89654076      -0.00155256       0.00390351      -0.00280018
C        7.49450386       4.37328234       3.80281707      -0.00800688       0.00031453       0.00164565
C        6.21793102       6.48551556       3.68353700       0.00261661       0.00277970       0.00693469
C        4.99127472       8.64665087       3.69784332       0.00240808       0.00481727       0.00213397
C        0.08626238       1.54169208       3.86822599      -0.00181197      -0.00191239       0.00054854
C       -1.14014482       3.66715113       3.85087857       0.00193025       0.00116949      -0.00120209
C       -2.37884321       5.80473622       3.82861560       0.00222703      -0.00540992      -0.01048141
C       -3.63936320       7.93825584       3.81146392      -0.00761506      -0.00105660       0.00235948
C       -4.86132243      10.08608534       3.82210708       0.00469809      -0.00164162       0.00191153
C        2.54152605       1.59699615       3.87097429      -0.00366282      -0.00181090       0.00398481
O        1.23379921       3.61907673       4.03650475      -0.00042404       0.00259769       0.00869543
C        0.12264080       5.78483323       3.83859862       0.00300827       0.00054546       0.00273342
C       -1.17270604       7.93663481       3.88384089      -0.00175409      -0.00473014      -0.00296271
C       -2.41225203      10.09000534       3.88525149       0.00402591      -0.00125228       0.00354701
C        5.00563754       1.52985357       3.88198482       0.00275609       0.00318931       0.00471927
O        3.86943343       3.59640824       3.75086780       0.00080841      -0.00011463       0.00135513
C        1.28994798       7.94681708       3.88885788       0.00556755      -0.00060638       0.00306625
C        0.06244284      10.08020338       3.94466626       0.00034988       0.00058084      -0.00142693
C        7.47973376       1.53095192       3.91974398      -0.00041550       0.00612012       0.00249365
C        6.27184291       3.63142685       3.78567344      -0.00235394      -0.00088660      -0.00005986
C        5.00074187       5.71016458       3.62842058       0.00837512      -0.00285428       0.00774778
C        3.72607470       7.99093195       3.62386334       0.00856276      -0.00432637      -0.00157595
C        2.53755446      10.10377317       3.91813930      -0.00558230      -0.00396269      -0.00391636
C        9.96017122       1.54062185       3.89450728      -0.00216673      -0.00145286      -0.00621017
C        8.72883433       3.66918378       3.85154324      -0.00794626       0.00223684       0.00545708
C        7.47086409       5.79358745       3.76369247       0.00147070       0.00012272      -0.00161958
C        6.22293848       7.92226372       3.69901448      -0.00272522       0.00497852      -0.00010353
C        5.00672766      10.07665528       3.81169309       0.00234643       0.00295310      -0.00665205
Mn       2.71706791       5.51209162       5.13873735      -0.00830094       0.00710934      -0.01006724
O        2.86184882       3.85127932       6.27244694       0.00227296      -0.00397841       0.00276452
O        1.66012254       4.48826817       6.70743843       0.00725916      -0.00686499       0.01648618
H        1.06986335       3.74051429       6.89118293      -0.00562183       0.01031664      -0.01495943
