52
Lattice="12.336457 0.0 0.0 -6.168228499999997 10.683685154694365 0.0 0.0 0.0 15.0" Properties=species:S:1:pos:R:3:initial_magmoms:R:1:forces:R:3 energy=-319529.0462457577 free_energy=-319529.0462457577 stress="672.2121681023905 188.65859581792972 -101.70751727222887 188.65859581792972 163.5663327629537 -46.31607889927567 -101.70751727222887 -46.31607889927567 688.6625330081456" pbc="T T T"
C        0.11646416       0.12472200       2.90357324       0.00000000  220281.61855081  158783.87703009 -699869.88448890
C       -5.83980475      -8.00884057      16.31905369       0.00000000  -10348.83035420  -12237.56533967    7963.81097599
C        1.24050569      -2.64105505      -0.55472770       0.00000000     -57.37671442    -180.84908286      56.18203642
C       -4.96690285      12.27763044       4.86657387       0.00000000    2946.10809228    2220.62074962     180.73898801
C       -8.93282812      10.66172187       1.04511144       0.00000000   10785.38880262     938.97965093    4346.27077711
C        0.37771094       0.25928245       1.81646375       0.00000000   20875.10206023   12351.74889229  162150.56370953
C        0.15142617       2.18643078      12.80106916       0.00000000     -21.60071261      70.44284974     -76.05326078
C       -0.27527688       4.42384624       5.17888376       0.00000000 -120389.43984462 -152121.41694132 -260316.03823825
C        0.64017905       5.95586594       3.24532415       0.00000000   43271.96724244   -1991.51976330  211380.43088848
C       -0.62990712       4.07611135      -5.10860429       0.00000000     -32.42817737     -29.16736621     226.54364269
C       13.11602931       9.23875548       2.48475996       0.00000000    1300.50406201    4753.01316285   -5566.53361833
C        5.44353501       1.01654316       1.11968647       0.00000000      72.93561236      30.60618859      17.21785578
C       -2.14608310      -2.96442548       6.32833020       0.00000000    1216.02073856     183.10108505    -227.15895168
N        1.48886904       5.58366892       5.11812199       0.00000000 -140734.47434144  233006.11251310  784469.61932818
C        0.58904637       6.91073880       5.17388618       0.00000000  113505.32968725 -276756.45511338 -449036.26872854
C       -0.05726430      -0.28602142      14.95603369       0.00000000     852.30061769    5219.44480642    9982.16787870
C        4.40664684       4.89756686       5.00019891       0.00000000    5712.90130683    4384.29458541     205.56969508
C        9.51481910       1.69235450       1.78041362       0.00000000    -272.79148650    -434.73500163     535.37305051
S        2.80353321       9.57102277      -5.07587848       0.00000000      -1.63257253       0.18992899       3.54069871
C        5.67822224      10.63649720       2.63479060       0.00000000  450262.99041394   94098.82268196 -347428.77799862
C       11.66394148       0.57743773       1.89433401       0.00000000   -5697.06285984  -73912.20965880   62140.10836760
C        6.20029003      -1.77448968       1.71460920       0.00000000     409.57573049    -273.70360303       7.85676481
C        3.55574049       6.82157479       5.51014926       0.00000000  -24705.95321973  -44780.22280411  -13604.36497534
C        4.03594449      12.49892791      -3.26934878       0.00000000     -13.31120236       9.40387280     -28.29166774
C        0.91580821       2.89884528       0.13220789       0.00000000   -2585.86415709   -3399.71669288    2851.51760788
C       -0.16387610       1.08003776       2.13159205       0.00000000  146764.50298470  -33942.45944430  115791.98556348
C        0.09480176       3.95571673       5.09419009       0.00000000 -186945.75542641  185344.04737665   50607.17782524
C       -0.71759504       4.33352088       5.10107073       0.00000000  630911.13850674  196783.17476315  128907.22030296
C       -5.45352787       6.58143796       6.87994115       0.00000000     114.89585053      31.54444083      76.20088856
C       -5.81289051      10.82414702       2.49325617       0.00000000 -881769.03763399  -69841.68244623  232091.58846287
C        6.17214134      -0.89040830       7.31865162       0.00000000     -97.93792748     143.69420668     114.65011902
C        0.16320205       2.76552505       5.33598712       0.00000000    7611.23456503   17032.63364942   -5967.80232531
C        1.06076455       5.44268925       4.97927387       0.00000000 -426297.12021368 -513769.87283650 -215846.46251574
C        0.60603768       6.71213456       4.54476275       0.00000000   -5878.74146268  291029.78571848  631918.47324705
C        1.80888434      13.83406389      13.64822883       0.00000000     -25.64756419      18.31587919     -22.34391039
C        3.84851796       2.97758365       2.02136768       0.00000000    1575.43398514   -1338.26692310   -1363.53298652
C        1.30660193       2.93010231       1.83725166       0.00000000   -9307.81572546   -7959.89414403    -977.49695477
C        1.78038289       5.65074289       5.09110326       0.00000000  266371.61187454  110112.56479916 -471205.01862739
C        0.41810085       7.01798894       4.55387988       0.00000000 -144358.25186142   56699.57705625 -294179.96675161
C        6.36077989       3.45384028       3.56860481       0.00000000      66.57174845      23.02907289      39.84965101
C        5.99641920       4.54255981       3.45483180       0.00000000     739.67723886    -253.64666702     -48.86322648
C       12.32013022       6.14968506       9.39025037       0.00000000     -81.80140035      97.04762297      38.26651257
C       12.10867503       0.62927338      -6.46432186       0.00000000      16.34520935     -47.57178313     127.19008440
C        3.07688346      11.13936680       1.95480024       0.00000000    6702.87860317      78.24817337    -523.33447328
C        2.10435091      -0.15786889       1.20850980       0.00000000   -7064.10837801     426.39898086   -7432.94014687
C       12.86077179      10.27912279       2.47803711       0.00000000      55.31477282    -585.84512239     166.24419563
C        4.02478798       5.08436225       3.42664719       0.00000000     221.71979367    3813.46481056   -2812.87061476
C        7.12628469       8.92155826       3.27529550       0.00000000    -134.96366108  -17055.17551071    -722.57020811
C        6.02900266      10.59431910       2.11594312       0.00000000   56576.13892540  -60958.10306580  455792.13425410
Mn       2.03592080       4.93736729       3.78182073       0.00000000 -138239.98652197  -27190.82595701  313906.89229761
O       -1.03403853      20.63182684       8.47141513       1.00000000      -4.08002623     -15.32943097     -12.46342620
O        1.66798673       4.79780756       4.21649197       1.00000000  115845.80646976  -78607.94984992 -398826.34757434
