51
Lattice="12.336457 0.0 0.0 -6.168228499999997 10.683685154694365 0.0 0.0 0.0 15.0" Properties=species:S:1:pos:R:3:initial_magmoms:R:1:forces:R:3 energy=-444.7651003174925 free_energy=-444.7651003174925 stress="-0.00425185236745605 -0.0010159054793066435 3.308292548183581e-05 -0.0010159054793066435 0.002615060435434644 -1.798824340582885e-05 3.308292548183581e-05 -1.798824340582885e-05 1.4319299276781052e-05" pbc="T T T"
C       -0.02035963       0.00496929       3.80561346       0.00000000      -0.00656620      -0.00094192       0.01198276
C       -1.26234170       2.13543856       3.85271835       0.00000000       0.00778492       0.00140280       0.00777779
C       -2.47397337       4.27620253       3.83543243       0.00000000       0.00306294       0.00738622      -0.01149332
C       -3.68740099       6.42173428       3.77943837       0.00000000      -0.00463742      -0.00070769       0.00165575
C       -4.93304856       8.57140155       3.77695709       0.00000000      -0.00266810       0.00432499      -0.00011051
C        2.44354771       0.03759772       3.77852906       0.00000000       0.00651187       0.00318072      -0.00226449
C        1.17483083       2.14217864       3.81820119       0.00000000       0.00098788       0.00459237      -0.01384239
C       -0.05173797       4.28117836       3.95851458       0.00000000       0.00300646      -0.00098858       0.00009958
C       -1.23768181       6.40768323       3.90022281       0.00000000       0.00189911       0.00934161       0.00576316
C       -2.47121739       8.56158261       3.82991219       0.00000000      -0.00899636      -0.00400763       0.00550732
C        4.91541867       0.01483127       3.69297185       0.00000000       0.01019186      -0.00256888      -0.01295838
C        3.66128680       2.13091972       3.38120897       0.00000000      -0.00798249       0.00008610       0.00010005
O        1.13235146       6.44732617       3.97108002       0.00000000      -0.00183094       0.00352246      -0.00084720
C       -0.01777575       8.53921623       3.82902873       0.00000000       0.00092061       0.00545355      -0.00047304
C        7.38426226      -0.01565064       3.72209198       0.00000000       0.00658272      -0.00705806       0.00334360
C        6.16140337       2.13859406       3.50462017       0.00000000       0.00302294      -0.01371758      -0.00712690
C        5.00874959       4.32382195       3.24476469       0.00000000       0.00386308      -0.00884047       0.00839200
C        3.77885918       6.40585991       3.45627878       0.00000000       0.00088752      -0.00089812       0.00375600
C        2.42703022       8.49473495       3.75982914       0.00000000       0.00082659       0.00805475      -0.00249075
C        9.84197466      -0.02231183       3.77688597       0.00000000      -0.00528803       0.00367001      -0.00218115
C        8.61816623       2.12816059       3.72859037       0.00000000       0.00040574      -0.00168747      -0.00011636
C        7.42072675       4.27788246       3.60918603       0.00000000      -0.00111172      -0.00058455       0.00150445
C        6.22945950       6.44811968       3.56228174       0.00000000       0.00144336      -0.00342766      -0.00156100
C        4.91617485       8.53725944       3.69328443       0.00000000       0.00053679      -0.00496170       0.00464538
C       -0.02587077       1.43725700       3.83958938       0.00000000       0.00468137       0.00037448       0.00429544
C       -1.24812586       3.56374406       3.88849812       0.00000000       0.00186978       0.00092561       0.00702891
C       -2.46542203       5.69556029       3.84965423       0.00000000       0.00168851       0.00917595      -0.00811309
C       -3.70239227       7.85195824       3.80654789       0.00000000      -0.01052208      -0.00342067      -0.01116728
C       -4.94706437       9.99698739       3.80679380       0.00000000       0.00018700       0.00708881       0.00376778
C        2.42188762       1.47042262       3.67728696       0.00000000      -0.00316392       0.00326866       0.00040067
O        1.12245625       3.52210310       4.01327666       0.00000000       0.00254977       0.00237770      -0.01241948
C       -0.04203335       5.69360158       3.95284207       0.00000000      -0.00155821      -0.00076699      -0.00019965
C       -1.24874850       7.83771117       3.86206911       0.00000000      -0.00254575       0.00842375       0.00723503
C       -2.48671206       9.99700952       3.77461662       0.00000000       0.00798179      -0.00280737       0.00154740
C        4.90746814       1.43998599       3.50828722       0.00000000      -0.00309767      -0.00145952       0.00134369
P        3.59859547       3.65597097       2.44866236       0.00000000      -0.00093183      -0.00475406       0.00751147
C        1.18299097       7.82287570       3.84449871       0.00000000       0.00022571       0.00573291       0.00034915
C       -0.01862744       9.97295075       3.74648468       0.00000000       0.01016315      -0.00126737       0.00510914
C        7.38510346       1.41763550       3.65127544       0.00000000       0.00366608      -0.01270705       0.01051943
C        6.20022009       3.56094240       3.43162948       0.00000000       0.00449399      -0.01101512       0.00477864
C        5.01851728       5.75573990       3.37501604       0.00000000       0.00281909      -0.00338441      -0.00857780
C        3.68425663       7.79465254       3.63655543       0.00000000      -0.00137129       0.00121090       0.01269116
C        2.43815907       9.93057550       3.76044326       0.00000000       0.00082924       0.00265939      -0.00526546
C        9.85089505       1.41355480       3.79750799       0.00000000       0.00420189       0.00391168      -0.00501181
C        8.63206173       3.55741284       3.73184552       0.00000000       0.00063580       0.00298270      -0.00693067
C        7.43571184       5.70923848       3.64894431       0.00000000      -0.00178152      -0.00203420       0.00430231
C        6.17920646       7.86037274       3.68482662       0.00000000       0.00377431      -0.00300556      -0.00513064
C        4.91418543       9.96183884       3.77149792       0.00000000      -0.00949320      -0.00316209      -0.00186486
Mn       3.04867842       4.88680286       4.41879293       0.00000000      -0.00322263      -0.00225372      -0.00058532
O        2.32295178       5.34025053       6.26473377       1.00000000      -0.01092088      -0.00554063      -0.00592212
O        2.93635743       4.20610232       6.26672252       1.00000000      -0.01401163       0.00882098       0.00124558
