52
Lattice="12.336457 0.0 0.0 -6.168228499999997 10.683685154694365 0.0 0.0 0.0 15.0" Properties=species:S:1:pos:R:3:initial_magmoms:R:1:forces:R:3 energy=-455.3758732854486 free_energy=-455.3758732854486 stress="-0.0010905453757542132 0.002875420345461972 4.2449953274988225e-06 0.002875420345461972 -0.0023268431033521856 1.0188502816559288e-05 4.2449953274988225e-06 1.0188502816559288e-05 0.0010747809712727755" pbc="T T T"
C       -0.04646582      -0.00394705       3.80001184       0.00000000      -0.00907408      -0.00103676      -0.02534058
C       -1.25973288       2.14841553       3.79033901       0.00000000      -0.00734441      -0.00262107       0.00817340
C       -2.48533675       4.26817120       3.75419048       0.00000000       0.00993817      -0.00538238       0.00826427
C       -3.74550345       6.39685585       3.71224604       0.00000000      -0.03315673      -0.00447730       0.03966069
C       -4.99605476       8.53497463       3.74835687       0.00000000       0.00941755       0.01553061       0.00418482
C        2.40956180      -0.01409819       3.63543019       0.00000000       0.01521515      -0.00083368       0.02463029
C        1.19903845       2.14200374       3.64707875       0.00000000       0.01286282       0.00429493       0.00292347
C        0.01712196       4.31777061       3.83261067       0.00000000      -0.00109828      -0.01700412       0.00135673
C       -1.28185174       6.40889961       3.85423957       0.00000000       0.00913239      -0.00428503      -0.02323813
C       -2.52660761       8.53520045       3.75241678       0.00000000      -0.00959627       0.01069538      -0.04121319
C        4.87812529      -0.01236899       3.62497522       0.00000000      -0.00379014       0.00148708       0.00048955
C        3.65346290       2.08847984       3.41331219       0.00000000       0.00129946       0.00374925      -0.00148051
N        2.49006463       4.17112612       3.67421119       0.00000000      -0.01532334       0.08670992      -0.01936086
O        1.06670769       6.48799844       4.16303486       0.00000000       0.07699905      -0.02781189      -0.00454138
C       -0.08189958       8.55475919       3.85832733       0.00000000       0.00589275      -0.00902290      -0.00793885
C        7.34083064       0.00004247       3.77280074       0.00000000      -0.00467544      -0.00661083      -0.00480183
C        6.13203341       2.11267648       3.51329332       0.00000000       0.01495827      -0.00346940       0.00753516
C        4.91111781       4.21034497       3.29504758       0.00000000      -0.01150632       0.01158583      -0.02125999
P        3.53629163       6.57902270       2.77387116       0.00000000      -0.00244491      -0.00651817       0.00754727
C        2.33289668       8.55465097       3.96728302       0.00000000       0.01250544      -0.01344040       0.01199316
C        9.81675607      -0.00236864       3.88737977       0.00000000      -0.00932703       0.00696532       0.01431434
C        8.60041532       2.12791300       3.71982269       0.00000000       0.00980804       0.01335990      -0.00300261
C        7.37557027       4.25336778       3.56774864       0.00000000       0.00452515      -0.00583864       0.00335161
C        6.13590980       6.39869046       3.56782523       0.00000000      -0.01171806       0.01303482       0.01462012
C        4.89344772       8.54717761       3.93284550       0.00000000       0.01720671      -0.02116783      -0.02818118
C       -0.03790676       1.42629079       3.75026386       0.00000000      -0.00128234       0.00543332       0.02141933
C       -1.22958686       3.58462923       3.79263050       0.00000000      -0.00150939      -0.01660855       0.00457809
C       -2.50863779       5.68469733       3.76911262       0.00000000      -0.01115940      -0.00346252      -0.00164780
C       -3.76206071       7.82157314       3.73838633       0.00000000      -0.01023186       0.00613402      -0.00872712
C       -4.99285042       9.96015106       3.73746659       0.00000000       0.00792714       0.01298096       0.00679985
C        2.41628096       1.40344294       3.54840788       0.00000000       0.01169192      -0.00504624      -0.00869114
C        1.25140292       3.56468278       3.71396961       0.00000000       0.00281449       0.00739069       0.02955237
C       -0.06691292       5.72986241       3.93938298       0.00000000       0.02411080      -0.01110868       0.00892403
C       -1.30537117       7.83379061       3.82806730       0.00000000      -0.00620796       0.00729445       0.00736829
C       -2.52627569       9.95992820       3.66290093       0.00000000       0.00309217       0.00487817       0.00461508
C        4.89327068       1.39962346       3.48914556       0.00000000       0.01001270       0.00087119      -0.00512446
C        3.65371208       3.49568561       3.36362580       0.00000000      -0.02807403       0.01337380       0.00003496
C        1.11415978       7.86801128       3.97050148       0.00000000       0.02400564      -0.02664795      -0.00729147
C       -0.05984067       9.97804327       3.75014059       0.00000000      -0.00720174      -0.00553314       0.00181440
C        7.36054346       1.41706946       3.66642702       0.00000000       0.01751599      -0.00168442       0.00694049
C        6.14064718       3.53100709       3.43863935       0.00000000      -0.00051407       0.00387028      -0.01520931
C        4.92105813       5.66455305       3.32221500       0.00000000       0.01910562       0.00338612       0.00243225
C        3.61166231       7.80777392       4.22204403       0.00000000       0.00611871      -0.01387561       0.00216009
C        2.39632754       9.96063709       3.89432214       0.00000000      -0.00244817      -0.00370731       0.00101163
C        9.83449994       1.41951903       3.81003982       0.00000000      -0.00527593       0.01166346      -0.01038220
C        8.60794953       3.55022657       3.67878459       0.00000000       0.01926776       0.00438151      -0.01943093
C        7.36206115       5.68367944       3.61363402       0.00000000      -0.03176758      -0.00686638       0.01009284
C        6.09864253       7.82054951       3.75556301       0.00000000       0.02022538      -0.00405291       0.02132238
C        4.88335850       9.95333001       3.90839730       0.00000000      -0.01332443      -0.01633883      -0.02940843
Mn       3.42274964       5.43310830       4.95210601       0.00000000      -0.50316473      -0.10152001       1.41244375
O        3.78219497       4.89092408       7.86100869       1.00000000      -0.05028095      -0.00712125      -0.56702920
O        3.52353934       7.24559424       5.51902468       1.00000000       0.42584835       0.10402318      -0.83725354
