51
Lattice="12.336457 0.0 0.0 -6.168228499999997 10.683685154694365 0.0 0.0 0.0 15.0" Properties=species:S:1:pos:R:3:initial_magmoms:R:1:forces:R:3 energy=-442.5000193864159 free_energy=-442.5000193864159 stress="-0.0005816126899863017 -0.0030319179631670087 -1.5213209391712128e-05 -0.0030319179631670087 0.001001336057520002 4.456076182284309e-06 -1.5213209391712128e-05 4.456076182284309e-06 4.295663498802015e-05" pbc="T T T"
C       -0.06264209      -0.07683239       3.82181560       0.00000000      -0.00032864      -0.00593965       0.00203246
C       -1.31150252       2.06486706       4.01814909       0.00000000      -0.00316556       0.00761413      -0.01666320
C       -2.52554554       4.21141732       3.74624075       0.00000000      -0.00655590       0.00083970       0.00794428
C       -3.72697192       6.35238874       3.48327718       0.00000000       0.00178594       0.00556856       0.01452295
C       -4.97629957       8.49275863       3.53054403       0.00000000      -0.00101122       0.00217736       0.00781603
C        2.41498586      -0.09341215       3.83981827       0.00000000       0.00084755      -0.00293231      -0.00565106
C        1.16567390       1.96865681       4.35757253       0.00000000      -0.00411877      -0.01122707      -0.00192086
C       -0.16017057       4.27339486       4.37638794       0.00000000       0.00800092      -0.00100440      -0.00732231
C       -1.29168900       6.36005709       3.79291922       0.00000000       0.00083566       0.00956433      -0.00639232
C       -2.50595933       8.48245971       3.62092557       0.00000000      -0.01138668       0.00182164       0.01024564
C        4.88346455      -0.06243009       3.69801640       0.00000000      -0.00279682       0.00218056       0.00553651
C        3.60501669       2.02990285       3.81618020       0.00000000       0.00205865       0.00004149      -0.00243006
N        1.08077566       6.39366285       4.29897573       0.00000000      -0.00734684      -0.01244362      -0.00058596
C       -0.03770629       8.46391710       3.74489244       0.00000000       0.00714831       0.00856771       0.00845253
C        7.34996523      -0.07784793       3.67552302       0.00000000      -0.00033933       0.01326017       0.00498841
C        6.09178460       2.09578359       3.55709719       0.00000000       0.00527106      -0.00880723       0.00443973
C        4.93905639       4.32346080       3.31700090       0.00000000       0.00469465      -0.00384450       0.00249455
O        3.77178312       6.40617555       3.42572732       0.00000000      -0.00930273      -0.00368476       0.00470317
C        2.43277237       8.41401061       3.71500646       0.00000000       0.00732475       0.00696066       0.01140056
C        9.80302224      -0.08072318       3.72638580       0.00000000      -0.00008615       0.00005183      -0.00158771
C        8.57079685       2.07360501       3.67039275       0.00000000       0.00075760      -0.00854687       0.00448209
C        7.36168407       4.22315617       3.43241610       0.00000000      -0.00060964      -0.00155408       0.00368808
C        6.17081060       6.39391282       3.25815002       0.00000000      -0.00193322       0.00352051       0.00987970
C        4.89093694       8.49349613       3.49075857       0.00000000       0.00809619      -0.00258359       0.00858155
C       -0.07568854       1.33257217       4.09396379       0.00000000      -0.00766896      -0.00215535      -0.01314957
C       -1.31511354       3.50641899       4.05104005       0.00000000       0.00240033       0.00787393      -0.01002648
C       -2.50750748       5.63432301       3.65651542       0.00000000       0.00176066       0.00424192       0.00654485
C       -3.73517711       7.77594372       3.52602220       0.00000000      -0.00849045       0.00362999       0.00255165
C       -4.99109999       9.90016471       3.73826586       0.00000000       0.00223444      -0.00170989      -0.00056080
C        2.40295933       1.30948777       4.06147401       0.00000000      -0.00186839      -0.00347353      -0.01710735
P        1.12667095       3.47490347       5.28187731       0.00000000       0.00728885      -0.00239196      -0.00636193
C       -0.08935702       5.69334948       4.15849876       0.00000000      -0.00853364      -0.00542195      -0.00813217
C       -1.27636382       7.76825599       3.69545664       0.00000000      -0.00156818       0.01443293       0.00933066
C       -2.51142516       9.90376468       3.70757743       0.00000000      -0.00289415      -0.00260514       0.00606437
C        4.86012321       1.38215939       3.67882542       0.00000000       0.00120863      -0.00085133      -0.00808909
S        3.34531689       3.69781615       3.45511216       0.00000000      -0.00676141      -0.01235915      -0.00243526
C        1.17250542       7.71429138       3.90786727       0.00000000       0.00764909      -0.00879844      -0.00229680
C       -0.04629110       9.89640200       3.68659495       0.00000000       0.00208335       0.01173845      -0.00222272
C        7.32942951       1.36597840       3.61870639       0.00000000       0.00375537       0.00031280       0.00286556
C        6.10657278       3.52657811       3.41488974       0.00000000       0.00329027      -0.01024825      -0.00611049
C        4.97232012       5.71647083       3.23206216       0.00000000      -0.00299076      -0.00113373      -0.01087578
C        3.68911070       7.78679312       3.52182045       0.00000000       0.00483233       0.00169134       0.00560884
C        2.41254066       9.86046172       3.69337504       0.00000000      -0.00338109       0.01073800      -0.00251333
C        9.80330008       1.35668594       3.80160256       0.00000000      -0.00228171      -0.00257849       0.01248786
C        8.58497200       3.50042724       3.60374177       0.00000000      -0.00619575      -0.00931059       0.00696076
C        7.38507294       5.64358088       3.36332253       0.00000000       0.00288009       0.00527724       0.00038918
C        6.14183684       7.80509235       3.39498713       0.00000000       0.00471190       0.00395667      -0.00970489
C        4.87430653       9.90878281       3.67763207       0.00000000       0.00114158      -0.00356449      -0.00188333
Mn       2.61484600       5.31462896       5.41727352       0.00000000      -0.00351743       0.00303133      -0.01694940
O        3.70523826       6.90293214       6.22506459       1.00000000       0.00415229       0.01277701      -0.00393703
O        4.46654755       5.85034946       6.06909148       1.00000000       0.00892299      -0.01269991       0.00089789
