51
Lattice="12.336457 0.0 0.0 -6.168228499999997 10.683685154694365 0.0 0.0 0.0 15.0" Properties=species:S:1:pos:R:3:initial_magmoms:R:1:forces:R:3 energy=-441.7590196214155 free_energy=-441.7590196214155 stress="-0.004527449412944246 -0.005163368275726359 -9.879299378526514e-09 -0.005163368275726359 -0.000882800582879489 2.7683530935959015e-05 -9.879299378526514e-09 2.7683530935959015e-05 6.340398336791482e-06" pbc="T T T"
C        0.02440297       0.03681444       3.86581006       0.00000000      -0.00000917      -0.01111411       0.00523215
C       -1.25664736       2.14168250       3.75645557       0.00000000       0.00473939      -0.00247678       0.01331215
C       -2.47628319       4.30030634       3.76714386       0.00000000      -0.00290201       0.00121606       0.00608644
C       -3.64897751       6.45554532       3.88738155       0.00000000       0.00363325       0.00793348      -0.00282302
C       -4.87413493       8.60702234       3.95155919       0.00000000      -0.00668821       0.00162406      -0.00824243
C        2.48937201       0.06299126       3.71722883       0.00000000      -0.00297672       0.00206430       0.00926050
C        1.18593308       2.14398764       3.56371261       0.00000000      -0.00795445       0.00635870       0.00092811
C       -0.10408284       4.22757720       3.37846722       0.00000000      -0.00400855       0.00491972      -0.00446585
C       -1.21011075       6.41544769       3.51009522       0.00000000       0.00607761       0.00146432      -0.00268503
C       -2.41206354       8.57794076       3.71114430       0.00000000      -0.00043879      -0.00593163       0.00040922
C        4.95483193       0.04149383       3.68589145       0.00000000      -0.00839852       0.00508815      -0.00017197
C        3.70350882       2.16106990       3.43603868       0.00000000       0.00119440      -0.00569252      -0.00095411
S        1.41768276       6.34781364       2.70123901       0.00000000       0.00515562       0.00649015       0.00357424
C        0.04903374       8.56345368       3.58958071       0.00000000       0.00279002       0.00566053       0.00012183
C        7.41296048       0.02991918       3.83824473       0.00000000       0.00336419      -0.00284074      -0.01122073
C        6.16457064       2.19561909       3.76306603       0.00000000       0.00466107       0.01051935      -0.00102265
C        5.02252892       4.41392261       3.79253791       0.00000000      -0.01469816      -0.00120848      -0.00147118
N        3.85334162       6.51183225       4.25076102       0.00000000       0.00370454      -0.00796734      -0.00381292
C        2.50894287       8.55972637       3.87703399       0.00000000       0.00963332      -0.00632614       0.00552563
C        9.88010408       0.02300636       3.95691831       0.00000000      -0.00376399       0.00296180      -0.00938821
C        8.62822862       2.16865740       3.89522552       0.00000000       0.00109251      -0.00627211       0.00149939
C        7.42704581       4.32605892       3.96634301       0.00000000      -0.00564875      -0.00344196      -0.00443967
C        6.25500532       6.49652049       4.11180404       0.00000000      -0.00024090      -0.00067035      -0.00640280
C        4.98615944       8.59257320       4.06578795       0.00000000      -0.00722377       0.00251383      -0.01064055
C       -0.00506153       1.45341095       3.72228183       0.00000000      -0.00012085      -0.00993267       0.00893471
C       -1.27923396       3.54953566       3.63036673       0.00000000      -0.00159607      -0.00114926      -0.00120184
C       -2.44184431       5.72112895       3.72976139       0.00000000       0.00409723       0.00581089      -0.00132088
C       -3.64494206       7.88080540       3.85532951       0.00000000      -0.00425988       0.00584637       0.00445328
C       -4.89789976      10.03031966       3.85431769       0.00000000       0.00083293      -0.00337080      -0.00419467
C        2.45439331       1.49647877       3.57245110       0.00000000      -0.00762276       0.00554876       0.00692067
O        1.09930442       3.52435929       3.48221787       0.00000000      -0.00308493       0.00824177      -0.00265613
C       -0.06852204       5.62530412       3.25633062       0.00000000       0.00550023       0.00413118       0.01068035
C       -1.18493800       7.84966622       3.57150275       0.00000000       0.00489105      -0.00171879      -0.00217416
C       -2.43833366      10.01756238       3.70030146       0.00000000      -0.00653595      -0.00425362       0.00191100
C        4.93223020       1.48696199       3.63333400       0.00000000       0.00619784       0.00635154      -0.01008128
S        3.69789379       3.80995984       2.85513219       0.00000000       0.01503765      -0.00373061       0.00359909
C        1.30709849       7.89830172       3.51467650       0.00000000       0.00658856       0.00462194       0.00850506
C        0.02516615      10.00168307       3.72162638       0.00000000      -0.00530013       0.00624247       0.00786781
C        7.39086847       1.46721900       3.85526787       0.00000000       0.00233322      -0.00119149       0.00186187
C        6.18778392       3.62112175       3.86854233       0.00000000      -0.01041545       0.00547052      -0.00752876
C        5.02967907       5.81240655       4.09313563       0.00000000       0.00061343      -0.00306840      -0.01183290
C        3.77010054       7.86432363       4.07341799       0.00000000       0.00483236      -0.00919191      -0.01076466
C        2.48283759       9.99387638       3.92622833       0.00000000       0.00362488      -0.00590005      -0.00129010
C        9.86514737       1.44615145       3.88704702       0.00000000       0.00300332       0.00080510       0.00429822
C        8.63738551       3.59429398       3.89944412       0.00000000      -0.00433863      -0.00652273       0.00042772
C        7.45968304       5.75122532       4.01122448       0.00000000       0.00663269      -0.00017723       0.01229524
C        6.23580867       7.90833223       4.08017695       0.00000000      -0.00764433       0.00406656      -0.00004075
C        4.96013132      10.01100134       3.97507810       0.00000000      -0.00673774       0.00236903      -0.00356800
Mn       2.55677601       5.20085249       4.65430005       0.00000000       0.00233020       0.00142071      -0.00063954
O        2.09268817       3.76451753       6.00040427       1.00000000      -0.00031972      -0.00805025       0.01711990
O        1.17539978       4.69955848       5.96854471       1.00000000       0.01036692      -0.00754132      -0.00978980
