51
Lattice="12.336457 0.0 0.0 -6.168228499999997 10.683685154694365 0.0 0.0 0.0 15.0" Properties=species:S:1:pos:R:3:initial_magmoms:R:1:forces:R:3 energy=-446.7334627081495 free_energy=-446.7334627081495 stress="-0.0029927440363451178 0.001431627944016917 1.2798893675800219e-05 0.001431627944016917 0.003969455130348209 6.312279778144686e-06 1.2798893675800219e-05 6.312279778144686e-06 8.868301799477733e-06" pbc="T T T"
C        0.03725356       0.04069690       3.68495136       0.00000000       0.00443670       0.00291763      -0.00504390
C       -1.19545392       2.16988706       3.48996878       0.00000000       0.00265757      -0.00400778       0.00055909
C       -2.45619057       4.30912459       3.57868232       0.00000000      -0.00018100       0.01047764       0.00038122
C       -3.68886383       6.44882978       3.72328772       0.00000000      -0.00440977       0.00059802       0.00698937
C       -4.91095054       8.58651157       3.79140617       0.00000000       0.00442086      -0.00489581      -0.00042129
C        2.50596860       0.05928225       3.77077830       0.00000000      -0.00063034      -0.00232901      -0.00139006
C        1.29353217       2.13055551       3.37187397       0.00000000       0.01245716       0.00166364      -0.00009366
C       -0.06199030       4.37281432       3.23502957       0.00000000      -0.00723520      -0.00401937      -0.00235575
C       -1.25427752       6.47727917       3.58810129       0.00000000      -0.00478505      -0.00074271      -0.00404772
C       -2.44552446       8.59649022       3.77590452       0.00000000      -0.00207381       0.00787424      -0.00322564
C        4.97563856       0.03445475       3.81225595       0.00000000       0.00157457       0.01017185       0.00018938
C        3.76521043       2.21678930       3.81051246       0.00000000      -0.00654106      -0.00141941       0.00636984
N        1.15961957       6.41000448       3.73906027       0.00000000       0.00948017      -0.00134112      -0.00755830
C        0.03727768       8.55425099       3.77446199       0.00000000      -0.00501511      -0.00337230      -0.00544891
C        7.45191512      -0.00197017       3.79231468       0.00000000       0.00020113      -0.00538220      -0.00725848
C        6.21766380       2.16127656       3.80539149       0.00000000      -0.00106995      -0.00214686       0.00086494
C        4.97601394       4.30078088       3.90090235       0.00000000       0.00624545      -0.00104874       0.00713285
O        3.84010837       6.47230504       3.98216800       0.00000000      -0.00398033      -0.00717494       0.01078921
C        2.51501500       8.49343065       3.84103552       0.00000000       0.00235109      -0.00001686      -0.01275472
C        9.90338635       0.00474455       3.72322758       0.00000000      -0.00554441      -0.00102587      -0.00175608
C        8.67690102       2.15538089       3.69082713       0.00000000      -0.00018433       0.00702035      -0.00424437
C        7.43003726       4.30143763       3.75579450       0.00000000       0.00167367      -0.00083634      -0.01257856
C        6.19944726       6.44253561       3.83214464       0.00000000       0.00361520      -0.00015865      -0.00064124
C        4.96848537       8.56703248       3.82526286       0.00000000      -0.00258791      -0.00156753      -0.00898893
C        0.04477811       1.46780317       3.50965379       0.00000000       0.01146407       0.00589514       0.00362260
C       -1.21914142       3.60197454       3.42846557       0.00000000      -0.00696145      -0.00238524      -0.00350761
C       -2.46512984       5.73736813       3.62064467       0.00000000      -0.00540993       0.00641817       0.01073970
C       -3.67751293       7.87670168       3.76805710       0.00000000       0.00305885      -0.00067821       0.00160405
C       -4.89837218      10.02138016       3.75668923       0.00000000       0.00118027      -0.00477645       0.00729607
C        2.51350697       1.49158259       3.68166387       0.00000000       0.00202786      -0.00592318       0.00076544
S        1.35200999       3.66145014       2.51276783       0.00000000       0.00010223      -0.00324567       0.00787046
C       -0.03074338       5.78657997       3.46843412       0.00000000       0.00133757      -0.00075243      -0.00264184
C       -1.21932242       7.88368786       3.72215614       0.00000000      -0.00877598      -0.00094171      -0.00126880
C       -2.43345560      10.02085600       3.81036716       0.00000000       0.00264764       0.00998246      -0.00481578
C        4.98090174       1.46638846       3.81651613       0.00000000      -0.00628072       0.00693040      -0.00345815
N        3.80174807       3.57715223       3.97244322       0.00000000       0.00249319      -0.00131385      -0.00283429
C        1.24518640       7.78424890       3.79998361       0.00000000       0.00254565       0.00186878      -0.00301149
C        0.04419719       9.98382085       3.80623569       0.00000000      -0.00167967      -0.00173355      -0.00726841
C        7.44956472       1.43484391       3.76949248       0.00000000       0.00061487      -0.00178161      -0.00414025
C        6.20926937       3.58571771       3.81156213       0.00000000       0.00589512      -0.00410121       0.01658401
C        5.01233762       5.73223595       3.90689259       0.00000000       0.00467646      -0.00005444       0.01295146
C        3.76920440       7.86059269       3.88141455       0.00000000      -0.00114322      -0.00509082       0.00114283
C        2.51138992       9.94132549       3.78966500       0.00000000      -0.00173817      -0.00295858      -0.00559601
C        9.91591828       1.44702018       3.63244317       0.00000000      -0.00232494      -0.00024897       0.01201726
C        8.66491105       3.58382907       3.67587273       0.00000000       0.00436775       0.01031864       0.00354917
C        7.42781642       5.72313726       3.76910387       0.00000000       0.00050612      -0.00341553       0.00209404
C        6.20405706       7.86959780       3.81857948       0.00000000       0.00247528      -0.00008469       0.00690965
C        4.96847265       9.99959284       3.74590362       0.00000000      -0.00235188       0.00357748       0.00046473
Mn       2.22762996       4.74994281       4.53879566       0.00000000      -0.00453159      -0.00009303       0.00091630
O        2.06609224       4.64894318       6.47442526       1.00000000      -0.00404505      -0.00478506      -0.00013873
O        1.24087587       3.75589902       5.92259302       1.00000000      -0.00502562       0.00013530      -0.00531471
