51
Lattice="12.336457 0.0 0.0 -6.168228499999997 10.683685154694365 0.0 0.0 0.0 15.0" Properties=species:S:1:pos:R:3:initial_magmoms:R:1:forces:R:3 energy=-442.16102183532104 free_energy=-442.16102183532104 stress="-0.006150027734563732 0.0024369163796763306 7.015476003121471e-05 0.0024369163796763306 -0.010840336002462115 9.843976835860993e-05 7.015476003121471e-05 9.843976835860993e-05 -0.0002176973203918502" pbc="T T T"
C       -0.04234483       0.00921239       3.65862152       0.00000000       0.01757459       0.03916323      -0.02760010
C       -1.24858490       2.18616708       3.71635538       0.00000000       0.00675194      -0.06661039      -0.01992849
C       -2.47547150       4.31252900       3.87029690       0.00000000       0.01668373      -0.03403240       0.01933482
C       -3.72518106       6.43372566       3.79941282       0.00000000      -0.01635945       0.03383051       0.00141413
C       -4.98103366       8.55116789       3.67136959       0.00000000      -0.00203425       0.04347415       0.01494217
C        2.42072727      -0.03422226       3.75243791       0.00000000       0.00105170      -0.02854614      -0.02174502
C        1.21443917       2.09565060       3.47855848       0.00000000       0.04608964      -0.04492958       0.03240681
C       -0.02063959       4.38903138       3.78802334       0.00000000      -0.01549451       0.05551143       0.07754717
C       -1.27645149       6.46519612       4.00779287       0.00000000      -0.04496867       0.03260102      -0.04997163
C       -2.51710689       8.56729917       3.89490965       0.00000000       0.01306709      -0.02763945      -0.01541479
C        4.89418204       0.01942049       3.87315833       0.00000000      -0.01273463      -0.09176729       0.03281815
C        3.64868071       2.05182250       3.79502317       0.00000000       0.00202275       0.11821710      -0.00576250
N        1.12548281       6.53961771       4.13371460       0.00000000       0.04076312      -0.01138135       0.03434800
C       -0.06444082       8.59573319       3.90681123       0.00000000       0.02248363      -0.02145361       0.01540917
C        7.36418407       0.03966290       3.85763205       0.00000000       0.01041409       0.06818356       0.01407550
C        6.14752716       2.16606860       3.84867773       0.00000000      -0.01290922       0.01264145      -0.01796323
C        4.98125019       4.34156138       3.59289643       0.00000000       0.00155788      -0.00399930      -0.00378693
P        3.48838730       6.35815203       2.58384037       0.00000000       0.01883675      -0.02592470      -0.00419787
C        2.39943628       8.60304170       3.70362779       0.00000000      -0.04000052      -0.00363171       0.01532531
C        9.83944398       0.03952627       3.73130238       0.00000000      -0.00711682       0.01679190      -0.00155583
C        8.61828693       2.16991340       3.83207075       0.00000000       0.01694505       0.03845283       0.01400396
C        7.40285604       4.29896790       3.73147689       0.00000000       0.02384278       0.01525155      -0.00885564
C        6.18940922       6.44100453       3.40381226       0.00000000      -0.01381814      -0.00878333       0.02520555
C        4.89205857       8.56705271       3.51745271       0.00000000       0.00175362       0.00623208       0.02434846
C       -0.03158577       1.44757864       3.60923336       0.00000000       0.01693767      -0.02941523      -0.00294198
C       -1.22392322       3.62168965       3.80967334       0.00000000       0.02159822      -0.04122022      -0.06302667
C       -2.49219268       5.73181159       3.91534624       0.00000000      -0.03554542      -0.01489865       0.01259077
C       -3.74526967       7.85171502       3.79982525       0.00000000       0.00996550       0.04656237      -0.03672012
C       -4.98604465       9.96495945       3.69978750       0.00000000       0.00325307       0.03969692      -0.02053685
C        2.42727481       1.37071439       3.66324415       0.00000000       0.01618201      -0.01957930      -0.02741221
P        1.45668616       3.77859225       2.99433234       0.00000000       0.02259338      -0.02511929      -0.00513947
C       -0.03895704       5.79719397       4.02169510       0.00000000      -0.03458438       0.07294600      -0.00773819
C       -1.28595797       7.87567492       3.95868555       0.00000000       0.01430355       0.02564597       0.05075605
C       -2.50662080       9.98094402       3.85757255       0.00000000      -0.02046234      -0.07346437      -0.04158741
C        4.90209278       1.44129406       3.84980800       0.00000000      -0.01936986      -0.03466001       0.00542682
P        3.42524221       3.73434421       4.18962809       0.00000000       0.01200973      -0.10422607       0.01980418
C        1.15260503       7.89539583       3.87826603       0.00000000      -0.00301586      -0.03097837       0.01971200
C       -0.04321570      10.01369811       3.89154458       0.00000000       0.03413440      -0.03688406      -0.06087236
C        7.37302865       1.46129067       3.86324954       0.00000000       0.02002593       0.06997592      -0.03268600
C        6.16644264       3.58529428       3.72876303       0.00000000       0.00374466       0.03003637       0.01284801
C        5.00287557       5.69536031       3.20869306       0.00000000      -0.01454720       0.03121962       0.00203097
C        3.62989825       7.88658400       3.47692101       0.00000000      -0.04381578       0.00349858      -0.03430286
C        2.42589290      10.01833663       3.76996184       0.00000000      -0.02636808       0.01716756       0.02394381
C        9.85556762       1.46711106       3.77796175       0.00000000      -0.01703335       0.00453162      -0.02997316
C        8.62993968       3.59266625       3.82254820       0.00000000       0.01395367       0.01155298       0.02005418
C        7.39959461       5.72188407       3.64577870       0.00000000       0.00735707      -0.00185774      -0.02922666
C        6.13231770       7.85479060       3.49817286       0.00000000       0.01313058      -0.00626377       0.01629669
C        4.89442164       9.99127868       3.64935998       0.00000000       0.01141763       0.02598435      -0.02614828
Mn       2.80989502       6.11652323       5.08209515       0.00000000      -0.04463335       0.03348405      -0.18624477
O        3.54312399       3.61412845       5.80948895       1.00000000      -0.07662657      -0.04947579       0.11199396
O        3.26024575       5.00581997       6.39259168       1.00000000       0.04099303      -0.05591100       0.16470237
