52
Lattice="12.336457 0.0 0.0 -6.168228499999997 10.683685154694365 0.0 0.0 0.0 15.0" Properties=species:S:1:pos:R:3:forces:R:3 energy=-449.456187509201 free_energy=-449.456187509201 stress="-0.004345400161038981 0.0023488197339696258 -3.2046468418725436e-05 0.0023488197339696258 -0.01015730455836317 -3.8583213382713754e-05 -3.2046468418725436e-05 -3.8583213382713754e-05 2.6904179579258753e-05" pbc="T T T"
C       -0.01058990      -0.06713471       3.65216809      -0.00181837      -0.00275356       0.00474075
C       -1.21660360       2.10635633       3.70973744       0.00853921       0.00342283       0.00400809
C       -2.44560500       4.23412617       3.87773909       0.00271165      -0.00213214       0.01187250
C       -3.69985557       6.35700336       3.81042585       0.00407743      -0.00666410      -0.01112779
C       -4.95211802       8.47382125       3.67091822      -0.00007495       0.00498478      -0.00116507
C        2.45450293      -0.11833447       3.81001487       0.00126822      -0.01455442       0.00214199
C        1.26045173       2.01342505       3.57427136       0.01144678      -0.00446965      -0.00629551
C        0.01260945       4.30927345       3.82883596      -0.01225792       0.00281801      -0.00557775
C       -1.24866542       6.38644686       4.00634607       0.00157850       0.00648164       0.01877099
C       -2.47991227       8.48240098       3.90174820      -0.01010355      -0.00038096       0.00194227
C        4.93009062      -0.06861875       3.98295278       0.00511795      -0.00147321       0.01768894
C        3.67429908       1.96254138       4.06202029      -0.01255718       0.00094481       0.00585675
N        1.14008708       6.46139869       4.26036143      -0.00541623       0.00284871      -0.00553015
C       -0.01884023       8.51142781       3.97628772      -0.00746666      -0.01072802      -0.01491595
C        7.40234395      -0.03629646       3.95278724      -0.00921925      -0.00848070      -0.01075744
C        6.17417174       2.08673659       4.01159388      -0.00253706       0.01002109      -0.01158577
C        4.99922029       4.26105492       3.76072176       0.00035441       0.00508664      -0.00489517
P        3.48588913       6.24058627       2.76662387      -0.00470451       0.00109655      -0.01102322
C        2.43843840       8.51538062       3.77787729       0.00098478       0.00441986       0.00781966
C        9.86746674      -0.03587463       3.74972023       0.01440179      -0.00286957       0.02648163
C        8.64900659       2.09589818       3.88840144       0.00277465      -0.00822869       0.00363583
C        7.42443207       4.22299975       3.83010191       0.01024190       0.00166820      -0.00665391
C        6.20066642       6.36018414       3.50382073      -0.00403415       0.01013266       0.01397707
C        4.91341638       8.49299383       3.54160078       0.00023114      -0.01337122      -0.00108413
C        0.00474057       1.36888751       3.62788989       0.00633570       0.00001705      -0.00927849
C       -1.19255548       3.54231975       3.80436037      -0.00431364      -0.00148386       0.02195611
C       -2.46609202       5.65375800       3.91521796       0.01063071      -0.00045195      -0.01032234
C       -3.71313337       7.77366299       3.79100655      -0.00692598      -0.00455267       0.00261471
C       -4.95417363       9.88731514       3.70078454      -0.00396258      -0.00047380      -0.00333650
C        2.46141936       1.28625286       3.81360014      -0.00124672      -0.01738461       0.00622296
P        1.52037628       3.69065649       3.07445645      -0.00765523       0.01346904       0.00369839
C       -0.01663969       5.71783136       4.06378195      -0.00128466       0.00183687       0.00812148
C       -1.24808242       7.79527141       3.98837715      -0.01204139       0.00302264      -0.01248242
C       -2.47117725       9.89377475       3.90628917       0.00566435      -0.00360799       0.00926036
C        4.93251747       1.35473823       4.04000390      -0.00335700       0.00659032       0.01511286
P        3.44714816       3.65437763       4.33372708      -0.00508815       0.00275647       0.00578503
C        1.19499155       7.81026979       3.97059379      -0.00163988       0.00206191       0.00453149
C       -0.00248694       9.93141391       3.97779237      -0.00439648      -0.01717800      -0.01739390
C        7.40659743       1.38662263       3.96813124      -0.00873087      -0.00565287      -0.02128477
C        6.18570653       3.50919736       3.89163147       0.00937628       0.01329343      -0.00572406
C        5.00855268       5.61652467       3.38556477      -0.00537569       0.00482487       0.00372292
C        3.65529846       7.82449619       3.51164178      -0.00475055       0.00064271      -0.01470907
C        2.45919141       9.93776918       3.83993935       0.00036541       0.00631082      -0.01192307
C        9.88416124       1.39188920       3.78776638       0.01159279       0.00016796      -0.00010210
C        8.65734594       3.51768790       3.87653806       0.00868606      -0.00677236      -0.00519873
C        7.41921788       5.64278161       3.71042969      -0.00276576       0.00211634       0.00057024
C        6.15732971       7.77737659       3.53265213       0.00454779       0.00676738      -0.00223555
C        4.92266297       9.92140052       3.64435018       0.00734970      -0.01619404       0.03225490
Mn       2.53587963       5.84840615       5.47723984      -0.00271422      -0.01030295      -0.02684049
O        3.19471956       4.06929896       5.84242247      -0.00334488       0.01701033      -0.00808455
O        2.86191367       7.33194686       6.53342447      -0.00208165       0.02536905       0.02209402
H        3.19904587       7.17096013       7.43232264       0.02358796      -0.00002161      -0.01535407
