53
Lattice="12.336457 0.0 0.0 -6.168228499999997 10.683685154694365 0.0 0.0 0.0 15.0" Properties=species:S:1:pos:R:3:forces:R:3 energy=-461.38988463993184 free_energy=-461.38988463993184 stress="-0.0011742408514155735 0.0027355885511509285 9.7295684119261e-07 0.0027355885511509285 -0.003349395956670471 2.9630726631979266e-05 9.7295684119261e-07 2.9630726631979266e-05 2.7900579589696655e-05" pbc="T T T"
C       -0.04341278       0.04788764       3.78249350       0.00187512      -0.00794791       0.00716775
C       -1.25478924       2.20095294       3.87864697      -0.00443596      -0.00146777      -0.00768408
C       -2.48213983       4.32191404       3.87741784       0.00198439       0.00821012       0.00927392
C       -3.74517636       6.44736869       3.78937805      -0.01034652      -0.00426968      -0.00816766
C       -4.98928711       8.58189375       3.72316317       0.00246360      -0.00078601      -0.00734250
C        2.41822585       0.03452558       3.77738339       0.00518176       0.00848600       0.00652400
C        1.20794393       2.18956662       3.90239919      -0.00120109       0.00092751       0.00053475
C        0.01356713       4.36641155       4.03039025       0.00810547      -0.00144712      -0.00611803
C       -1.27290507       6.45957669       3.88221472       0.00011467      -0.00325733      -0.00697376
C       -2.51402773       8.58238874       3.76386045       0.00156073      -0.00275950      -0.00395574
C        4.88934639       0.03775685       3.74285344       0.00435369       0.00495541       0.00106649
C        3.65877108       2.15041922       3.79226918       0.00079537       0.00254535      -0.01035623
N        2.48913806       4.21054846       4.15551946       0.00050740       0.00014456      -0.00535489
O        1.08448944       6.56426889       4.16058596       0.00055307       0.00084121      -0.00380383
C       -0.06083380       8.59579161       3.73856938       0.00136980       0.00212486      -0.00017552
C        7.35778024       0.04836026       3.74228958       0.00824465      -0.00812580       0.00366128
C        6.13512868       2.16916399       3.77372267       0.00202990       0.00192895       0.00019689
C        4.89898022       4.27731594       3.71399639      -0.00869894      -0.00007773       0.00240328
P        3.61370255       6.39205483       2.59771763       0.00574517       0.00918497       0.00665416
C        2.38570906       8.59641206       3.65713911      -0.00286534       0.00205449      -0.00739986
C        9.82849781       0.05506901       3.75086555      -0.00070136      -0.00298284       0.01844828
C        8.60711277       2.18449077       3.81202017      -0.00327832      -0.00143657       0.00712124
C        7.37499434       4.30797518       3.78239432      -0.00317851      -0.00250750      -0.00856312
C        6.12797833       6.44259322       3.64324164      -0.00203846       0.00589279      -0.00250456
C        4.88359763       8.59234262       3.61749856      -0.00961071       0.00260960       0.00117291
C       -0.03083441       1.47905089       3.85909197      -0.00214781      -0.00532101      -0.00211011
C       -1.23113713       3.63315304       3.93279588       0.00334667       0.00352762      -0.00373364
C       -2.50641493       5.73763868       3.85433311      -0.00629497       0.00590104      -0.00261181
C       -3.75375215       7.87167626       3.75888377      -0.00072552      -0.00544320       0.01860420
C       -4.98553462      10.00859407       3.76141092       0.00796134      -0.00095565       0.00087750
C        2.42587003       1.45548175       3.82669722       0.00126763       0.00771858       0.00146092
C        1.25482031       3.60569671       4.04052093       0.00376400      -0.00252800       0.00711695
C       -0.08033734       5.76957282       4.02827685       0.00147914      -0.00353820      -0.00473690
C       -1.28978352       7.88157360       3.79188766       0.00272598      -0.00203435       0.00637375
C       -2.51557208      10.00981860       3.75236629       0.00314332       0.00376867       0.00318279
C        4.89746563       1.45621575       3.76033017       0.00293445       0.00518717       0.00307570
C        3.65762879       3.55926429       3.84080147      -0.00544167      -0.00211802      -0.00462819
C        1.14452163       7.92871952       3.77972856       0.00042450       0.00470071       0.00760823
C       -0.04535610      10.02453892       3.72513682       0.00460451       0.00146954       0.00272454
C        7.36871555       1.47100175       3.77712337       0.00105567      -0.00732843      -0.00007200
C        6.13602577       3.58757954       3.76233581      -0.00716010       0.00194847      -0.00355834
C        4.90544471       5.69874382       3.55319356       0.00992876      -0.00314879      -0.01577510
C        3.63873651       7.90107658       3.49974621      -0.00715541       0.00122747       0.01344083
C        2.41574619      10.02373068       3.71619586       0.00665538      -0.00560796       0.01764655
C        9.84259437       1.48017773       3.81868816      -0.00547283      -0.00228042      -0.00904641
C        8.61100057       3.60575234       3.82800168       0.00145171       0.00255983       0.01140725
C        7.36064466       5.73341307       3.75044412      -0.00807179      -0.00295660      -0.00697091
C        6.11439654       7.86652263       3.64607489      -0.00652521       0.00737220      -0.00535337
C        4.89133518      10.02097888       3.72663231      -0.00376998      -0.00094191      -0.00390007
Mn       2.84360222       5.91606026       5.08829238       0.00507555      -0.00416674      -0.00830307
O        4.17535726       5.71402446       6.36925143       0.00127934      -0.00761949      -0.00225460
O        3.51450269       4.57618032       7.06993484      -0.00212682       0.01239529      -0.00179984
H        3.55026909       4.93925348       7.97454514      -0.00073546      -0.01462786      -0.00449001
