51
Lattice="12.336457 0.0 0.0 -6.168228499999997 10.683685154694365 0.0 0.0 0.0 15.0" Properties=species:S:1:pos:R:3:initial_magmoms:R:1:forces:R:3 energy=-444.4695480749381 free_energy=-444.4695480749381 stress="-0.0008621311618149293 0.0027192302281109533 -7.299645633463233e-06 0.0027192302281109533 0.004316328964476011 3.672742287762987e-06 -7.299645633463233e-06 3.672742287762987e-06 -9.77337274858389e-06" pbc="T T T"
C       -0.02171703       0.05274976       3.76818264       0.00000000       0.00569014      -0.00816051       0.00038153
C       -1.24911657       2.18660907       3.87583141       0.00000000       0.00172370      -0.00252016      -0.01243260
C       -2.47519440       4.32497502       3.83707807       0.00000000       0.00168601       0.00103508       0.00927818
C       -3.72423015       6.45931015       3.71167012       0.00000000      -0.00248572      -0.00065713      -0.00665251
C       -4.97723627       8.59576284       3.65531485       0.00000000       0.00062214      -0.00238481      -0.00489203
C        2.43492243       0.10906545       3.75779423       0.00000000      -0.01239645       0.00049022      -0.00841955
C        1.18473239       2.20823205       3.83045376       0.00000000       0.00419856      -0.00345798      -0.00102292
C       -0.04146239       4.31331646       3.98345253       0.00000000       0.00261250       0.01072579       0.00319059
C       -1.26699968       6.46294583       3.90494319       0.00000000       0.00031035      -0.00249437      -0.00137793
C       -2.51304615       8.60902419       3.79977681       0.00000000       0.00387283       0.00373546       0.00373499
C        4.89795641       0.05686262       3.80765139       0.00000000      -0.00548410       0.00980124       0.00455105
C        3.71992323       2.20726781       3.67346494       0.00000000       0.00187984      -0.00034253      -0.00669744
N        1.11329925       6.50339296       4.19320524       0.00000000       0.00420070      -0.00399014       0.00413150
C       -0.05128159       8.59042009       3.92230836       0.00000000       0.00346103      -0.00480766      -0.00946497
C        7.37518617       0.03237671       3.88068173       0.00000000       0.00244078       0.00775655      -0.00393426
C        6.16946892       2.16037288       3.70889234       0.00000000      -0.00248146       0.00354231      -0.00342420
C        5.00704484       4.24249130       3.35027947       0.00000000      -0.00118567      -0.00622421       0.00160571
S        3.53057535       6.38912184       2.60682886       0.00000000      -0.00651702       0.00614736       0.00278917
C        2.41975447       8.56962587       3.83707490       0.00000000      -0.00477985      -0.00240309       0.00012008
C        9.84713544       0.03225353       3.83817391       0.00000000       0.01173934      -0.00053369       0.00500285
C        8.62714315       2.17383342       3.82846866       0.00000000      -0.00828993       0.00490565      -0.00896629
C        7.41331349       4.30822724       3.63678173       0.00000000      -0.00284804      -0.00448051       0.00221597
C        6.15531626       6.43139869       3.43297736       0.00000000      -0.00041910       0.00016484       0.00387953
C        4.89314759       8.57292499       3.59644564       0.00000000       0.00078518       0.00098659      -0.00346924
C       -0.00996031       1.49210084       3.83631181       0.00000000       0.00593881      -0.00781677      -0.00755049
C       -1.24125250       3.61028363       3.90512003       0.00000000       0.00637503       0.00393185       0.00193362
C       -2.48785390       5.74561947       3.81655438       0.00000000      -0.00198061      -0.00067403       0.00631251
C       -3.73978586       7.88775447       3.71714135       0.00000000       0.00383863       0.00071221      -0.00205696
C       -4.95894598      10.04235565       3.72565423       0.00000000      -0.00168187      -0.00875012      -0.00370822
C        2.44509439       1.56629580       3.76001627       0.00000000       0.00200707      -0.00141519      -0.00641316
O        1.14210800       3.58919964       3.94902941       0.00000000      -0.00034620      -0.00007253       0.00506473
C       -0.03821676       5.75180340       4.03745090       0.00000000       0.00287242       0.00753854       0.00323332
C       -1.28317572       7.88834827       3.88317565       0.00000000       0.00440234      -0.00340691       0.00317391
C       -2.51177403      10.04891716       3.78662275       0.00000000      -0.00938605       0.00910392       0.01140631
C        4.91130964       1.48380193       3.72923218       0.00000000       0.00084681       0.00702475      -0.00102604
O        3.79459597       3.58009930       3.55070958       0.00000000      -0.00492782      -0.00278867      -0.00310939
C        1.16173521       7.85882854       3.98120501       0.00000000      -0.00019172      -0.00778749      -0.00308411
C       -0.03611568      10.01799249       3.87223063       0.00000000      -0.00099830       0.00284727      -0.00309574
C        7.38728224       1.45703596       3.81682557       0.00000000      -0.00602596       0.00708756       0.00065757
C        6.19753393       3.56602699       3.55528440       0.00000000      -0.00192997      -0.00230136       0.00766662
C        4.99693342       5.64901431       3.21353797       0.00000000       0.00282579      -0.00675142      -0.00284683
C        3.63474260       7.89723310       3.52716908       0.00000000      -0.00305432      -0.00199980       0.00550933
C        2.43807044      10.00133155       3.87684771       0.00000000       0.00685238       0.00118754      -0.00080477
C        9.86216800       1.46685149       3.86138802       0.00000000      -0.00575778       0.00381043       0.00172605
C        8.63724376       3.60065148       3.77545690       0.00000000      -0.00033900       0.00247161      -0.00133647
C        7.39479824       5.73123123       3.59339543       0.00000000      -0.00402133      -0.00434923       0.00105283
C        6.13053660       7.86644780       3.53123150       0.00000000      -0.00146211       0.00357656       0.00080003
C        4.90802361      10.00722092       3.75176593       0.00000000       0.01017180      -0.00280237       0.00396169
Mn       2.64826874       5.58297074       4.76756810       0.00000000      -0.00339041      -0.00087672       0.00478695
O        3.95281756       4.74896258       5.97499742       1.00000000       0.00211758      -0.00491574       0.00265434
O        2.92811160       3.92648686       6.04037060       1.00000000      -0.00109095       0.00058182       0.00496519
