51
Lattice="12.336457 0.0 0.0 -6.168228499999997 10.683685154694365 0.0 0.0 0.0 15.0" Properties=species:S:1:pos:R:3:initial_magmoms:R:1:forces:R:3 energy=-270095.78925775626 free_energy=-270095.78925775626 stress="588.0609162591746 -134.42717923360897 -248.38766917305796 -134.42717923360897 441.8567314032721 -96.65847613698935 -248.38766917305796 -96.65847613698935 1131.5914479675205" pbc="T T T"
C        2.81674608       0.97016028       5.29007375       0.00000000   99534.53298708    4151.58440692 -124238.47381204
C        1.67688534      -4.27636689       0.74870848       0.00000000   35733.51412641   -5514.01270324   25236.39082936
C       -0.66320440       5.00793822       4.55097936       0.00000000  -42917.29269059   80874.03523679 -226915.00128879
C       -1.04102972       4.90101458       3.99340133       0.00000000   78993.53432805  -36851.97138312   14513.34565905
C       -6.53835601       5.99739245       1.55229214       0.00000000    -405.14807235    -292.04712245     207.33962208
C       -4.40082430       1.24305743       2.99097705       0.00000000      23.76298158      31.78806924      24.58835050
C        2.96435709       2.71143665       2.28343016       0.00000000 -164352.32179633  182033.98254770   35132.62148117
C        2.29040292       3.44247648       2.74104830       0.00000000 -1028593.42853878  508249.96298205 1314420.29838212
C       -0.51461345       4.89393247       4.82086674       0.00000000  153562.24752384 -179537.76368083  280685.45550730
C        5.77686055       2.45865181      -8.41467833       0.00000000    -464.56894061     -57.54705101      61.85281940
C        3.85891286       4.48306713       4.55864473       0.00000000  -13684.23333291  -13080.58457249   22171.33413650
C        6.35209849       8.97161540       2.56007049       0.00000000      44.15059663     168.77328054     -41.71968246
O        0.04795019       4.80050026       4.33424989       0.00000000 -159703.40111344   17193.40973108 -102120.29263404
C       -3.03807366      11.69704998       5.05635744       0.00000000  -95021.64710136   85014.40665845   69861.22859009
C        8.54018064      -4.03357475       4.04220059       0.00000000   -2714.35881769    3901.68966603    1036.44409663
C        2.46190321       3.20530390       5.86883697       0.00000000   -9576.01720463    3295.99211762   61278.49640304
C        1.34349229       3.06367924       2.55574592       0.00000000  160979.97037855   84743.94027832 -165144.91422850
O        1.71651422       4.05420217       2.75742974       0.00000000   35040.63005702  -81655.34541104  126648.80362908
C        8.24945759       4.48764503       8.51544058       0.00000000      58.89833631      -8.30774137     -69.46571964
C        5.13997724       1.07622452      -4.17229739       0.00000000       1.70783433      -0.16885937      -2.97272392
C        9.16430341       3.96211246       2.92776118       0.00000000    5462.59624823    1304.19284952    2164.69763272
C        7.45754753       6.46754105       0.47532694       0.00000000  -35873.67215062    5611.63061024  -25450.81821876
C       11.02195439       6.46484535       9.26466864       0.00000000      -2.39778615     -27.01295207    -106.75159870
C        0.35682315      14.86695447       3.39398874       0.00000000    -899.80155361    -348.48806338     -42.51535500
C       -2.84157020       5.12423135       6.12852410       0.00000000   -2355.79075584     271.31572239    2152.04628493
C        0.36824094       3.81687395      10.14084671       0.00000000      40.32371799     -21.85188801     -86.79249166
C        0.42332567       3.53309886       2.20456168       0.00000000   84063.04113067   -1202.63623677   19060.87761299
C       -3.23019465      14.20895123      -0.83863773       0.00000000     104.99246391     -33.03098920      36.10019747
C       -2.64838124      11.38726179       4.40729977       0.00000000  -42245.18037583  -10253.87537675   50878.29105944
C        1.35522775       3.36175149       5.17316705       0.00000000  251356.11917121    9988.30972535 -173732.61663148
O        2.25300871       3.46694137       3.00177139       0.00000000  670531.62674515 -503665.95390345 -433238.90714446
C       -0.72878663       4.17149759       3.72194342       0.00000000   55629.70286019   56950.78444332   89510.00949372
C       -5.59261290       0.14692538       9.05725112       0.00000000       3.71613919      -4.58237979       9.13787076
C       -0.99702551      10.45923509       4.41904038       0.00000000    -547.50545439    1425.81127702    -354.06770237
C        7.80092427      -4.91162439       5.25451495       0.00000000   13380.40891067  -28000.00950140   13066.31934626
O        6.33716935       9.39167585       1.62902321       0.00000000     245.62649671     519.02920237     122.26234137
C       -0.03579859       4.25850709       5.07609691       0.00000000  -34257.98720191   49588.22282318  -79042.22839085
C       -3.29067018      10.71735802       5.50860715       0.00000000    5708.85554770   10543.85262186   -9852.34265621
C        9.34306322       1.18025678       3.34694490       0.00000000     280.02353907     342.40674304      83.68247756
C       16.42194427       6.59293017      10.74313258       0.00000000       1.66251829       2.98511431       6.67754971
C        2.02367951       4.06677045       2.21850046       0.00000000   59852.29571693 -332527.47497632  195726.30024907
C        2.98873285       4.86447346       6.02576598       0.00000000  -18338.82267050  -33312.36372944   -4239.03642895
C        1.14468152       9.73408344      -1.15362302       0.00000000      -0.45067243       0.08486028       0.77785076
C       16.49610428      -0.59526884       3.09630257       0.00000000   -1125.16913389    1184.15855933     486.65027642
C        5.44130747       1.85562020       3.52149584       0.00000000    -696.72847216    -222.56431880     683.42197641
C        4.41056806      10.73813675      -1.38926136       0.00000000       2.16514881       5.30284162       4.35422380
C        7.49938969       4.72502831       6.77028876       0.00000000     410.91685350     -11.03994485     -46.04388959
C        3.81599298      15.10815011      10.19967100       0.00000000       2.83008624       2.08848419      -5.18456396
Mn       2.04471191       3.49774405       4.47491128       0.00000000  307768.51975942  -59613.36864245 -965477.49049898
O      -12.14756418       9.12708842       6.68384757       1.00000000    -162.09183806    -270.16795231    -136.19540437
O        2.10782360       3.45831270       4.80698748       1.00000000 -364880.35652961  179112.42852716  -14925.97488497
