52
Lattice="12.336457 0.0 0.0 -6.168228499999997 10.683685154694365 0.0 0.0 0.0 15.0" Properties=species:S:1:pos:R:3:initial_magmoms:R:1:forces:R:3 energy=-455.0528039870959 free_energy=-455.0528039870959 stress="0.0015110796432621408 0.0014135951801711154 7.263969454998761e-06 0.0014135951801711154 0.00013334880578124596 1.6427364625921085e-06 7.263969454998761e-06 1.6427364625921085e-06 1.8937871790743465e-05" pbc="T T T"
C       -0.03707604      -0.02570788       3.76751983       0.00000000       0.00020046       0.00141530       0.00187107
C       -1.25039790       2.13217122       3.84395085       0.00000000      -0.00396827       0.00369963      -0.00318072
C       -2.47522082       4.25332669       3.83593959       0.00000000      -0.00646909       0.00113133       0.00419969
C       -3.73695250       6.38298003       3.75123391       0.00000000       0.00565758       0.00417132      -0.00176509
C       -4.96692569       8.52263099       3.69293280       0.00000000      -0.00552445       0.00949450      -0.00239239
C        2.43039286      -0.01989425       3.81523835       0.00000000       0.01306091      -0.00235737       0.00579310
C        1.20746519       2.12497224       3.86343135       0.00000000       0.00052230      -0.00204693       0.01163580
C        0.04014027       4.29341498       3.92055679       0.00000000      -0.00186915      -0.00835018       0.00426939
C       -1.25415545       6.38740592       3.84778112       0.00000000       0.00446633       0.00301558       0.00613292
C       -2.49898464       8.51941457       3.80306138       0.00000000      -0.00466780      -0.00458381       0.00172831
C        4.90030931      -0.02404915       3.81588784       0.00000000      -0.00417943       0.00252472       0.00383134
C        3.66331899       2.10881879       3.80583300       0.00000000      -0.00101558      -0.00096494      -0.00937450
O        2.45328954       4.14259542       4.00229423       0.00000000       0.00662756      -0.00404202      -0.00291078
O        1.11477488       6.46048188       3.98879868       0.00000000      -0.00632511      -0.00547473       0.00275884
C       -0.04034234       8.52250666       3.78001293       0.00000000      -0.00211815       0.00663937       0.00074208
C        7.36679365      -0.02328345       3.78068696       0.00000000      -0.00220880      -0.00206919       0.00944672
C        6.13393111       2.11110694       3.78852182       0.00000000       0.00242727       0.00520081       0.00419761
C        4.87994353       4.21713104       3.57727974       0.00000000       0.00240341       0.00549013      -0.00200862
P        3.49513844       6.28586378       2.47759583       0.00000000       0.00802863      -0.00518140       0.00280796
C        2.39517043       8.52374516       3.56103101       0.00000000       0.00198020      -0.00909280       0.00087006
C        9.83702837      -0.02130857       3.73192233       0.00000000      -0.00244394      -0.00061418       0.00832235
C        8.60981805       2.11680759       3.80946508       0.00000000       0.00032297       0.00147640       0.00201151
C        7.37120553       4.24792884       3.72663809       0.00000000       0.00177397       0.00691985       0.00654611
C        6.13604277       6.40060139       3.48460406       0.00000000      -0.00387823      -0.00357726       0.01316126
C        4.91473812       8.51589896       3.49271216       0.00000000      -0.00177523      -0.00596576      -0.01307322
C       -0.03255239       1.40584683       3.83375053       0.00000000      -0.00364891       0.00204025      -0.00077539
C       -1.21739113       3.56578459       3.87578302       0.00000000      -0.00602819       0.00106871      -0.01038615
C       -2.49576985       5.67124026       3.81955367       0.00000000       0.00606202       0.00233104      -0.00212064
C       -3.73737719       7.80978158       3.75399032       0.00000000      -0.00751423       0.00464526       0.00578041
C       -4.97029120       9.94390718       3.76570397       0.00000000       0.00742851       0.00954031      -0.00296076
C        2.43531765       1.39601551       3.83927722       0.00000000       0.00197288      -0.00423643      -0.01179821
C        1.22898171       3.51089897       3.91806108       0.00000000       0.00425805      -0.00310110       0.01494708
C       -0.04347556       5.71452285       3.91025596       0.00000000      -0.00086758      -0.00741112       0.00004529
C       -1.27117351       7.81534243       3.81702604       0.00000000      -0.00030482       0.00379834      -0.00028644
C       -2.50292856       9.94726003       3.81449807       0.00000000       0.00493632      -0.00774293      -0.00312971
C        4.90492894       1.39707720       3.80435844       0.00000000      -0.00051503       0.00275143       0.00370418
C        3.66144666       3.50003785       3.75483107       0.00000000       0.00512724      -0.00060461      -0.00753408
C        1.16376318       7.82621074       3.73142325       0.00000000      -0.00503326      -0.00404308      -0.00071671
C       -0.03483747       9.95327347       3.79158338       0.00000000      -0.00665482       0.00658808       0.00186801
C        7.37262566       1.40313724       3.80230792       0.00000000       0.00209563      -0.00002396      -0.00087819
C        6.11566688       3.53377578       3.71377734       0.00000000       0.00234104       0.00767810      -0.00162560
C        4.89976182       5.67089265       3.24382988       0.00000000      -0.00199561       0.00331007      -0.00688208
C        3.66506110       7.81471058       3.23099856       0.00000000      -0.00036041      -0.00580857      -0.00396736
C        2.42184889       9.93388118       3.70618452       0.00000000      -0.00204503      -0.00549620       0.00322126
C        9.84386054       1.40415506       3.80506253       0.00000000      -0.00123132       0.00277075       0.00313198
C        8.60961511       3.54146780       3.80062944       0.00000000      -0.00404042       0.00138938       0.00052546
C        7.36102340       5.67816845       3.66250592       0.00000000       0.00442950       0.00371169       0.00710427
C        6.12975563       7.80717234       3.54657332       0.00000000      -0.00181392      -0.00229151      -0.00909219
C        4.90192787       9.93747587       3.67722872       0.00000000      -0.00159685      -0.00268696      -0.01459378
Mn       3.88724730       6.53763985       4.81551430       0.00000000       0.01025043      -0.00243823      -0.00507258
O        4.34749377       6.82863031       6.56646542       1.00000000       0.01508123      -0.00592102      -0.00857444
O        3.34316993       6.18267471       6.54377630       1.00000000      -0.02136080       0.00332393      -0.00555441
