52
Lattice="12.336457 0.0 0.0 -6.168228499999997 10.683685154694365 0.0 0.0 0.0 15.0" Properties=species:S:1:pos:R:3:forces:R:3 energy=-448.50383647301453 free_energy=-448.50383647301453 stress="0.0004092081948817391 -3.6537737217961305e-05 1.2162728435251869e-06 -3.6537737217961305e-05 0.00815770425983563 -3.237486210703175e-05 1.2162728435251869e-06 -3.237486210703175e-05 -2.013826837360034e-05" pbc="T T T"
C       -0.00463631      -0.01526050       3.79446960      -0.01023821       0.00602591      -0.00163896
C       -1.25130009       2.11117467       3.78675452       0.00723721      -0.00225182       0.00622942
C       -2.47729479       4.25244926       3.71977923      -0.00663362       0.00214966      -0.00217060
C       -3.70776781       6.39316747       3.69017609      -0.00264847       0.00040415       0.00539969
C       -4.94384241       8.53496771       3.73459565       0.00140675       0.00273419       0.00312031
C        2.45989172       0.03488507       3.81161870       0.00164477       0.00127235      -0.00351829
C        1.19312858       2.13137583       3.91841128       0.00517854       0.00442046       0.00095193
C       -0.06461038       4.26442352       3.90266020       0.00106818      -0.00332902      -0.00982622
C       -1.24933035       6.38748386       3.76824201      -0.00354353      -0.00250405       0.00461678
C       -2.47121985       8.53616596       3.75657123      -0.00825328      -0.00873878      -0.01155236
C        4.92496522      -0.01329044       3.79171722       0.00802305       0.00772171      -0.00523081
C        3.72789009       2.14024878       3.86838962      -0.00718105      -0.00210630       0.00483442
O        1.14163069       6.39067902       3.97251268       0.00724089      -0.00674378       0.01062210
C        0.00114186       8.49909987       3.80859497      -0.00313263      -0.00318443       0.00303496
C        7.40337165      -0.05611039       3.77802209       0.00344227      -0.00419531       0.00765645
C        6.16945088       2.11360554       3.73736255       0.00414650       0.00238253       0.00192651
C        4.97440523       4.26313463       3.76262507      -0.00091281      -0.00222923      -0.01250883
O        3.77701239       6.38843264       3.79639204      -0.00202968       0.00051750      -0.00972044
C        2.45956253       8.42580434       3.83652015      -0.00201119       0.01070106       0.00419089
C        9.85349088      -0.05764504       3.78300988      -0.00585590       0.00233446      -0.00879820
C        8.62788112       2.10144761       3.73055050       0.00041854      -0.00648502      -0.01623790
C        7.39696526       4.25270071       3.67291294       0.00140850       0.00647129       0.01302700
C        6.16782111       6.38560356       3.68687981       0.00728217      -0.00529063      -0.00037475
C        4.92000784       8.49698089       3.76295051       0.00525764      -0.00478316       0.00039904
C       -0.00000231       1.42485018       3.82861804       0.00760341       0.00373654       0.00022960
C       -1.24811693       3.53843648       3.78523392      -0.00269789      -0.00127194      -0.00505261
C       -2.47701287       5.67185547       3.71358911      -0.00678758       0.00318001       0.00369743
C       -3.70746468       7.82305855       3.72231426      -0.00707599      -0.00624896      -0.00386693
C       -4.93337080       9.97880299       3.78144561      -0.00614603       0.00625911       0.00956558
C        2.45955714       1.49404428       3.87776062      -0.00415137      -0.00029111       0.00581386
O        1.13844321       3.53737374       4.04349165       0.00280751      -0.00741636       0.00113021
C       -0.05902709       5.66778116       3.88393098       0.00166418      -0.00373821      -0.01391003
C       -1.24906276       7.81287349       3.77159395      -0.00765092      -0.00373447       0.00180966
C       -2.48267862       9.98004050       3.78801512       0.00674934      -0.00302959       0.00506559
C        4.91962557       1.42706198       3.79421093      -0.00193649       0.00942362      -0.01348101
O        3.78185980       3.54145008       3.90039383       0.00190566      -0.01128551      -0.00462719
C        1.19500798       7.78479086       3.87700036       0.00043188      -0.00076314       0.00338663
C       -0.00466622       9.93799073       3.78926694       0.00562725      -0.00000403       0.00231805
C        7.39157955       1.38942233       3.74060298       0.00196372      -0.00899471       0.00914717
C        6.16475053       3.54131629       3.69985292       0.00549278       0.00417226       0.00801418
C        4.96667774       5.67056733       3.73488465       0.00091843      -0.00052418      -0.01727184
C        3.72746196       7.77165070       3.79845076      -0.00113533       0.00372223      -0.00478805
C        2.45982182       9.88366857       3.79658206      -0.00067383       0.00603506       0.00566339
C        9.86411256       1.38747863       3.76091301       0.00377134      -0.00097405       0.00875411
C        8.62792518       3.53168346       3.69847518      -0.00492175      -0.00062881      -0.00726783
C        7.39724809       5.67249848       3.67035401       0.00555666       0.00178381       0.00612521
C        6.16969603       7.81140452       3.72069499       0.00997446      -0.00519878       0.00223536
C        4.92571090       9.93560545       3.78149077      -0.01076662      -0.00023597       0.00126868
Mn       2.39873576       4.89005121       5.20696988      -0.00302997       0.00312390      -0.00132559
O        3.34230070       6.05030340       6.39488091       0.00766848       0.00318426       0.01182311
O        2.33829053       5.41122458       7.31323421      -0.01104526       0.00887159      -0.01073604
H        2.95598563       5.04421228       7.96954432       0.00456929       0.00555364       0.01184715
