52
Lattice="12.336457 0.0 0.0 -6.168228499999997 10.683685154694365 0.0 0.0 0.0 15.0" Properties=species:S:1:pos:R:3:forces:R:3 energy=-440.05017337929183 free_energy=-440.05017337929183 stress="-0.0018657812454957574 7.502944770707678e-05 1.0149641177290207e-05 7.502944770707678e-05 -0.007388439845646726 -1.9827528631177913e-05 1.0149641177290207e-05 -1.9827528631177913e-05 9.254776933925503e-06" pbc="T T T"
C       -0.10832546      -0.02015702       3.83107444      -0.00054364       0.00311405       0.00319704
C       -1.34737930       2.12503603       4.07501750      -0.00123861      -0.00757858      -0.00108248
C       -2.58555183       4.26597349       3.96861849       0.00166109      -0.00128571      -0.00786027
C       -3.79551074       6.39677882       3.71609973      -0.00007552       0.00267125      -0.00521919
C       -5.04865285       8.52109508       3.64318409      -0.00100799       0.00340417       0.00108117
C        2.36112055      -0.04960459       3.80204926       0.00119161       0.00405721       0.00520111
C        1.14555794       2.04237010       4.22686489      -0.00034489       0.00800739      -0.00059693
C       -0.23365522       4.26923408       4.65062648       0.00064618       0.00229492      -0.00849108
C       -1.38064141       6.41430968       4.24192764      -0.00341456      -0.00386610      -0.00401788
C       -2.56945213       8.52323221       3.86248134      -0.00535537      -0.01151921       0.00613577
C        4.82931737      -0.01644979       3.72556794      -0.00528287       0.00205401       0.01143435
C        3.56742052       2.04267769       3.51134286      -0.00217238       0.00402005       0.00138868
P        1.19417760       6.50924981       5.30124760       0.01112097       0.00529300      -0.00713954
C       -0.10712957       8.55832008       4.06946970      -0.00106822      -0.00289489      -0.01260088
C        7.28754533       0.01538883       3.76693118      -0.00021303      -0.00422837       0.00112796
C        6.06260485       2.12567918       3.45816234       0.00599106       0.00250021       0.00021232
C        4.95391951       4.27580636       2.97244162      -0.00802346      -0.00333644      -0.01004227
S        3.36134903       6.38238842       2.75555159       0.01271710      -0.01009667      -0.00287848
C        2.36142636       8.58879274       3.87602638       0.00086901       0.00504729       0.00704338
C        9.76879874       0.01219928       3.77473559      -0.00288157       0.00194532       0.00374397
C        8.53265421       2.13998345       3.73028130       0.00234583      -0.00680008       0.00414819
C        7.32936075       4.26541367       3.46278952       0.00120993       0.00093683       0.00883138
C        6.10786126       6.42005933       3.26933485       0.00251934      -0.00057183      -0.00261600
C        4.82404780       8.54548277       3.53916107      -0.00102715       0.00325044       0.01270040
C       -0.10784350       1.39653090       4.06487885       0.00298573       0.00134451      -0.00995252
C       -1.37974338       3.54247867       4.23674567      -0.00082169      -0.00412750      -0.00319868
C       -2.58558645       5.69035447       3.97033749      -0.00276318       0.00085972      -0.00208464
C       -3.80411682       7.81572679       3.73683627      -0.00481432      -0.00291860      -0.00285891
C       -5.04985860       9.93832612       3.77253208       0.00129969       0.00583017      -0.00988948
C        2.36162172       1.36410753       3.87402002      -0.00202222       0.00792667       0.00366558
P        1.20003605       3.45013271       5.28639404      -0.00469034      -0.00905497       0.00555560
C       -0.23361313       5.68806818       4.65433159       0.00177130       0.00059887      -0.00412785
C       -1.34781384       7.83157749       4.08290302       0.00020776      -0.00697989      -0.01396929
C       -2.56747679       9.94266620       3.77962139      -0.00352602      -0.00870990       0.00231852
C        4.82467559       1.40854724       3.54227739      -0.00186241       0.00343551      -0.01123208
S        3.36262914       3.57030532       2.75085898       0.01268619       0.00149770       0.00484201
C        1.14527693       7.91067928       4.23251532       0.00222738       0.00404432       0.00382067
C       -0.10723855       9.97401590       3.83040619      -0.00425579       0.00036995       0.00814292
C        7.28851113       1.43315577       3.63823914       0.00495425      -0.00555803       0.00472477
C        6.10868534       3.53473253       3.27063144      -0.00406328       0.00398602       0.00776731
C        4.95476505       5.68022010       2.96409189      -0.00307188      -0.00182376       0.00549538
C        3.56722789       7.91000006       3.51408108      -0.00174038       0.00057739       0.00268153
C        2.36149972      10.00272629       3.79818466      -0.00009092       0.00305894       0.00918715
C        9.76727153       1.43254192       3.85579969      -0.00079328      -0.00375951       0.00258523
C        8.54132250       3.55914071       3.71294431       0.00439607      -0.00589716      -0.00890104
C        7.32875876       5.69035018       3.46460509       0.00300383       0.00146705      -0.00476119
C        6.06232792       7.82856492       3.45803472       0.00162037      -0.00051237       0.00045558
C        4.82852252       9.97026566       3.72325914      -0.00369799       0.00588453       0.00990616
Mn       3.17911036       4.96004309       4.95196562      -0.00740458       0.00391335      -0.00204379
O        4.84421762       5.23056022       5.93057642       0.00784408      -0.00005207      -0.01325772
O        4.51082302       5.35704797       7.36106388       0.00032341      -0.00290552       0.00400875
H        4.91913891       4.53551366       7.69846121      -0.00532463       0.01108633       0.00741930
