51
Lattice="12.336457 0.0 0.0 -6.168228499999997 10.683685154694365 0.0 0.0 0.0 15.0" Properties=species:S:1:pos:R:3:initial_magmoms:R:1:forces:R:3 energy=-435.9323940523481 free_energy=-435.9323940523481 stress="-0.0019938929400435085 -1.4021146505406882e-05 1.3042101325826393e-05 -1.4021146505406882e-05 -0.008475273934571027 -1.090171255974376e-05 1.3042101325826393e-05 -1.090171255974376e-05 -1.0188734803855517e-05" pbc="T T T"
C       -0.13204219      -0.01098860       3.63860009       0.00000000       0.00172658      -0.00299007      -0.00380844
C       -1.36939527       2.12964097       3.90994815       0.00000000       0.00301894       0.00315429      -0.00658682
C       -2.61940110       4.26770387       3.86982744       0.00000000       0.00275523      -0.00013516      -0.00118409
C       -3.83230814       6.39777106       3.62932557       0.00000000       0.00417044      -0.00145091       0.00604486
C       -5.07513852       8.52393705       3.49886048       0.00000000      -0.00365913       0.00284113       0.00005885
C        2.33655032      -0.05142836       3.57139403       0.00000000       0.00068192      -0.00657834      -0.00466751
C        1.13257839       2.05321935       3.93357265       0.00000000      -0.01057697      -0.00374417      -0.00737515
C       -0.24873798       4.27517016       4.45932024       0.00000000       0.00509397      -0.00048640      -0.00418044
C       -1.40312770       6.41596582       4.08490333       0.00000000       0.01058773       0.00235658       0.00823972
C       -2.59460615       8.52053353       3.70171689       0.00000000       0.00056260       0.01299251      -0.00181130
C        4.80334045      -0.02311592       3.52434386       0.00000000       0.00519419       0.00824810      -0.00068027
C        3.54428868       2.03183320       3.20106834       0.00000000      -0.00592747      -0.00885999      -0.00669637
P        1.30277241       6.44313906       4.89792149       0.00000000      -0.01917854       0.00012306      -0.00080451
C       -0.12550062       8.55014125       3.83808461       0.00000000      -0.00389552      -0.00373865       0.00926239
C        7.26148254       0.01638142       3.57780245       0.00000000      -0.01098310       0.00039668      -0.01100603
C        6.03514873       2.12489888       3.31770618       0.00000000       0.00171564       0.00324323      -0.00276747
C        4.91157964       4.27596299       2.87525594       0.00000000       0.00649784       0.00381555       0.01112407
S        3.39959731       6.42224336       2.35005429       0.00000000      -0.00169212      -0.01443662      -0.00594844
C        2.33399753       8.59485319       3.56186176       0.00000000       0.00871146      -0.00553906       0.01395880
C        9.74334329       0.02254891       3.58631859       0.00000000       0.00029908      -0.00377533       0.00004172
C        8.50188121       2.14324557       3.61820651       0.00000000       0.00522389       0.00402915      -0.00676572
C        7.28561565       4.26730388       3.41101992       0.00000000      -0.00571503      -0.00353192       0.01791293
C        6.07135106       6.42162840       3.19684309       0.00000000      -0.00906471      -0.00397006       0.01123177
C        4.79944356       8.56005691       3.32486737       0.00000000       0.00688569      -0.00175033      -0.00678774
C       -0.12526394       1.40898896       3.85120497       0.00000000      -0.00418550      -0.00467523       0.00056273
C       -1.40363648       3.54317948       4.09249716       0.00000000       0.00049077       0.00112971       0.00987286
C       -2.61918702       5.69126399       3.86607728       0.00000000       0.01177634      -0.00185123       0.00566655
C       -3.83408327       7.81565832       3.61265084       0.00000000       0.00067834       0.00735540      -0.01148241
C       -5.07500589       9.94361233       3.58050132       0.00000000      -0.00093642       0.00048775      -0.00534654
C        2.33496992       1.36625614       3.57152307       0.00000000      -0.00624009      -0.01104740       0.00514614
P        1.30137838       3.51835642       4.90752815       0.00000000      -0.00399864       0.00761580       0.00864592
C       -0.24760840       5.68519542       4.45262305       0.00000000       0.00390542      -0.00013209       0.00966118
C       -1.36899238       7.82915831       3.89948554       0.00000000      -0.00151903      -0.00068525      -0.01541389
C       -2.59362964       9.93675125       3.58103276       0.00000000       0.00722781       0.01135307       0.00073089
C        4.79899926       1.40003486       3.32459541       0.00000000       0.00215795       0.00367317      -0.00974315
S        3.39681980       3.53721328       2.34906946       0.00000000       0.01539617       0.00783858       0.00365201
C        1.13175956       7.90514842       3.91845594       0.00000000      -0.00100481       0.00254722       0.00977226
C       -0.13206311       9.97079575       3.63064042       0.00000000      -0.00578202      -0.00565645      -0.00631102
C        7.26088370       1.43575424       3.50051839       0.00000000      -0.00031088       0.00616608       0.00189810
C        6.07015737       3.53827584       3.19916632       0.00000000      -0.00024733       0.00093574       0.00686754
C        4.91312221       5.68325134       2.87501551       0.00000000      -0.01081149       0.00185868       0.00280728
C        3.54493422       7.92916322       3.19853987       0.00000000       0.00684784       0.00175966      -0.01831922
C        2.33668956      10.01197399       3.56819874       0.00000000      -0.00703714      -0.00171684      -0.00061361
C        9.74140148       1.43813619       3.71119467       0.00000000       0.00677789       0.00049502      -0.01325894
C        8.50358948       3.56128497       3.63410196       0.00000000      -0.00119324       0.00208144       0.00003704
C        7.28603908       5.69217660       3.40948118       0.00000000      -0.00466202      -0.00639678       0.01517345
C        6.03566087       7.83507781       3.31602226       0.00000000       0.00183121      -0.00461695      -0.00008675
C        4.80375628       9.98253028       3.53014382       0.00000000       0.00557461      -0.00336584      -0.00746293
Mn       2.80708443       4.97741844       4.03407408       0.00000000      -0.00717676       0.00463341       0.00072250
O        5.41507894       5.00619342       9.37357177       1.00000000      -0.00950879      -0.00000244      -0.00748727
O        6.38598418       5.00645156      10.13914691       1.00000000       0.00951720       0.00000253       0.00750446
