51
Lattice="12.336457 0.0 0.0 -6.168228499999997 10.683685154694365 0.0 0.0 0.0 15.0" Properties=species:S:1:pos:R:3:initial_magmoms:R:1:forces:R:3 energy=-435.15272259377673 free_energy=-435.15272259377673 stress="-0.005854164616128552 0.0013016100422417398 3.520810582940072e-05 0.0013016100422417398 -0.0049303822263728515 1.0003673091521724e-05 3.520810582940072e-05 1.0003673091521724e-05 -7.727031822010488e-07" pbc="T T T"
C        0.08684105      -0.05013821       3.81338448       0.00000000      -0.00045834       0.01234812      -0.00109706
C       -1.13490500       2.10051265       3.84120989       0.00000000      -0.00824136      -0.00044564       0.00965988
C       -2.39409431       4.22678673       3.68197590       0.00000000       0.01010758       0.00132580       0.00193331
C       -3.62774946       6.36346593       3.67047836       0.00000000      -0.00483377       0.00201785       0.00356970
C       -4.86880167       8.48723538       3.68387988       0.00000000       0.00524896       0.00309265       0.00205423
C        2.55211879      -0.09479511       3.96832192       0.00000000      -0.00918349      -0.00508040      -0.00193621
C        1.32785686       2.02281301       4.21458766       0.00000000       0.00799373      -0.00606932      -0.00315242
C        0.04904034       4.25819295       3.49243706       0.00000000       0.01093911      -0.00248793       0.00339404
C       -1.20801237       6.38784408       3.33374514       0.00000000       0.00705827      -0.00513009      -0.00167797
C       -2.39227326       8.49846809       3.61899286       0.00000000       0.00434918       0.00813611       0.00347933
C        5.02317699      -0.06865130       3.94089510       0.00000000      -0.00174628       0.00934519      -0.01491452
C        3.79578242       1.95852858       4.51229921       0.00000000       0.00048491       0.00407578      -0.00981451
S        1.14876326       6.41881999       2.03897172       0.00000000      -0.00013373      -0.00596182      -0.00487320
C        0.05446374       8.53411217       3.39843513       0.00000000      -0.00646652      -0.00017296       0.00098900
C        7.48474007      -0.03050609       3.75693069       0.00000000      -0.00220819       0.00724419      -0.00697604
C        6.27380319       2.07060324       4.19546872       0.00000000      -0.00397966       0.00000194      -0.00340272
C        5.09432631       4.25881410       4.33840353       0.00000000       0.00169431      -0.00242215      -0.00137546
S        3.72968507       6.16430788       2.98098856       0.00000000       0.00224179      -0.00343424      -0.00395010
C        2.56133582       8.58353917       3.25122565       0.00000000      -0.00346292      -0.00018494      -0.00052104
C        9.96353510      -0.02379328       3.68288439       0.00000000       0.00414063      -0.00766366       0.00466293
C        8.72845155       2.09298633       3.88865061       0.00000000      -0.00474679       0.00006529      -0.00714480
C        7.50158160       4.22402619       3.96454508       0.00000000       0.00384120      -0.00457235       0.01265307
C        6.26323206       6.36333812       3.75879533       0.00000000      -0.00466735      -0.00130819      -0.01081627
C        5.02186647       8.51188561       3.49079300       0.00000000       0.01079349       0.00273973       0.00777294
C        0.08797179       1.37383493       3.95409292       0.00000000       0.00100247       0.00927001      -0.00911221
C       -1.15898788       3.51578910       3.68142540       0.00000000       0.00691282      -0.00285223      -0.00184042
C       -2.40530481       5.65240728       3.56327793       0.00000000       0.00260721       0.00334343       0.00376182
C       -3.63000877       7.78281724       3.64975295       0.00000000       0.00642002       0.00477023       0.00165895
C       -4.85646899       9.90730894       3.80710373       0.00000000      -0.00867766       0.00214724      -0.00510600
C        2.56131486       1.29291512       4.25446203       0.00000000       0.00330614      -0.00832231      -0.00081629
P        1.44293982       3.74450899       4.42176082       0.00000000      -0.01120666      -0.00557267       0.00506763
C       -0.02847238       5.64991801       3.09255825       0.00000000       0.01471592      -0.00500507       0.00017658
C       -1.17101091       7.80658185       3.40970172       0.00000000      -0.00031132      -0.00290705       0.00659088
C       -2.37983537       9.90356758       3.84362241       0.00000000      -0.00260229       0.00840312      -0.00103866
C        5.03969408       1.33301119       4.24755128       0.00000000      -0.00034143       0.00405723      -0.00109976
P        3.71814845       3.56540138       5.25078570       0.00000000      -0.00947495       0.00346648      -0.00653081
C        1.29473148       7.87852167       3.09028135       0.00000000      -0.00675578      -0.00715000       0.00501317
C        0.07914047       9.93127980       3.70366990       0.00000000      -0.00173020       0.00226382       0.00328595
C        7.49237506       1.37861779       3.96337677       0.00000000      -0.00542142       0.00360936       0.00370583
C        6.28895070       3.50423095       4.21160121       0.00000000       0.00057177      -0.00491024      -0.00034835
C        5.08873797       5.59751077       3.86138363       0.00000000      -0.00501249       0.00048171       0.00338913
C        3.78661376       7.88015469       3.23978443       0.00000000       0.00660468       0.00937340      -0.00433099
C        2.55282278       9.97311891       3.56137508       0.00000000      -0.00074682       0.00116209       0.00056134
C        9.96673538       1.39317932       3.81159640       0.00000000      -0.00814188      -0.00569649      -0.00935928
C        8.72619629       3.51515865       3.86240915       0.00000000       0.00761195       0.00069369      -0.00228058
C        7.49557261       5.64557259       3.82312603       0.00000000      -0.00726108      -0.00309130       0.00513188
C        6.23880329       7.77779103       3.60630666       0.00000000       0.00801616       0.00054473       0.00798920
C        5.02460235       9.94062651       3.64574659       0.00000000       0.00915992       0.00336215       0.00313621
Mn       1.75289396       6.32291592       4.62724612       0.00000000      -0.01059706      -0.00352224       0.00811537
O        0.54298431       6.29727173       6.23309110       1.00000000      -0.01029530      -0.00871626      -0.00003224
O       -0.55829961       6.95029939       6.13923857       1.00000000       0.00288250      -0.00466180       0.00579552
