52
Lattice="12.336457 0.0 0.0 -6.168228499999997 10.683685154694365 0.0 0.0 0.0 15.0" Properties=species:S:1:pos:R:3:initial_magmoms:R:1:forces:R:3 energy=-445.5817383156582 free_energy=-445.5817383156582 stress="-0.003861172142788379 0.00113497919825727 -5.2902916903674625e-05 0.00113497919825727 -0.0030199525910459923 7.010563575804761e-05 -5.2902916903674625e-05 7.010563575804761e-05 0.0005289186038079975" pbc="T T T"
C       -0.10066014       0.04964960       4.02132865       0.00000000      -0.00568406       0.00489675      -0.02658992
C       -1.33487499       2.18593568       3.95124715       0.00000000       0.00252150       0.00167494       0.00852687
C       -2.56561216       4.31848211       3.93830943       0.00000000      -0.01072897       0.01221116      -0.00594229
C       -3.79298473       6.45815468       3.96765490       0.00000000       0.02110233      -0.01897689      -0.00798194
C       -5.04496583       8.58696949       3.96247473       0.00000000       0.00089313      -0.00695821       0.01671301
C        2.36430961       0.05189064       3.95730568       0.00000000       0.01650700       0.03174791      -0.04012072
C        1.12284198       2.17792649       3.70366308       0.00000000      -0.02449857      -0.03552198      -0.00658547
C       -0.17495312       4.28773793       3.30877150       0.00000000      -0.04852667      -0.03716231       0.00761784
C       -1.36823317       6.45226687       3.53672955       0.00000000      -0.01693884       0.00386795      -0.01086304
C       -2.55747947       8.58470882       3.86789551       0.00000000       0.01646435      -0.00850829      -0.00168470
C        4.83312000       0.03945782       3.95603069       0.00000000       0.00233660      -0.00569836      -0.00553009
C        3.61076539       2.15986741       3.75786145       0.00000000       0.02257776       0.00948279       0.03195425
S        2.40008256       4.03657323       2.23401733       0.00000000      -0.00938041       0.12007056       0.15426713
S        0.93618703       6.58608560       2.18398073       0.00000000       0.02853607      -0.00919263       0.08752065
C       -0.11217054       8.61745291       3.57237902       0.00000000       0.00653330       0.01290437       0.00420739
C        7.30049541       0.05130653       3.95976196       0.00000000      -0.01111375      -0.02955366       0.02224329
C        6.08179447       2.16696715       4.01689608       0.00000000      -0.01223738      -0.00218305       0.03751602
C        4.92632572       4.26882341       3.57566803       0.00000000      -0.01488607      -0.00164497      -0.00476187
S        3.67203829       6.45737175       2.62641244       0.00000000      -0.03925609      -0.02473966       0.08340862
C        2.35659015       8.65968232       3.45777419       0.00000000       0.00615694       0.01989298      -0.01473867
C        9.76722307       0.05240769       4.01092176       0.00000000       0.01890615      -0.02024133      -0.01456562
C        8.54287704       2.18581207       4.11720290       0.00000000       0.00135442      -0.02243920       0.03477016
C        7.32375077       4.31435228       4.04874215       0.00000000       0.01365394       0.01919624       0.01154573
C        6.09524204       6.45203773       3.80460318       0.00000000       0.00766954       0.00060501      -0.00792137
C        4.83026887       8.60365355       3.78148729       0.00000000       0.01085066       0.04440737      -0.04205626
C       -0.10169654       1.47564492       3.92729560       0.00000000      -0.02784411      -0.00340321      -0.00777517
C       -1.34865755       3.60179559       3.76293262       0.00000000      -0.00777230       0.00628704       0.01134441
C       -2.56822927       5.74159184       3.85689692       0.00000000       0.00784656      -0.00524130      -0.03188571
C       -3.80055209       7.87776526       3.93985641       0.00000000       0.01291337      -0.02454833       0.02893898
C       -5.03953091      10.01791740       3.99925260       0.00000000       0.00656330       0.01833477      -0.03902058
C        2.36534318       1.47291080       3.80556038       0.00000000       0.02404370       0.01739449      -0.01104443
C        1.05345982       3.52796328       3.25412994       0.00000000       0.01107384      -0.02658346      -0.00016289
C       -0.26456340       5.69799763       3.07607321       0.00000000      -0.00431953       0.00902227       0.03042500
C       -1.34189878       7.88171750       3.63910702       0.00000000       0.00486533       0.01258751      -0.03042259
C       -2.56761191      10.01485135       3.93879695       0.00000000       0.00824755       0.00328898      -0.00273159
C        4.84049971       1.46274103       3.95156746       0.00000000      -0.00184861       0.00144307       0.03919512
C        3.68971241       3.52999541       3.37824003       0.00000000      -0.05647055       0.02108043      -0.02030393
C        1.10132869       8.02864723       3.16447806       0.00000000      -0.00751236      -0.04058882      -0.02250359
C       -0.10169834      10.02336220       3.86285666       0.00000000      -0.00155292      -0.01978192       0.04725830
C        7.31171139       1.46624117       4.08124913       0.00000000      -0.01555007      -0.01094026       0.00997700
C        6.10717328       3.58519977       3.93670071       0.00000000      -0.01034582       0.01339683      -0.00678177
C        4.96158149       5.68499717       3.47456108       0.00000000      -0.04176196       0.01064959      -0.01542262
C        3.61875265       8.00623715       3.39606814       0.00000000       0.00415237      -0.03278322       0.01823740
C        2.36369396      10.03632716       3.85421550       0.00000000       0.00749351      -0.01755154       0.00701447
C        9.77152230       1.47606371       4.07340673       0.00000000       0.01874380      -0.03174345      -0.01285361
C        8.54932605       3.60776525       4.09782584       0.00000000       0.02172535      -0.01145853       0.00605435
C        7.31923114       5.73601256       3.97981154       0.00000000      -0.00071887       0.02377505       0.03356160
C        6.06406114       7.87544185       3.84293861       0.00000000       0.00560427       0.01774105      -0.01634875
C        4.83103815      10.02638808       3.98451570       0.00000000       0.01068073       0.00865321      -0.05530193
Mn       2.59834404       5.19279260       4.51134968       0.00000000       0.06573156      -0.00168347      -0.39791034
O        8.12362370       3.65431926       7.40475735       1.00000000      -0.00662520      -0.01323864      -0.27038500
O        1.55574886       5.94509554       5.50093621       1.00000000      -0.01017584       0.01775439       0.39789889
