51
Lattice="12.336457 0.0 0.0 -6.168228499999997 10.683685154694365 0.0 0.0 0.0 15.0" Properties=species:S:1:pos:R:3:initial_magmoms:R:1:forces:R:3 energy=-442.1616817650075 free_energy=-442.1616817650075 stress="-0.009499039554237027 -0.0031943432864154366 -7.51377152895719e-06 -0.0031943432864154366 -0.01014639381772719 1.932142898816311e-05 -7.51377152895719e-06 1.932142898816311e-05 1.682333760672116e-05" pbc="T T T"
C       -0.15893310      -0.01665410       3.87785797       0.00000000       0.00288746       0.00020697      -0.00161618
C       -1.41696626       2.10227318       3.84122559       0.00000000      -0.00360441      -0.00021742      -0.00461374
C       -2.62964857       4.26597731       3.85123331       0.00000000       0.00053322      -0.00176938       0.00262760
C       -3.82334580       6.40947016       3.88520143       0.00000000      -0.00443822       0.00209180      -0.00613877
C       -5.07027232       8.54577541       3.91405050       0.00000000       0.00143766      -0.00197842      -0.00136607
C        2.31111073      -0.01044168       3.82509999       0.00000000       0.00161021      -0.00370557       0.00250587
C        1.03524623       2.11058568       3.72194536       0.00000000      -0.00107749       0.00245125      -0.00180803
C       -0.22045403       4.18205606       3.67463008       0.00000000      -0.00226864      -0.00087490      -0.00056308
C       -1.36075118       6.39911225       3.75516353       0.00000000      -0.00155405      -0.00443225      -0.00340120
C       -2.59803960       8.53494434       3.81631069       0.00000000       0.00435151       0.00023681      -0.00127335
C        4.77113832       0.00771145       3.70791352       0.00000000      -0.00103510      -0.00084511       0.00289431
C        3.50722394       2.08506191       3.48678573       0.00000000       0.00183170      -0.00475857      -0.00148927
S        1.06503662       6.37473267       2.53312124       0.00000000      -0.00315194       0.00174358      -0.00269223
C       -0.15374605       8.55394264       3.58375819       0.00000000      -0.00110180       0.00297067      -0.00100478
C        7.23252364       0.01716102       3.70130108       0.00000000      -0.00345944      -0.00024808      -0.00081726
C        6.00256685       2.15021822       3.60131957       0.00000000       0.00124774      -0.00102793       0.00032369
C        4.90280169       4.33069668       3.43898601       0.00000000      -0.00153456       0.00480101       0.00058269
B        3.57680434       6.42850947       3.85761321       0.00000000       0.00321598      -0.00128608      -0.00165184
C        2.30906896       8.58568620       3.61145750       0.00000000       0.00477893       0.00215351       0.00024409
C        9.70430984      -0.00165524       3.82350714       0.00000000      -0.00151088       0.00490254       0.00092535
C        8.46402705       2.13746647       3.79203150       0.00000000      -0.00226691      -0.00109904       0.00337042
C        7.27488521       4.28255661       3.76521614       0.00000000       0.00087651      -0.00296584       0.00349821
C        6.07215255       6.42699024       3.85164181       0.00000000      -0.00273892       0.00072734       0.00037485
C        4.79290872       8.55556789       3.84500579       0.00000000       0.00187261       0.00207675       0.00354477
C       -0.18308149       1.39824810       3.82449150       0.00000000      -0.00194805       0.00159860      -0.00168323
C       -1.43473945       3.51353073       3.80675602       0.00000000       0.00029803      -0.00097056      -0.00170058
C       -2.59465913       5.69163718       3.85955922       0.00000000      -0.00434996      -0.00214379      -0.00395422
C       -3.83112890       7.83211135       3.89063813       0.00000000       0.00252527       0.00344610       0.00197678
C       -5.08476516       9.96323162       3.89276598       0.00000000       0.00273406      -0.00311156       0.00335173
C        2.28878050       1.41679680       3.70468544       0.00000000       0.00026816      -0.00255447       0.00208743
N        0.94542987       3.46782751       3.66910010       0.00000000       0.00317505       0.00303124       0.00014662
C       -0.15794826       5.61853943       3.58882170       0.00000000      -0.00046559      -0.00237070       0.00079952
C       -1.36641223       7.81697392       3.69844089       0.00000000       0.00130962      -0.00375088      -0.00656412
C       -2.61785837       9.96825795       3.79044446       0.00000000       0.00143658      -0.00125026      -0.00205987
C        4.76318325       1.43877685       3.59961714       0.00000000       0.00203673      -0.00337754       0.00610725
S        3.42982518       3.69264435       2.86827024       0.00000000      -0.00008451       0.00506405      -0.00154006
C        1.08730494       7.91774477       3.36509601       0.00000000       0.00124274       0.00845824      -0.00092177
C       -0.16114307       9.98355619       3.67727201       0.00000000      -0.00388879       0.00149721       0.00233387
C        7.22662148       1.43959903       3.70875132       0.00000000      -0.00032522      -0.00119878      -0.00296400
C        6.05525699       3.56177419       3.58989080       0.00000000      -0.00177289       0.00139764      -0.00093868
C        4.87241498       5.69855430       3.72142212       0.00000000      -0.00152986       0.00233142       0.00588011
C        3.54221115       7.89905389       3.74481951       0.00000000       0.00435467      -0.00187110      -0.00120212
C        2.29804825      10.00190163       3.72655124       0.00000000      -0.00118519       0.00271788       0.00525810
C        9.69050719       1.41311192       3.84002690       0.00000000      -0.00394401       0.00227944       0.00314914
C        8.47991522       3.55897888       3.81831563       0.00000000       0.00115436      -0.00338647       0.00619732
C        7.29116670       5.70139268       3.84703068       0.00000000      -0.00329513      -0.00149348      -0.00115354
C        6.03556301       7.84030793       3.89379651       0.00000000       0.00035104      -0.00055959      -0.00376175
C        4.77690410       9.97172911       3.86428066       0.00000000       0.00130730       0.00400841      -0.00192554
Mo       2.01279344       5.09001155       4.14217270       0.00000000       0.00128751       0.00314299       0.01631023
O        6.29082936       5.51903434       6.62181464       1.00000000      -0.00686195      -0.01200954      -0.00016944
O        5.98412715       4.33866996       6.48603285       1.00000000       0.01126889       0.00192188      -0.01551523
