51
Lattice="12.336457 0.0 0.0 -6.168228499999997 10.683685154694365 0.0 0.0 0.0 15.0" Properties=species:S:1:pos:R:3:initial_magmoms:R:1:forces:R:3 energy=-445.9090989974298 free_energy=-445.9090989974298 stress="-0.0026767084450381013 0.004171465943574366 -1.9259097207824735e-06 0.004171465943574366 0.001919326243281822 -1.4566262360438008e-06 -1.9259097207824735e-06 -1.4566262360438008e-06 -1.7134669129724392e-05" pbc="T T T"
C       -0.02319412       0.05619638       3.70296427       0.00000000       0.00047059       0.00160981      -0.00079864
C       -1.24409462       2.19044524       3.68482536       0.00000000       0.00029415       0.00147961      -0.00172202
C       -2.47514347       4.31970705       3.63520330       0.00000000       0.00018130      -0.00319460      -0.00021209
C       -3.73311646       6.45057202       3.62701505       0.00000000       0.00085936       0.00087301       0.00108055
C       -4.97796073       8.59070045       3.67349035       0.00000000      -0.00224445       0.00179889      -0.00524089
C        2.43842079       0.07269509       3.67882745       0.00000000       0.00277810       0.00252183       0.00152908
C        1.22724834       2.25555580       3.82433411       0.00000000      -0.00353528       0.00061344       0.00113800
C       -0.00710566       4.35924094       3.85183930       0.00000000       0.00059770       0.00082621       0.00089496
C       -1.27617055       6.47123151       3.70420587       0.00000000      -0.00080614       0.00052297      -0.00245567
C       -2.51013106       8.59638414       3.64821206       0.00000000      -0.00130647      -0.00323784       0.00044580
C        4.90918725       0.03237191       3.63219973       0.00000000      -0.00093243      -0.00152026      -0.00042999
C        3.71701840       2.14401831       3.65662077       0.00000000       0.00191729      -0.00000098       0.00078746
O        1.08040005       6.51547164       4.05888335       0.00000000       0.00024573      -0.00193843       0.00007725
C       -0.04609417       8.57908300       3.72305620       0.00000000       0.00091898       0.00385519      -0.00123041
C        7.38263111       0.01551839       3.65476440       0.00000000      -0.00240442      -0.00118074      -0.00485600
C        6.17715637       2.14523415       3.59923926       0.00000000       0.00143222      -0.00150561       0.00323582
C        4.99393067       4.24561573       3.78214661       0.00000000       0.00101386      -0.00009936       0.00080712
B        3.68084320       6.39666384       4.11099693       0.00000000      -0.00242333      -0.00296087       0.00033378
C        2.40154945       8.55538766       3.82427612       0.00000000      -0.00084099      -0.00098872      -0.00035883
C        9.84263236       0.02742866       3.69137024       0.00000000      -0.00174493      -0.00055741      -0.00051382
C        8.63102797       2.16602472       3.61062463       0.00000000      -0.00197178      -0.00255728       0.00238738
C        7.40813035       4.30332636       3.61889682       0.00000000       0.00005215       0.00321722      -0.00260263
C        6.14123518       6.42611059       3.70644486       0.00000000       0.00191819       0.00002424      -0.00229150
C        4.89031323       8.57532499       3.76583322       0.00000000       0.00233790       0.00074172      -0.00241661
C       -0.00776915       1.49079903       3.72389594       0.00000000      -0.00228374       0.00025467       0.00009387
C       -1.24677837       3.61999942       3.69650878       0.00000000       0.00225803       0.00043387       0.00104006
C       -2.49729295       5.74140949       3.64304955       0.00000000      -0.00028480      -0.00186689       0.00080043
C       -3.74617460       7.87988067       3.64359375       0.00000000      -0.00304701      -0.00032892      -0.00010039
C       -4.96386973      10.02588084       3.68866947       0.00000000       0.00150577       0.00289262      -0.00204521
C        2.46060042       1.51528148       3.72819842       0.00000000       0.00102452       0.00347321       0.00377954
C        1.19492703       3.64541666       4.02006818       0.00000000      -0.00154573      -0.00187205      -0.00351191
C       -0.07580176       5.78110225       3.85353496       0.00000000      -0.00206063      -0.00073280      -0.00059051
C       -1.28650847       7.88875400       3.68538108       0.00000000       0.00167075       0.00145580       0.00077711
C       -2.50606889      10.03033499       3.64951230       0.00000000       0.00025101      -0.00307778       0.00036238
C        4.93068733       1.45276950       3.60495736       0.00000000       0.00182904      -0.00154261       0.00351080
O        3.79171232       3.55018383       3.58120548       0.00000000      -0.00048876       0.00138860      -0.00055646
C        1.15148295       7.87517225       3.85872450       0.00000000      -0.00093035      -0.00035270       0.00178879
C       -0.02324606      10.00062312       3.66132614       0.00000000      -0.00160386       0.00291854       0.00140274
C        7.39671727       1.44416284       3.60611016       0.00000000      -0.00098375      -0.00347891       0.00196127
C        6.19459206       3.55850733       3.64399384       0.00000000       0.00146124      -0.00018800      -0.00069242
C        4.93601834       5.65472118       3.83583917       0.00000000       0.00282699      -0.00072649       0.00279971
C        3.64510886       7.86836814       3.87479761       0.00000000       0.00237401       0.00077012       0.00350143
C        2.43227283       9.98442143       3.71502142       0.00000000      -0.00308582      -0.00099839      -0.00231144
C        9.85676552       1.45642910       3.65003769       0.00000000      -0.00019928       0.00020401       0.00124097
C        8.63426912       3.59343684       3.60312004       0.00000000      -0.00203615      -0.00143161      -0.00131518
C        7.37980876       5.72632096       3.63582137       0.00000000       0.00167878       0.00341646       0.00130894
C        6.12498987       7.85888368       3.71822529       0.00000000       0.00070713      -0.00055782      -0.00199814
C        4.90939113      10.01089127       3.71470647       0.00000000       0.00053189       0.00146911      -0.00107522
Mo       2.86462505       4.68003724       5.02057538       0.00000000       0.00356075      -0.00217562      -0.01908281
O        2.71794066       3.27187934       6.34373499       1.00000000       0.00035433      -0.00330973       0.00695920
O        3.94756873       4.14138541       6.55046352       1.00000000      -0.00029163       0.00562126       0.01436434
