51
Lattice="12.336457 0.0 0.0 -6.168228499999997 10.683685154694365 0.0 0.0 0.0 15.0" Properties=species:S:1:pos:R:3:initial_magmoms:R:1:forces:R:3 energy=-445.99559489682235 free_energy=-445.99559489682235 stress="-0.005070056259315368 -0.001925500775187988 -6.786130678157873e-06 -0.001925500775187988 -0.005970317200442875 -3.97035620826292e-06 -6.786130678157873e-06 -3.97035620826292e-06 -4.010382498633693e-06" pbc="T T T"
C       -0.26212049      -0.16630481       3.48551564       0.00000000       0.00384782      -0.00189295      -0.00180633
C       -1.50986749       1.96924359       3.64127001       0.00000000      -0.00092161       0.00529048      -0.00382127
C       -2.75172475       4.11620284       3.47074439       0.00000000      -0.00035672      -0.00325798       0.00584987
C       -3.95567229       6.25623640       3.30135784       0.00000000       0.00140151       0.00409439       0.00413061
C       -5.18171789       8.39542096       3.29272580       0.00000000      -0.00608872      -0.00588681       0.00092853
C        2.21483043      -0.18461687       3.50971768       0.00000000       0.00142655       0.00371990      -0.01174607
C        0.96913450       1.86229916       3.96235752       0.00000000      -0.00541505      -0.01032162       0.00021422
C       -0.37483018       4.14774002       3.92959449       0.00000000       0.00459853      -0.00203851      -0.00669990
C       -1.51454599       6.26681406       3.56364033       0.00000000       0.00579997      -0.00080311       0.00065241
C       -2.71290723       8.38841022       3.39639016       0.00000000       0.00429122       0.00245735      -0.01831107
C        4.68248829      -0.15875341       3.54515919       0.00000000      -0.00469678       0.00253904      -0.00902002
C        3.43359965       1.94289368       3.82991104       0.00000000       0.00434763      -0.00323797       0.01673792
B        0.96264273       6.26066394       4.21841246       0.00000000       0.00739976       0.00055336      -0.00219189
C       -0.25072595       8.39112246       3.63658884       0.00000000       0.00266823       0.01049267      -0.00635619
C        7.14404439      -0.15192604       3.55052796       0.00000000       0.00265309      -0.00747906      -0.00536359
C        5.90015611       1.99688445       3.60317519       0.00000000       0.00310373      -0.00793687      -0.00424711
C        4.69070299       4.19171392       3.81583084       0.00000000      -0.00441803       0.00364618      -0.00358078
N        3.56837138       6.32457316       3.86059343       0.00000000       0.00020840      -0.00264451       0.01051309
C        2.23019456       8.38714688       3.68945159       0.00000000       0.00163225      -0.00349398       0.00040723
C        9.60645877      -0.15865382       3.49609591       0.00000000      -0.00003676       0.00948828      -0.00198264
C        8.36435368       1.98316495       3.48827906       0.00000000      -0.00403240      -0.00428722      -0.00313249
C        7.12904417       4.12791925       3.42804527       0.00000000      -0.00105231      -0.00020370       0.01274101
C        5.92669074       6.28243334       3.35197867       0.00000000      -0.00290615       0.00169231      -0.00183146
C        4.68926354       8.39310148       3.41118871       0.00000000      -0.01057245       0.00252932      -0.00023373
C       -0.27732839       1.24172481       3.69873187       0.00000000      -0.00558491      -0.00210303       0.00267058
C       -1.53926731       3.39003514       3.66417692       0.00000000       0.00146448       0.00128618       0.00537288
C       -2.73830303       5.54153232       3.41284349       0.00000000       0.00017909      -0.00129584       0.01276476
C       -3.94738259       7.68092966       3.30083604       0.00000000       0.00072496       0.00323557      -0.00878020
C       -5.19109992       9.80971242       3.41087539       0.00000000       0.00418514      -0.00429426      -0.00651006
C        2.21471733       1.20864212       3.76216694       0.00000000       0.00024751       0.00249792      -0.00714733
P        1.09438485       3.47278988       4.56429288       0.00000000       0.00270737      -0.00906498       0.00417517
C       -0.33531087       5.55560270       3.86383299       0.00000000       0.00688981      -0.00273679      -0.00019879
C       -1.48538872       7.68344531       3.52639513       0.00000000       0.00602732       0.00360694      -0.00214395
C       -2.71401530       9.80582693       3.46118339       0.00000000      -0.00188176       0.00012283       0.01387290
C        4.67476508       1.27012233       3.65478669       0.00000000       0.00272121      -0.00398451       0.00206731
B        3.41459992       3.43028589       4.14201675       0.00000000       0.00357867       0.00039363      -0.00232046
C        0.99424776       7.70978060       3.83099638       0.00000000       0.00003416       0.00467839       0.00879225
C       -0.25523721       9.81803491       3.56118636       0.00000000      -0.00387159       0.00695672      -0.00688516
C        7.13151146       1.27746717       3.52649808       0.00000000       0.00253704      -0.01215503       0.00299788
C        5.89381890       3.43135717       3.60325469       0.00000000      -0.00264015      -0.00315905       0.00805393
C        4.72838176       5.61296586       3.64943285       0.00000000      -0.00365364       0.00213979      -0.01062121
C        3.48124898       7.67580737       3.63908754       0.00000000      -0.00432635      -0.00505567       0.00172718
C        2.21367397       9.81567887       3.55292747       0.00000000       0.00516323      -0.00171160       0.01043397
C        9.60008285       1.26613022       3.52165544       0.00000000      -0.00104186       0.00879355      -0.01233507
C        8.35594617       3.40806480       3.43572633       0.00000000      -0.00197759      -0.00515325      -0.00328474
C        7.14620070       5.54799230       3.32519781       0.00000000       0.00068161       0.00367041       0.01490807
C        5.92081977       7.69491390       3.30984948       0.00000000      -0.01199850       0.00033428      -0.00139511
C        4.67408689       9.81294778       3.43770372       0.00000000      -0.00155020       0.00466383       0.00588221
Mo       2.53102540       5.11129299       5.09843885       0.00000000      -0.00138117       0.01548451      -0.00646152
O        8.53373928       8.37146559       9.65253238       1.00000000       0.00019601       0.00019016      -0.00016594
O        9.27452831       9.06936108       8.95007966       1.00000000      -0.00031163      -0.00035969       0.00268011
