52
Lattice="12.336457 0.0 0.0 -6.168228499999997 10.683685154694365 0.0 0.0 0.0 15.0" Properties=species:S:1:pos:R:3:forces:R:3 energy=-449.8111606409159 free_energy=-449.8111606409159 stress="-0.0009170474202583092 0.004559207781698169 -4.2555386449838684e-05 0.004559207781698169 0.0024400523118191016 -1.4750570863700547e-05 -4.2555386449838684e-05 -1.4750570863700547e-05 1.764950138414024e-05" pbc="T T T"
C       -0.02573020       0.15284784       3.77380264      -0.00150493      -0.00349707      -0.00604919
C       -1.24370066       2.28978861       3.78001694       0.00385079      -0.01191936       0.00876312
C       -2.47720942       4.41577494       3.77789187      -0.00769645      -0.00579109       0.00453901
C       -3.74220559       6.54318918       3.77777701       0.00234899       0.00283952       0.00131896
C       -4.98537275       8.68388837       3.77929781       0.00528982       0.01074707       0.00054769
C        2.43548032       0.16612585       3.71776005      -0.00531487      -0.00283801      -0.00344245
C        1.22986932       2.34780274       3.86675324       0.00700617       0.00052978      -0.00069539
C        0.00580982       4.45350086       3.93106530      -0.00413050       0.00968795       0.00038028
C       -1.27733193       6.56501150       3.80597350      -0.00029750       0.00117907      -0.00094688
C       -2.51584371       8.69129480       3.73605684       0.00268703      -0.00170265       0.00072534
C        4.90277039       0.13186728       3.67285655      -0.00194126       0.00012036       0.00241419
C        3.71171847       2.24489603       3.59367201      -0.00401770       0.00820388       0.00087040
O        1.10765120       6.60551847       3.81847215       0.00277678      -0.00649727       0.00526287
C       -0.05159927       8.68076779       3.76956277      -0.00384168      -0.00274169      -0.00260054
C        7.37734038       0.11669194       3.72373856       0.00564265       0.00364261      -0.01171253
C        6.16782905       2.24482293       3.71345861      -0.00520809      -0.00448985       0.00728098
C        4.96396618       4.33071547       3.96466281       0.00939262      -0.00341797      -0.00191608
B        3.67236043       6.50576896       4.24485994      -0.00531088       0.00597421      -0.00751288
C        2.39988257       8.65605513       3.85392810      -0.01626562      -0.00775917       0.00513920
C        9.84060763       0.12778851       3.76838401      -0.00262867      -0.00119926       0.00221364
C        8.62685087       2.26446420       3.74386031      -0.01037210       0.00310125      -0.00633131
C        7.39548739       4.39536848       3.81233007       0.00159131      -0.00429139      -0.00161333
C        6.12342738       6.51667877       3.85990647       0.00892953      -0.00068810       0.00036862
C        4.88416949       8.67166061       3.85905494       0.00764328       0.00521463       0.00745109
C       -0.00784771       1.58863887       3.78953829       0.00893744      -0.00830581       0.00540577
C       -1.24166738       3.72040282       3.80637417      -0.00418884      -0.00625135       0.00726166
C       -2.50246122       5.83641417       3.78561353      -0.00026016      -0.00329603       0.00195720
C       -3.75287407       7.97285838       3.76183141       0.00254725       0.00723926      -0.00224962
C       -4.96705803      10.11958291       3.76019838      -0.00400770       0.00482408      -0.00801903
C        2.46025852       1.60636096       3.71878137       0.00048879      -0.00292590      -0.00279132
C        1.20794062       3.73600239       4.09711837       0.00082247       0.00950541       0.00146515
C       -0.06359804       5.87885746       3.88576718      -0.00130578       0.00753453       0.00004255
C       -1.29033871       7.98382426       3.76365012       0.00029296      -0.00127013       0.00747129
C       -2.50976774      10.12446441       3.70153569      -0.00343420      -0.00318654      -0.00369287
C        4.92387645       1.55128755       3.62295535      -0.00838826       0.00187187       0.00965124
O        3.78915132       3.64974443       3.55549964      -0.00016431       0.00650128      -0.00552471
C        1.15197035       7.97335117       3.83758979      -0.01323925      -0.01117048      -0.00489518
C       -0.03003222      10.10211328       3.71842059       0.00499273       0.00056761      -0.00330922
C        7.39057666       1.54521194       3.71412474      -0.00431683       0.00331722       0.00636092
C        6.18053964       3.65072656       3.85113026       0.00662635      -0.00570867      -0.01443238
C        4.91264650       5.74889987       3.98651102       0.00295198      -0.00125750      -0.00577948
C        3.63837401       7.96607814       3.95994857      -0.00302610       0.01209176       0.00451881
C        2.42840676      10.08604797       3.77236451      -0.00186353      -0.00628959       0.00226146
C        9.85561658       1.55674481       3.75342646      -0.00897064      -0.00001651      -0.00452957
C        8.62837828       3.69077230       3.76657403      -0.00774207      -0.00254122      -0.00071112
C        7.36752397       5.81946851       3.80968872       0.00657046      -0.00523526       0.00444965
C        6.11500685       7.95135401       3.83846591       0.01138108       0.00340468      -0.00219772
C        4.90635213      10.10877467       3.79187644       0.00111066       0.00188509       0.00696851
Mo       2.90341387       4.71871686       5.09887608       0.00022843      -0.00286929       0.00955333
O        3.22686109       3.49462352       6.32381896       0.01115613       0.00181531      -0.00589040
O        3.84696549       1.87912893       6.59968330       0.00179758      -0.00380729      -0.00006210
H        3.55924828       1.96202023       7.53826713       0.01237463       0.00916602      -0.00773763
