51
Lattice="12.336457 0.0 0.0 -6.168228499999997 10.683685154694365 0.0 0.0 0.0 15.0" Properties=species:S:1:pos:R:3:initial_magmoms:R:1:forces:R:3 energy=-439.1620288864465 free_energy=-439.1620288864465 stress="-0.0018286819521750063 -0.004093842780729309 -8.516793895630697e-06 -0.004093842780729309 -0.002726022851818174 1.5748970539560525e-05 -8.516793895630697e-06 1.5748970539560525e-05 1.3893495002648865e-05" pbc="T T T"
C       -0.03500219      -0.09256485       3.74967767       0.00000000      -0.00592459      -0.00199168       0.01234232
C       -1.29888650       2.02625743       4.01618035       0.00000000       0.00293557      -0.00391728       0.00764289
C       -2.53668510       4.17435978       3.95316569       0.00000000       0.00215169       0.00259056      -0.00092106
C       -3.72078540       6.31966312       3.79364476       0.00000000      -0.00927607       0.01164061      -0.00387032
C       -4.94764114       8.46208319       3.67680731       0.00000000      -0.00359757      -0.00023812       0.00176643
C        2.44321575      -0.11743913       3.70420052       0.00000000      -0.00173229       0.00136231       0.00782893
C        1.20479619       1.95894746       4.15229211       0.00000000      -0.00739898       0.00663349      -0.00189011
C       -0.15326122       4.18795942       4.44598771       0.00000000       0.00023516      -0.00984187       0.01424417
C       -1.26755884       6.31199257       3.97149079       0.00000000       0.00377685      -0.00899735      -0.00238314
C       -2.47463531       8.44121908       3.72409882       0.00000000      -0.00141708       0.00099141      -0.00629540
C        4.90168363      -0.09576081       3.57030769       0.00000000       0.01651430      -0.00447034       0.00432533
C        3.61058659       1.99778866       3.42314212       0.00000000       0.00776350      -0.00005044       0.00059996
B        1.26265131       6.29044828       4.17106176       0.00000000      -0.01160826       0.00513342      -0.00412410
C       -0.00430666       8.43851936       3.73152506       0.00000000      -0.00354627      -0.00020549      -0.00722285
C        7.36345531      -0.08714998       3.56750148       0.00000000      -0.00047553       0.00277172       0.00273056
C        6.10395644       2.07233881       3.49623113       0.00000000       0.00331632      -0.00187230       0.00006255
C        4.89825137       4.28935398       3.46536598       0.00000000       0.00561558       0.00438687       0.00664315
O        3.76124258       6.39017602       3.30461954       0.00000000      -0.00739289      -0.01126095      -0.00667648
C        2.46248416       8.44368802       3.54750362       0.00000000       0.00921849       0.00245260       0.00659700
C        9.82997610      -0.08566452       3.63311032       0.00000000      -0.00815484       0.00550360      -0.00543165
C        8.57761358       2.04895749       3.71751687       0.00000000      -0.00330780       0.00047822      -0.00841306
C        7.34298355       4.19371432       3.70234390       0.00000000      -0.00591735       0.00072857       0.01232834
C        6.17572474       6.37298997       3.72317077       0.00000000       0.00026141      -0.00448756      -0.01032810
C        4.92236783       8.47507096       3.49844349       0.00000000       0.01268270      -0.00166118       0.00255507
C       -0.04855907       1.31532710       3.98640109       0.00000000      -0.00132094      -0.00237145       0.00196951
C       -1.32731693       3.44432696       4.15857889       0.00000000       0.00872440      -0.00402939      -0.00583183
C       -2.50513455       5.60033847       3.90669933       0.00000000      -0.00686743       0.00694088       0.00546370
C       -3.71097817       7.74091188       3.73488975       0.00000000      -0.00729673       0.00926436       0.01030487
C       -4.96175360       9.87845828       3.70672697       0.00000000      -0.00555427      -0.00207276       0.00451055
C        2.42264693       1.30416188       3.77204834       0.00000000      -0.00298705       0.00856861      -0.00120335
P        1.26394129       3.40357200       5.17820493       0.00000000      -0.01161781       0.00430812      -0.00733288
C       -0.07449671       5.57984184       4.22240037       0.00000000       0.00440198      -0.01271608      -0.00253799
C       -1.24019055       7.72651376       3.80932336       0.00000000      -0.00262939      -0.00673999      -0.00742208
C       -2.48743822       9.86388512       3.64610161       0.00000000       0.00836680       0.00247738       0.00032597
C        4.87102626       1.34495307       3.46408917       0.00000000       0.01068402      -0.00599723      -0.00375945
S        3.41608085       3.63955425       2.77106554       0.00000000      -0.00523700       0.01276865      -0.00047712
C        1.24496926       7.74198375       3.78592976       0.00000000      -0.00208193       0.00689871      -0.00858441
C       -0.02966517       9.87473209       3.60107428       0.00000000       0.00939760      -0.00240283       0.00180462
C        7.34232899       1.34836514       3.57861681       0.00000000      -0.00199058      -0.00045014      -0.00775717
C        6.10942024       3.49503669       3.54579140       0.00000000      -0.00173803      -0.00013255       0.00817508
C        4.95337136       5.69796449       3.65021870       0.00000000      -0.00202572       0.00031136       0.00163394
C        3.70805859       7.78907519       3.41008307       0.00000000       0.01136375      -0.00450847       0.00292138
C        2.43851887       9.88347924       3.55339486       0.00000000      -0.00514477       0.00408711       0.00574822
C        9.81751040       1.33422791       3.78650170       0.00000000      -0.00093683       0.00437024      -0.01039404
C        8.57415175       3.47090621       3.78876220       0.00000000      -0.00306465       0.00108893       0.00425252
C        7.37788652       5.61922487       3.75183249       0.00000000      -0.00303342       0.00197056      -0.00689033
C        6.16202650       7.77612953       3.62342677       0.00000000       0.00619333      -0.00713184       0.00226840
C        4.90329293       9.89435280       3.61460007       0.00000000      -0.00593614       0.00288074       0.00527168
Mo       3.00737988       4.97311971       4.61980731       0.00000000      -0.00392382      -0.00714688      -0.01192369
O        3.01689122       6.89618066       6.29327715       1.00000000       0.01281409      -0.00271921      -0.00597425
O        4.23356519       7.21826418       6.14978151       1.00000000       0.00671853      -0.00319563       0.00332774
