52
Lattice="12.336457 0.0 0.0 -6.168228499999997 10.683685154694365 0.0 0.0 0.0 15.0" Properties=species:S:1:pos:R:3:forces:R:3 energy=-441.3443340515735 free_energy=-441.3443340515735 stress="-0.00016048067436167103 -0.0004508550455347432 -2.0648873266626498e-05 -0.0004508550455347432 -0.004628919604059143 9.561970128218735e-06 -2.0648873266626498e-05 9.561970128218735e-06 2.369726411610681e-05" pbc="T T T"
C       -0.04860398      -0.06581123       4.06494281      -0.00006516       0.00181628       0.00029016
C       -1.28188395       2.09554281       4.19526002       0.00046885       0.00028304       0.00187862
C       -2.51719067       4.23253417       3.91241858      -0.00834954       0.00040999      -0.00260423
C       -3.74626047       6.36127508       3.70173439       0.00197917       0.00224435      -0.00165303
C       -4.98796926       8.48148100       3.82527404       0.00060623      -0.00131862      -0.00626541
C        2.42460110      -0.07649580       3.89683950      -0.00175341      -0.00461982       0.00144849
C        1.21174537       1.99875643       4.33086959       0.00225690      -0.00492783       0.00231115
C       -0.10315691       4.28621702       4.24709142      -0.00490675       0.00148740       0.00682582
C       -1.25911376       6.35904071       3.68290073      -0.00154412       0.00487802       0.00501475
C       -2.49714975       8.48667126       3.69314129       0.00206892      -0.00022551       0.01155249
C        4.89192037      -0.03676393       3.71483080       0.00285907       0.00099664      -0.00483091
C        3.64194415       2.11098920       3.74363311      -0.00653835       0.00659615      -0.00720129
S        1.49009955       6.19887257       3.11341920      -0.01252127       0.00622879       0.00517042
C       -0.02943291       8.50509544       3.59589061      -0.00078585       0.00083926      -0.00855107
C        7.35510408      -0.02036441       3.76103266       0.00556530      -0.00618422       0.00202460
C        6.12607549       2.09100280       3.54089359       0.00050678       0.00005577       0.00658209
C        5.00431938       4.23092980       2.95416859       0.00444045      -0.00187786       0.00035890
B        3.51037628       6.30807395       3.81556669      -0.00217165       0.00178458      -0.00920701
C        2.43363718       8.56073951       3.75188128      -0.00447316       0.00235721       0.00839520
C        9.83062031      -0.02321924       3.98162148       0.00393176      -0.00050923       0.00728597
C        8.59498437       2.10340936       3.85061677      -0.00010472      -0.00822699      -0.00144310
C        7.37309089       4.22873142       3.57469941       0.00129286       0.00031904      -0.00791084
C        6.10899022       6.35968997       3.59269051       0.00418331      -0.00058938      -0.00269106
C        4.87452142       8.49079970       3.89016434      -0.00064432       0.00258418       0.00555179
C       -0.05367937       1.35538448       4.23050984       0.00111845      -0.00005101      -0.00202062
C       -1.30295257       3.52259901       4.15906291      -0.00622312       0.00134944      -0.00056938
C       -2.50822262       5.65169691       3.76517826      -0.00121989       0.00445037       0.00657233
C       -3.74422640       7.78036056       3.73033431       0.00232460      -0.00014576       0.00172010
C       -4.98459621       9.90038995       3.94360234      -0.00314767      -0.00251779      -0.00158263
C        2.41466433       1.34050504       4.00982911       0.00106142      -0.00470919       0.00817188
P        1.36031105       3.62868768       4.99666250       0.00327647      -0.00384605      -0.00109499
C       -0.06055430       5.59985094       3.76122501      -0.00572131      -0.00008384      -0.00175233
C       -1.26117301       7.77888013       3.61257551       0.00084758       0.00258297       0.00139354
C       -2.50546794       9.91221562       3.75550385       0.00099767      -0.00027390      -0.00702224
C        4.90238171       1.39374046       3.66834802      -0.00148818       0.00544178       0.00151162
S        3.52305129       3.39519230       2.41554426       0.00047251       0.00358586       0.00537644
C        1.22658927       7.87111552       3.52646597      -0.00309956       0.00202036       0.00189970
C       -0.03970316       9.94064880       3.68384232       0.00425874      -0.00220182      -0.00177550
C        7.36319702       1.39591415       3.72100168      -0.00044981      -0.00723941       0.01226932
C        6.17000219       3.49561314       3.33440460       0.00071253      -0.00014734       0.00418987
C        4.86805580       5.62762261       3.37173307       0.00460799      -0.00056981      -0.00485316
C        3.62898888       7.82736174       3.82780462      -0.00258180       0.00453307      -0.00362822
C        2.42446976       9.97769566       3.85230660       0.00596305       0.00015537      -0.00172640
C        9.82777101       1.39759870       4.02851551       0.00455424      -0.00220209      -0.00678233
C        8.59471876       3.52188293       3.79092076      -0.00416998      -0.00623460      -0.00971485
C        7.35046497       5.65244324       3.61841993       0.00390985       0.00055968       0.00082308
C        6.11068430       7.76805944       3.79329262       0.00008050       0.00014441      -0.00029489
C        4.88621404       9.92638552       3.99805570       0.00148287       0.00383122      -0.00461527
Mo       3.61205650       4.25263737       4.62183133      -0.00131435       0.00107354      -0.00275849
O        4.63055712       5.71609009       6.70086891      -0.00744239      -0.01096224       0.01012747
O        3.79641394       5.56905603       7.78560908       0.00516637       0.00245014      -0.01381535
H        3.80240313       4.60014602       7.93906806       0.00972192       0.00460544      -0.00238121
