52
Lattice="12.336457 0.0 0.0 -6.168228499999997 10.683685154694365 0.0 0.0 0.0 15.0" Properties=species:S:1:pos:R:3:initial_magmoms:R:1:forces:R:3 energy=-453.04004261275486 free_energy=-453.04004261275486 stress="-0.0033628541154411442 -0.0003278517175781855 -1.6332910383649043e-05 -0.0003278517175781855 -0.003881072903060736 -1.6885982278309776e-05 -1.6332910383649043e-05 -1.6885982278309776e-05 1.800927693353703e-05" pbc="T T T"
C        0.05330145      -0.20403272       3.83687444       0.00000000      -0.00813411       0.00679893       0.00139469
C       -1.19231292       1.92607600       3.94362160       0.00000000       0.00196624      -0.00276251      -0.01289073
C       -2.43075233       4.07085321       3.90970218       0.00000000       0.00756592      -0.00321442       0.01387540
C       -3.66570044       6.20374061       3.84446204       0.00000000       0.01064765      -0.00117437      -0.00472884
C       -4.89215478       8.33836224       3.76957912       0.00000000       0.00622774       0.00468675      -0.00581160
C        2.52007196      -0.21254449       3.89193127       0.00000000       0.00436996      -0.00372218       0.00949591
C        1.28126547       1.92470724       3.95104920       0.00000000       0.00154485       0.00197869      -0.00199757
C        0.01626492       4.04702304       3.76740580       0.00000000      -0.00871758      -0.00733130      -0.00777101
C       -1.20407507       6.19918073       3.59152077       0.00000000      -0.00232759       0.00418414      -0.00278802
C       -2.41347305       8.33678664       3.73497170       0.00000000       0.00102351      -0.00425984      -0.00246817
C        4.99343664      -0.21368633       3.83652008       0.00000000       0.00579382       0.00064588       0.00409513
C        3.76205692       1.91010465       4.02139561       0.00000000      -0.00404897       0.00586273       0.00655593
B        2.52325947       4.12981673       3.92530604       0.00000000      -0.00130588      -0.00321646       0.00302183
P        1.25721538       6.07629898       2.33051938       0.00000000       0.00644034      -0.00131197      -0.00571186
C        0.04563022       8.35795907       3.44898092       0.00000000      -0.00632658      -0.00179936      -0.00202725
C        7.44691675      -0.18304640       3.68633207       0.00000000      -0.00159025      -0.01192982       0.01307955
C        6.22957005       1.92056947       4.00149025       0.00000000      -0.00175232      -0.00019381      -0.00615410
C        5.01610477       4.05587724       4.10283875       0.00000000       0.00557599       0.00460374      -0.00051887
S        3.77126028       6.48049888       1.67246955       0.00000000      -0.00192612      -0.00292911       0.00835462
C        2.52198061       8.47693444       3.09439068       0.00000000      -0.00854972      -0.00077013       0.00496896
C        9.92297434      -0.18078475       3.69501095       0.00000000      -0.00367114       0.00434727       0.00137938
C        8.68226921       1.93224860       3.93595924       0.00000000      -0.00822152      -0.00478164       0.00521758
C        7.45654473       4.07220233       4.01841937       0.00000000       0.00913817       0.00796986       0.00542190
C        6.18308223       6.20493960       3.87305915       0.00000000       0.00536551       0.00400415      -0.00035284
C        5.01914630       8.38217279       3.39625955       0.00000000       0.00139674      -0.00206105      -0.00330899
C        0.04521604       1.21183682       3.93184029       0.00000000       0.00166560       0.00561607      -0.00509578
C       -1.20761589       3.34792892       3.91321992       0.00000000      -0.00142620      -0.01083251      -0.00298220
C       -2.43185021       5.49369541       3.80692113       0.00000000       0.00781303      -0.00150035       0.00122647
C       -3.65656868       7.62907786       3.78919745       0.00000000       0.00277402      -0.00268187      -0.00103891
C       -4.88454266       9.76172546       3.82845572       0.00000000      -0.00327347       0.00738103      -0.00078694
C        2.51986904       1.20859132       3.96549484       0.00000000       0.00064245       0.00065827       0.00526856
C        1.24330211       3.34098365       3.88192249       0.00000000      -0.00524731       0.00137776       0.01176835
C       -0.01556185       5.43710208       3.43107731       0.00000000      -0.00920186      -0.00350726       0.00634117
C       -1.17810158       7.63102499       3.57044795       0.00000000      -0.00491409       0.00147949      -0.00618169
C       -2.41201166       9.75957269       3.82392732       0.00000000       0.00783284      -0.00492635      -0.00013569
C        4.99746119       1.20019844       3.97446312       0.00000000      -0.00300585       0.00418069      -0.00338343
C        3.79515436       3.32740773       4.06216770       0.00000000       0.00316233       0.00610262      -0.01163695
C        1.30432569       7.71304872       3.11623435       0.00000000      -0.00995411       0.00078788       0.00268581
C        0.05354516       9.77079137       3.66399916       0.00000000       0.00091075      -0.00569505      -0.00430797
C        7.45390254       1.21912423       3.89033200       0.00000000      -0.00857044      -0.00911008       0.00262223
C        6.24406116       3.34064031       4.07700423       0.00000000       0.00868885       0.00533156       0.00524728
C        4.99140386       5.47718748       4.04777478       0.00000000      -0.00447208       0.00805185      -0.00708474
C        3.80191744       7.83146976       2.78762782       0.00000000      -0.00438549      -0.00413794      -0.00184623
C        2.51739724       9.83091532       3.50237292       0.00000000      -0.00145575      -0.00214825       0.00749177
C        9.91543062       1.22128809       3.89000366       0.00000000      -0.00248477       0.00453867      -0.01587005
C        8.68402556       3.35515110       3.97846576       0.00000000       0.00514479      -0.00245075      -0.00577574
C        7.44076158       5.49578922       3.93724584       0.00000000       0.00884960       0.00664422       0.00111433
C        6.19931200       7.63227957       3.66278008       0.00000000       0.00681864       0.00266179       0.00656351
C        4.99263553       9.78198204       3.65717879       0.00000000      -0.00700753      -0.00073988       0.00634468
Mo       2.96438579       6.20494480       3.93882308       0.00000000      -0.00166560      -0.00385613      -0.00498885
O        2.01758948      10.83894497       6.58445353       1.00000000      -0.00675924       0.00192266      -0.00057314
O        0.79313334      10.74043475       6.62484477       1.00000000       0.00903621       0.00122768      -0.00531692
