53
Lattice="12.336457 0.0 0.0 -6.168228499999997 10.683685154694365 0.0 0.0 0.0 15.0" Properties=species:S:1:pos:R:3:forces:R:3 energy=-458.9520697535454 free_energy=-458.9520697535454 stress="-0.005805682480679812 0.0027300248929503904 -2.1445387423098372e-05 0.0027300248929503904 -0.00350463525324745 1.1148635127427743e-05 -2.1445387423098372e-05 1.1148635127427743e-05 1.5400579545219225e-06" pbc="T T T"
C       -0.00355964       0.02756657       3.64077925       0.00582176      -0.00182674       0.00146784
C       -1.23229675       2.16177418       3.65982473      -0.00745108      -0.00322715       0.00037129
C       -2.47261450       4.30469755       3.71214931       0.00195904      -0.00302149      -0.00976737
C       -3.70782782       6.44057569       3.69223595      -0.00326117      -0.00268288       0.00580322
C       -4.94891044       8.57195872       3.62043021       0.00022503      -0.00185636      -0.00705863
C        2.46174686       0.02926413       3.76300001      -0.00712736       0.00162384      -0.00038906
C        1.24415024       2.18493093       3.64770173       0.00165613      -0.00066492       0.00130441
C       -0.03701555       4.31919846       3.71421231      -0.00066353       0.00443937      -0.00234599
C       -1.25947219       6.44862855       3.91124758      -0.00573242      -0.00274934       0.00734126
C       -2.48390430       8.58013879       3.85893760       0.01065649       0.00067782      -0.00436836
C        4.93419697       0.02532160       3.93556827      -0.01045416      -0.00817862      -0.00900667
C        3.71806658       2.15412105       3.82908334       0.00590836      -0.00287087      -0.00325555
B        2.56511444       4.40094582       3.28581690      -0.01300902      -0.00323836      -0.00592957
B        1.26324227       6.39912314       4.36122572      -0.00444855      -0.00096273      -0.01465846
C       -0.01545166       8.57958399       4.05328184       0.00346961       0.00686001      -0.00245051
C        7.40800182       0.02600581       3.94644197       0.00373824       0.00581958       0.00935537
C        6.19631840       2.14352989       3.86829068      -0.00311099       0.00979174      -0.01198291
C        5.01659364       4.25925619       3.61068561       0.00109493      -0.00197541       0.00359455
P        3.37839127       6.20194125       2.83580234      -0.00273865       0.00231698      -0.00776244
C        2.46022679       8.58921241       3.87418189      -0.00258431       0.00105155      -0.00253326
C        9.87493770       0.02525034       3.75541211       0.00632771      -0.00106932      -0.01329020
C        8.65059375       2.15738630       3.79123321      -0.00093063       0.00235000      -0.00085033
C        7.43160025       4.29574697       3.69217909       0.00885993      -0.00499647       0.00024467
C        6.17812648       6.42639563       3.44919683       0.00573569      -0.00495040       0.00053609
C        4.91107095       8.55762398       3.52679698      -0.00246513       0.01115316       0.00178370
C        0.00583070       1.45829938       3.64502686      -0.00228045      -0.00216465       0.00259477
C       -1.25183057       3.58523015       3.65879921       0.00368490       0.00148967       0.00125116
C       -2.48292272       5.72966736       3.76474180      -0.00799665      -0.00783055       0.01382196
C       -3.71393302       7.86752133       3.71799028       0.00941414      -0.00039204       0.00213857
C       -4.93885047      10.00029392       3.66718724       0.00058181      -0.00585535       0.00163452
C        2.47060696       1.46717076       3.75121262       0.00222488      -0.00088529       0.01202153
C        1.23367295       3.64155335       3.63662956      -0.00312119      -0.00078952       0.00849494
C       -0.05012503       5.70816185       3.98399947      -0.00542682       0.00342611       0.00080396
C       -1.25469448       7.87145909       3.97195335       0.00924437       0.00074650       0.00726092
C       -2.47782612      10.00436299       3.86497872      -0.01139661      -0.00016309      -0.00515895
C        4.95191121       1.44066509       3.89575902      -0.00005691      -0.00500304      -0.00596883
C        3.77384855       3.57774141       3.77961120      -0.00473466       0.00057775       0.00199578
C        1.22928276       7.89711991       4.10126044      -0.00212328       0.00018547      -0.00104299
C       -0.00405399      10.00491375       3.99287939      -0.00340978       0.00465142       0.01126589
C        7.42124364       1.44186214       3.88430369      -0.00234935       0.00847734      -0.00173959
C        6.22693030       3.55810596       3.74165473       0.00386723       0.00685847       0.00615793
C        4.99565076       5.64204030       3.32651027       0.00952323      -0.00839907       0.00422488
C        3.64444019       7.88316060       3.51847161      -0.00148410       0.01243037      -0.00790025
C        2.47437614      10.01113272       3.88305771       0.00572253       0.00191185      -0.00187487
C        9.87824513       1.44796884       3.73850308      -0.00607972      -0.00258727      -0.00503021
C        8.64961603       3.58208294       3.73310693       0.00438607      -0.00175428      -0.00192833
C        7.41055876       5.72017005       3.60030069       0.00150287      -0.00722016       0.00862178
C        6.15662226       7.85435345       3.49255224      -0.00838588       0.00375583       0.00144875
C        4.93065692       9.99035648       3.64003316       0.00798710       0.00719585       0.00815899
Mo       2.37454932       4.85900158       5.31742533      -0.00320777      -0.00593445       0.00611836
O        1.88668903       3.78469008       7.19655296       0.00568590      -0.00113001      -0.00606874
O        1.94876789       4.79870146       8.16573478       0.01276903      -0.00953618       0.00238149
H        2.90511894       4.88001052       8.33666122      -0.00601679       0.00612530       0.00016346
