52
Lattice="12.336457 0.0 0.0 -6.168228499999997 10.683685154694365 0.0 0.0 0.0 15.0" Properties=species:S:1:pos:R:3:forces:R:3 energy=-444.08785473835314 free_energy=-444.08785473835314 stress="-0.0036920414792698474 -0.002182559975044383 7.65783030913235e-05 -0.002182559975044383 -0.009668254539444768 -9.043711362005397e-05 7.65783030913235e-05 -9.043711362005397e-05 0.00020932081889412087" pbc="T T T"
C        0.07712654       0.08735249       3.80223295       0.02515390       0.08159650       0.01350158
C       -1.17874318       2.22204668       4.10843806       0.04510046      -0.04019164      -0.00781421
C       -2.42002625       4.36745575       4.03863436       0.04695938      -0.00111309      -0.00108093
C       -3.61723778       6.50320237       3.80496904      -0.03689935      -0.02234906       0.00342227
C       -4.85019433       8.63401225       3.71402087       0.00471903      -0.05290400      -0.03730369
C        2.54998923       0.05706419       3.73151610      -0.03186832       0.02275080       0.03505577
C        1.32304526       2.10247306       4.22173803       0.00851548       0.14094775       0.17717997
C       -0.08262516       4.36623060       4.69568344      -0.04881539      -0.02454143       0.01321614
C       -1.15665845       6.49758122       4.06964666      -0.01589972       0.00647948      -0.00157036
C       -2.37163252       8.62283380       3.77699747       0.05592406      -0.02589121       0.04235839
C        5.01586890       0.09470901       3.66554043       0.01396639      -0.04983270       0.02432071
C        3.75306671       2.20186734       3.55423637      -0.03479914      -0.07871538       0.03836774
P        1.68826201       6.29778764       4.17676571      -0.00243758       0.05512491       0.02189532
C        0.09092082       8.64074653       3.83502644       0.02615902       0.00425073       0.00041999
C        7.46859975       0.12679668       3.66305066       0.00608705      -0.05599861      -0.00164649
C        6.23903529       2.23830055       3.48523501      -0.00814916       0.01270987       0.03994850
C        5.10198709       4.38645436       3.14445226      -0.03523348       0.00131316       0.00777849
B        3.66238095       6.52636118       3.66514544       0.05648621       0.04735948       0.03642556
C        2.56001390       8.73212041       3.67044874      -0.01776781       0.00424271      -0.01423192
C        9.95457185       0.13271816       3.70987541       0.01122761       0.01514647       0.00305905
C        8.70552680       2.24637202       3.76565195      -0.01514933       0.02193997      -0.02337394
C        7.48845455       4.37425632       3.62974383      -0.01062993       0.02228941       0.00683937
C        6.25617826       6.51729368       3.61678921      -0.02145389      -0.03195902      -0.02108162
C        5.02851742       8.67412968       3.61581006      -0.03986692       0.00755940      -0.04350617
C        0.06505509       1.49289558       4.05294766       0.02013301       0.04436378       0.00912961
C       -1.22093825       3.63650380       4.31003825      -0.00632921      -0.07493884       0.03332906
C       -2.39440902       5.79110862       3.97691467      -0.02493211       0.02008319       0.01360091
C       -3.61221317       7.92254789       3.76413604       0.02980238      -0.04070902      -0.00188871
C       -4.85720064      10.05052883       3.74559665      -0.00805337      -0.01452507       0.00024093
C        2.52848116       1.47637207       3.82768939      -0.03144969       0.00197442      -0.01126794
P        1.38650747       3.53445703       5.30836218      -0.00289119      -0.06370704      -0.07969641
C        0.02788144       5.73104211       4.36309716      -0.01767917      -0.00229987      -0.04808950
C       -1.13805762       7.91253081       3.88897957       0.04818671      -0.00050375       0.01600455
C       -2.37848532      10.04553433       3.70717726       0.00384175      -0.01925490      -0.02874198
C        5.01017493       1.52462525       3.55413178      -0.01295388      -0.04906217      -0.00113441
S        3.66054279       3.60714580       2.48059117       0.03785880       0.03561043      -0.01971835
C        1.35712700       7.98977702       3.86220046       0.01343159       0.01458602       0.00940453
C        0.08022596      10.07292922       3.71050052       0.00615629      -0.03842239      -0.01349650
C        7.47147183       1.54261385       3.62715112      -0.01998054      -0.03446283      -0.00170887
C        6.28328103       3.64759612       3.39253835      -0.01855349       0.02766483      -0.02506075
C        5.01543398       5.78695998       3.48197322       0.01890924       0.02263141       0.02028579
C        3.77802815       8.03217387       3.58588714      -0.03718833      -0.00712613      -0.00249119
C        2.54596371      10.13441905       3.65116074       0.01624675      -0.00587396       0.02593890
C        9.94551340       1.54119042       3.85649367       0.00060612       0.00563137      -0.01092166
C        8.70510473       3.66193502       3.81196874       0.02644144       0.04157535       0.00060533
C        7.48382877       5.79934573       3.68390259      -0.03108991       0.00461281      -0.01256605
C        6.25518906       7.93725617       3.65381980      -0.03268439      -0.03929677       0.01262165
C        5.01777942      10.09225667       3.69538437       0.01228422       0.04178783      -0.01883948
Mo       3.33756869       4.65803712       4.52003693       0.08600282       0.01836612      -0.11493185
O        1.05926421       2.93703087       6.77610668      -0.00109724      -0.04572549       0.02691940
O        1.89071725       3.53128516       7.91222041       0.22955318       0.01883625      -0.21736527
H        2.73368780       3.04213699       7.75573979      -0.28590034       0.07796992       0.12765873
