52
Lattice="12.336457 0.0 0.0 -6.168228499999997 10.683685154694365 0.0 0.0 0.0 15.0" Properties=species:S:1:pos:R:3:forces:R:3 energy=-452.4451492653985 free_energy=-452.4451492653985 stress="-0.0002774451746474428 0.0006055494995897672 -4.69171492874287e-05 0.0006055494995897672 0.006247372017697847 9.78022948219115e-05 -4.69171492874287e-05 9.78022948219115e-05 3.4430067190757035e-05" pbc="T T T"
C        0.02046402       0.00371402       3.76639532       0.01203554       0.02033244       0.00112086
C       -1.20927111       2.13079369       3.58573383      -0.02438821       0.02501759       0.01073116
C       -2.43106777       4.27182950       3.52437130       0.00086498       0.00198609       0.02476032
C       -3.66844995       6.40981628       3.67503775       0.00225589      -0.02355001       0.00614997
C       -4.91689658       8.55268059       3.81806719       0.01988994      -0.01336663      -0.03764480
C        2.47543804       0.04436984       3.77483516      -0.00148501      -0.00616850       0.04642765
C        1.22076645       2.17250590       3.75615929       0.00686280      -0.02028809      -0.02624976
C        0.00769982       4.27284929       3.50371743       0.03364084       0.01888654       0.01675410
C       -1.19976288       6.39572122       3.53585539      -0.03438681       0.01319373      -0.00526263
C       -2.44952069       8.55379409       3.66737762       0.02322821      -0.00902725       0.04252252
C        4.95389558       0.00378667       3.72873975      -0.01076824      -0.01325610       0.01059764
C        3.72969976       2.16973040       3.99889195      -0.01007406      -0.02011955       0.04998413
O        1.18589819       6.41859342       3.63648342       0.02209917      -0.00926877      -0.01992473
C        0.01154115       8.51906953       3.67166318       0.02231303       0.00340680       0.00911674
C        7.42354923      -0.03397437       3.69478069       0.00339980       0.01892871      -0.01661028
C        6.21144076       2.11403256       3.75413230      -0.02773404      -0.00747352       0.05146932
C        5.04859004       4.22774771       4.17985798      -0.01958762       0.00698130      -0.01937805
B        3.80170510       6.42170217       4.54454703      -0.03437218       0.00984459       0.03892920
C        2.45595464       8.48854438       3.85906847       0.00168149       0.00382256      -0.01925003
C        9.88219559      -0.02890372       3.72052635       0.02736643      -0.04252144      -0.01871860
C        8.66515185       2.11568122       3.61212868      -0.00452422       0.00349075      -0.00886831
C        7.46138380       4.26078211       3.72980114      -0.01887853       0.01087360      -0.01685267
C        6.22591580       6.39936471       3.99444685       0.00147357       0.00765281       0.02280611
C        4.94630123       8.53189201       3.95397588       0.00716006      -0.00215705      -0.01201577
C        0.02094928       1.43774811       3.69354920      -0.01701073       0.02121643      -0.01242405
C       -1.19671913       3.56278776       3.50216439       0.02155367       0.03569729       0.01090763
C       -2.43403018       5.68939116       3.55565916      -0.01488423      -0.01056689       0.01493173
C       -3.68448500       7.84070488       3.71979102       0.02669667      -0.02692881      -0.01981585
C       -4.91569252       9.98897177       3.79017117       0.00477597       0.00110781      -0.02763310
C        2.46231121       1.48150318       3.85225526       0.00189950      -0.01207830       0.01758621
O        1.17892703       3.54563890       3.65382284       0.02732097       0.00771007       0.01260816
C        0.00991483       5.68716741       3.50828497      -0.03648746       0.02506057       0.01663453
C       -1.22212055       7.82582240       3.61270859       0.01909283       0.00418683      -0.00448960
C       -2.45795858       9.99211306       3.72913931      -0.00585567      -0.00500157      -0.01173229
C        4.96042217       1.42732188       3.81259370      -0.02656013      -0.01550899       0.00935105
C        3.84559216       3.51384065       4.35446427      -0.02166581       0.01752287       0.00093259
C        1.21370386       7.78793965       3.74331034       0.01337346       0.00810122      -0.01680762
C        0.01918080       9.95282990       3.69989958       0.00746719       0.00816864      -0.02662220
C        7.43673840       1.39635657       3.67596784      -0.01908114       0.01543875      -0.05812722
C        6.24772328       3.53075887       3.84101158      -0.00865398      -0.00836702       0.01346838
C        5.05446015       5.64887038       4.27543838      -0.01577689       0.00459207      -0.00815088
C        3.70251981       7.83306914       4.08082631      -0.01046209       0.01739465       0.00258695
C        2.47549739       9.92300645       3.74031850       0.00704138       0.00306361      -0.00392618
C        9.89999640       1.40649623       3.61687063      -0.00628702      -0.02793820       0.02603208
C        8.67746632       3.54638623       3.59356541      -0.01024307       0.01318087       0.02563487
C        7.45564928       5.68963384       3.79183227      -0.01088920       0.00574832      -0.01333712
C        6.19269987       7.82911899       3.94274003       0.00774911       0.00050996      -0.02125763
C        4.95300121       9.96057857       3.79937610       0.03357474      -0.00967914       0.01729461
Mo       2.90859780       4.88104399       5.72229535      -0.01820096       0.02927142      -0.04320962
O        3.70061923       4.93111281       7.23774080       0.02688824      -0.05001808       0.05742098
O        1.02023979       5.09971539       6.04347361      -0.00937140      -0.01885362      -0.09931046
H        0.61004181       4.99186058       6.91983148       0.03592323      -0.01025133       0.01085992
