52
Lattice="12.336457 0.0 0.0 -6.168228499999997 10.683685154694365 0.0 0.0 0.0 15.0" Properties=species:S:1:pos:R:3:forces:R:3 energy=-447.6723968529893 free_energy=-447.6723968529893 stress="-0.005391892467782746 -0.006406650536933783 2.0199830198880966e-05 -0.006406650536933783 -0.00268373048855271 -1.448085559296321e-05 2.0199830198880966e-05 -1.448085559296321e-05 4.143212164815715e-05" pbc="T T T"
C        0.04838938      -0.02014256       3.65946153       0.00296663      -0.00232681      -0.00381481
C       -1.22521475       2.09905965       3.65631197       0.00294960      -0.00067578      -0.00140371
C       -2.42350480       4.25655097       3.62813027       0.00199367       0.00322245       0.00486132
C       -3.60366565       6.41071197       3.59793461      -0.00047680       0.00083062       0.00313135
C       -4.84271025       8.55755997       3.63380970       0.00805712       0.00128478      -0.00417861
C        2.51227936       0.00180651       3.83295473      -0.01056370       0.01247191      -0.00769113
C        1.19307652       2.08382757       3.92522689       0.00702424      -0.01263666       0.00471548
C       -0.03683040       4.17320501       4.02208966       0.00112259      -0.00075486      -0.00230636
C       -1.15782323       6.36749934       3.89110189      -0.00531715      -0.00590948      -0.00140418
C       -2.38448468       8.53510814       3.80335777       0.00536884       0.00224298      -0.00066900
C        4.97908255       0.00641917       3.78475829      -0.01240190      -0.00858066      -0.00576395
C        3.69102493       2.11202941       3.68139610      -0.00843780       0.01013494      -0.00521457
B        1.25888596       6.38821730       4.37818305      -0.00117678      -0.00682060      -0.01015778
C        0.06773611       8.53571868       3.93129864       0.00549357      -0.00588538       0.00315819
C        7.44191774      -0.01009585       3.69960469       0.00570352       0.00135059      -0.00145895
C        6.18648116       2.15136086       3.54799423      -0.01522723      -0.00588136      -0.00108785
C        5.06339378       4.38071504       3.46938637       0.01278924       0.00255595      -0.00789454
N        3.92618702       6.45417124       3.91519576      -0.00667889      -0.00174212       0.00123553
C        2.54690013       8.51849558       3.86572131       0.00072776       0.00068128       0.01182642
C        9.90399049      -0.02511532       3.61676704       0.00443009      -0.00228069       0.00318901
C        8.65933751       2.12433809       3.54573905      -0.00156267       0.00639395       0.00333580
C        7.47077846       4.28567104       3.46586960       0.01037767       0.00177439       0.00764274
C        6.29989010       6.46283020       3.47359862       0.00105948       0.00522418      -0.01035923
C        5.01823423       8.54493251       3.60525976      -0.00653054      -0.00010134       0.01684525
C        0.01293488       1.39797545       3.71979684       0.00359695      -0.00346685       0.00288477
C       -1.22211818       3.50701625       3.72800011      -0.00060906       0.00063333      -0.00458681
C       -2.39032332       5.67794610       3.69339754      -0.00465100      -0.00193922      -0.00607431
C       -3.60912582       7.83407389       3.67773428       0.00814781       0.00207766      -0.00438936
C       -4.87409795       9.97441774       3.72409769      -0.00161685       0.00341409      -0.00828815
C        2.46435616       1.43199113       3.87651730       0.00206702       0.00457878       0.00053262
O        1.05485158       3.38613088       4.35546406       0.01295884      -0.00337441       0.00250075
C        0.02596725       5.58795322       4.10234699      -0.00259772      -0.00107092       0.00180508
C       -1.15080052       7.80405223       3.89304181       0.00261257      -0.00651465      -0.00310997
C       -2.40871496       9.97046166       3.82580009      -0.01634205       0.00284946      -0.00712788
C        4.94779671       1.45028015       3.66617496      -0.01561431      -0.00722885       0.00644501
S        3.48897768       3.77672263       3.22505705      -0.01023510      -0.01501061      -0.00379137
C        1.31515825       7.84257072       4.04833451       0.00322020      -0.00203916       0.01157838
C        0.04704958       9.97043157       3.80507702       0.00587418      -0.00242340      -0.00399503
C        7.41884895       1.42213949       3.58230084      -0.00764778       0.00715105      -0.00541353
C        6.22172107       3.58065089       3.46001631       0.00806244       0.00149947       0.00171314
C        5.07912048       5.78785436       3.56201277       0.00269161       0.00177675       0.00159234
C        3.81022002       7.81638736       3.78933433      -0.00759859      -0.00063215       0.01071903
C        2.51518446       9.95105296       3.70911751       0.00600441      -0.00333569      -0.00652524
C        9.89148240       1.40089589       3.58188824      -0.00082580      -0.00148904       0.00853503
C        8.68057736       3.55170126       3.52209726       0.00872835       0.00404382       0.00723634
C        7.50454999       5.70920941       3.47594887       0.00320027       0.00057971       0.00566642
C        6.26818262       7.86726191       3.54345441       0.00023092       0.00443024       0.00924183
C        4.98237522       9.95812686       3.61008116       0.00378087      -0.00049126       0.00824341
Mo       2.79296916       5.17829864       5.08503132       0.00633993       0.01598442      -0.00145720
O        2.28902916       5.08251330       6.75473891      -0.00242492       0.00559063      -0.01297198
O        1.71703377       4.93952891       8.33523049      -0.00189581      -0.00336459      -0.00405983
H        2.62188578       4.88897128       8.71458284      -0.00714796       0.00319915      -0.00343993
