52
Lattice="12.336457 0.0 0.0 -6.168228499999997 10.683685154694365 0.0 0.0 0.0 15.0" Properties=species:S:1:pos:R:3:forces:R:3 energy=-444.9382590673665 free_energy=-444.9382590673665 stress="0.001955413545419976 -0.0018500616883638872 -4.959087792271275e-05 -0.0018500616883638872 -0.005059594831094044 2.7833131139765e-07 -4.959087792271275e-05 2.7833131139765e-07 -2.3381180799989006e-06" pbc="T T T"
C       -0.04711691      -0.14632588       3.63917326      -0.00056045      -0.00333136      -0.00138186
C       -1.27775696       2.00614492       3.60751913      -0.00403785       0.00392376      -0.01788252
C       -2.53068411       4.12952346       3.80071529      -0.00354067       0.00880106      -0.00259718
C       -3.75904603       6.25790461       3.88427670      -0.00301883      -0.00000611      -0.00001951
C       -4.98633955       8.38742781       3.77387051      -0.00386722      -0.01601104      -0.00508967
C        2.41867654      -0.20693420       3.79661776      -0.00133105      -0.00255080       0.00206708
C        1.21891503       1.91691985       3.54206718      -0.00065292       0.00463027      -0.00813890
C       -0.07020643       4.17654104       3.73595449       0.00570011      -0.00767670       0.01315143
C       -1.29377844       6.25848466       4.04490107       0.00121582       0.00578373       0.00159288
C       -2.50561155       8.37781895       3.94787775      -0.00073389       0.00190336      -0.00782343
C        4.89027823      -0.16559982       3.90031959       0.00772653      -0.00314573      -0.00754801
C        3.61778050       1.92900277       3.82519441      -0.00301087      -0.00339565      -0.00199962
B        1.20952838       6.25346689       4.38152781      -0.00737450       0.00209164      -0.00037362
C       -0.02570080       8.39202907       4.01467283       0.00163529      -0.00476853      -0.01067925
C        7.35302726      -0.13065777       3.81736733       0.00171404      -0.00854807      -0.00283287
C        6.09102517       2.01614193       3.83292692       0.00154349      -0.00263453      -0.00832415
C        4.79119074       4.19931320       3.84079008      -0.00324107       0.00197021      -0.01009978
O        3.70148083       6.33905866       3.52342574       0.01309773       0.01004305       0.00056599
C        2.44070710       8.40394255       3.80306406      -0.00043137       0.00152690      -0.00215611
C        9.81811254      -0.12891682       3.65325453       0.00071667      -0.00086474       0.01026061
C        8.57235867       2.00694204       3.72811955      -0.00309522      -0.00013083       0.00193818
C        7.31088673       4.13874589       3.81002215      -0.00511844       0.01033292       0.00097831
C        6.11740752       6.29138277       3.79503695      -0.00638394       0.00442400       0.00822636
C        4.88996835       8.41620399       3.62260396      -0.00225960       0.00141631      -0.00400997
C       -0.04089528       1.28700038       3.57764646      -0.00010509       0.00383976       0.00564451
C       -1.27583623       3.42230049       3.69256207      -0.00358526       0.00468561      -0.00924714
C       -2.52933070       5.54593655       3.91933424       0.00029498       0.00711884       0.01533704
C       -3.74853639       7.67725350       3.88104655      -0.00020996      -0.00747973       0.00588662
C       -4.98964850       9.80567493       3.73035718      -0.00102601      -0.01372483       0.00291810
C        2.42009307       1.20625822       3.73305135      -0.00401985      -0.00112132      -0.00023678
S        1.50290099       3.58966485       3.13861572       0.00525411      -0.00390610      -0.00374489
C       -0.06890231       5.53185508       4.07914065      -0.00099410      -0.00234488      -0.00173969
C       -1.26660922       7.67628132       4.03957944      -0.00064199       0.00476237       0.00242488
C       -2.50531717       9.79144107       3.89275615       0.00382009       0.00330720       0.01330206
C        4.87216083       1.27113782       3.86416964       0.00141301      -0.00270244      -0.00009662
B        3.45236132       3.41715876       3.92590158      -0.00138303      -0.00112725       0.00126402
C        1.22581574       7.70866869       4.05221198       0.00328074       0.00134839       0.00494185
C       -0.04240973       9.82601157       3.91440804       0.00447993      -0.00972437      -0.00524045
C        7.33511401       1.30032589       3.78744042       0.00147251      -0.00836056       0.01055614
C        6.05027228       3.44911739       3.81445829      -0.00147899       0.00083211      -0.00280649
C        4.88891516       5.61518207       3.82235151       0.00002610       0.00389351       0.00446185
C        3.67238424       7.73867333       3.63658630       0.00076465       0.00457676       0.00325010
C        2.42396198       9.84241975       3.74266119       0.00175058      -0.00171026      -0.00187839
C        9.82034683       1.30079722       3.65460152      -0.00204261       0.00146691      -0.00151548
C        8.55966500       3.42680326       3.77344842      -0.00539997       0.00652470       0.00725912
C        7.33705506       5.55526353       3.83090758      -0.00831006       0.01022010      -0.00161528
C        6.12109808       7.69982332       3.71469462      -0.00873311      -0.00246932       0.00489552
C        4.88297004       9.84083779       3.63035528      -0.00261938      -0.00209330       0.00366146
Mo       2.95986068       5.18210190       5.14671104       0.00200013       0.00591997      -0.00562225
O        3.44829120       6.36194341       6.36332302       0.01095426      -0.00164108      -0.00603645
O        4.27708223       7.85649634       6.63051290       0.00369523      -0.01057028      -0.00043408
H        4.02268982       7.80206831       7.57955190       0.01665128       0.00669632       0.00658631
