51
Lattice="12.336457 0.0 0.0 -6.168228499999997 10.683685154694365 0.0 0.0 0.0 15.0" Properties=species:S:1:pos:R:3:initial_magmoms:R:1:forces:R:3 energy=-441.2600273274601 free_energy=-441.2600273274601 stress="-0.0011831433508526516 -0.004064937216088095 3.610477593979158e-05 -0.004064937216088095 -0.007979022639291655 9.650178139874847e-05 3.610477593979158e-05 9.650178139874847e-05 9.740112058116793e-05" pbc="T T T"
C       -0.10968479      -0.17047943       3.42926482       0.00000000       0.02156325       0.00513715      -0.00616705
C       -1.34261369       1.99945046       3.46599379       0.00000000      -0.01331539       0.01268807       0.02440023
C       -2.57581637       4.13548848       3.66753361       0.00000000       0.00546142       0.02450683       0.04768182
C       -3.79142244       6.27462770       3.75943431       0.00000000       0.01965877      -0.02839540      -0.03047578
C       -5.02193595       8.39695255       3.61953251       0.00000000      -0.03134381      -0.01470289      -0.04384792
C        2.38190542      -0.21422511       3.44083010       0.00000000       0.02085308       0.04348719       0.01221397
C        1.14350401       1.88723865       3.28366924       0.00000000      -0.00481829      -0.01440521      -0.01158216
C       -0.09711021       4.12925800       3.79640779       0.00000000      -0.00895609      -0.02787735       0.01853024
C       -1.33826054       6.27621055       3.93383452       0.00000000       0.04297710       0.03878826       0.01989165
C       -2.54073576       8.39332563       3.73868533       0.00000000      -0.00145447      -0.00806790      -0.01322515
C        4.83798711      -0.13817877       3.69306107       0.00000000      -0.00524751       0.04733773      -0.02158380
C        3.54074486       1.92551892       3.64916834       0.00000000      -0.00424761       0.02335596       0.00096801
B        1.08653548       6.35909468       4.53682105       0.00000000      -0.06564192       0.00858060      -0.05353711
C       -0.07597584       8.42788085       3.95946972       0.00000000       0.01658152       0.01191976       0.02321092
C        7.30353527      -0.11075044       3.76858493       0.00000000      -0.04336132      -0.01754475      -0.02204325
C        6.02913452       2.04228717       3.73105720       0.00000000      -0.01256143      -0.02474735      -0.01090644
C        4.82306580       4.27184519       3.84254294       0.00000000       0.06184270       0.01443521       0.00586436
O        3.67979215       6.37338657       3.95734873       0.00000000      -0.07690285      -0.04597629      -0.01931310
C        2.41274602       8.43886967       3.95194547       0.00000000       0.02159927       0.01131140      -0.07128088
C        9.76570968      -0.12168011       3.61373814       0.00000000      -0.00935333      -0.03510868      -0.00437304
C        8.51593904       2.01814553       3.61975825       0.00000000       0.01624909       0.00843349       0.05153606
C        7.27731045       4.16082740       3.72971908       0.00000000      -0.00226338      -0.05631094      -0.03194535
C        6.08705488       6.31680226       3.78658941       0.00000000       0.01966690      -0.00496170       0.00650129
C        4.84366037       8.42134829       3.68810788       0.00000000      -0.00224750       0.07085222       0.02214789
C       -0.11265183       1.25472687       3.35607685       0.00000000      -0.02021139       0.00090542      -0.06930797
C       -1.34199964       3.41159463       3.59498266       0.00000000      -0.03287904       0.01266923      -0.00544693
C       -2.56731825       5.55707640       3.78494463       0.00000000       0.05347318       0.03752732       0.00523704
C       -3.77900267       7.69183723       3.70997295       0.00000000      -0.02384923      -0.02844459      -0.00364886
C       -5.03496989       9.80016312       3.46774187       0.00000000       0.00744851       0.00432242       0.00599986
C        2.36264044       1.19718979       3.39114248       0.00000000       0.01014638       0.03683145       0.00193192
B        1.21762741       3.34758113       3.47764781       0.00000000       0.04601861      -0.03373925       0.02821717
C       -0.12983669       5.54763638       4.09653262       0.00000000       0.03404914      -0.00012400       0.03069706
C       -1.30692923       7.69599893       3.90260457       0.00000000       0.01969277       0.01402338       0.04265458
C       -2.54629042       9.80375319       3.61908849       0.00000000       0.01547176       0.02815867      -0.00665891
C        4.81250939       1.30117007       3.69179422       0.00000000      -0.02546284       0.02148604       0.02897154
S        3.23862717       3.58507202       4.01918203       0.00000000      -0.04876342      -0.01559547       0.01274227
C        1.17532806       7.77579637       4.15146362       0.00000000       0.01924335       0.01610974      -0.03881794
C       -0.09327791       9.85268348       3.80081812       0.00000000      -0.02726873       0.01138221       0.04491523
C        7.27341132       1.32092114       3.70103007       0.00000000      -0.01399417      -0.00681743      -0.01083408
C        6.01830774       3.47587082       3.75631041       0.00000000       0.01631458      -0.03384181       0.03680954
C        4.87097888       5.66595428       3.86389373       0.00000000      -0.00645020      -0.01101800       0.00811060
C        3.64321991       7.73319246       3.85287784       0.00000000      -0.00138200       0.03390860      -0.03752792
C        2.38252772       9.85838225       3.77920254       0.00000000      -0.02249118      -0.02280208      -0.02425956
C        9.75344522       1.30075447       3.54568470       0.00000000       0.00889419      -0.00719090      -0.00447149
C        8.51633175       3.43897010       3.65210098       0.00000000       0.01694413      -0.00636090       0.02316442
C        7.30379582       5.57585123       3.75735992       0.00000000       0.01458062      -0.04206764      -0.02596121
C        6.08344059       7.72211244       3.69736189       0.00000000      -0.00841214       0.01529883       0.01723396
C        4.82513617       9.83461085       3.56576265       0.00000000       0.01542033       0.02280199       0.00140303
Mo       1.43729850       4.50238640       5.20233993       0.00000000      -0.00864808      -0.05849561       0.20029077
O        4.83900421       7.33471619       6.63585748       1.00000000      -0.01044394       0.04527035      -0.12018068
O        4.35785867       8.46807361       6.63679953       1.00000000       0.00782062      -0.07693335      -0.03392883
