51
Lattice="12.336457 0.0 0.0 -6.168228499999997 10.683685154694365 0.0 0.0 0.0 15.0" Properties=species:S:1:pos:R:3:initial_magmoms:R:1:forces:R:3 energy=-441.69583695853527 free_energy=-441.69583695853527 stress="-0.006384604404517827 -0.0021703407917457885 1.1535571286820629e-05 -0.0021703407917457885 -0.004187725028876689 7.10690751534381e-06 1.1535571286820629e-05 7.10690751534381e-06 5.076027157960781e-05" pbc="T T T"
C        0.05460866       0.15103142       3.69040718       0.00000000       0.00142764      -0.00024992      -0.00178077
C       -1.20408935       2.27339686       3.53705404       0.00000000      -0.00613249       0.00835854      -0.00485490
C       -2.45997428       4.41749699       3.79055942       0.00000000      -0.00127150      -0.00245466       0.01324081
C       -3.65333024       6.56359697       3.98050909       0.00000000      -0.00380645       0.00711147      -0.01019165
C       -4.86942703       8.71639226       3.91179356       0.00000000       0.00141594      -0.00852226      -0.00614931
C        2.52486696       0.13443706       3.62646002       0.00000000       0.00351366       0.00066469      -0.00258373
C        1.27235782       2.19400839       3.16923818       0.00000000      -0.00894185       0.00650167       0.00940041
C       -0.11007070       4.45346619       3.28193554       0.00000000       0.00909159      -0.00922853       0.00910993
C       -1.21393114       6.55798149       3.83305865       0.00000000      -0.00200280      -0.00865180       0.00202258
C       -2.41015166       8.69479553       3.88795278       0.00000000       0.00158760      -0.00687243      -0.00501739
C        4.98693491       0.14028201       3.70769602       0.00000000      -0.00435883      -0.01055004      -0.00225170
C        3.77409175       2.19668542       3.13811344       0.00000000       0.00329023       0.00093704       0.00296607
B        1.29716980       6.50486650       3.77915607       0.00000000       0.00212114       0.00080186       0.00770607
C        0.05594902       8.68697314       3.85142426       0.00000000      -0.00213076       0.00827088      -0.00080829
C        7.45151683       0.14361918       3.80208274       0.00000000      -0.00376742       0.00735847      -0.00712533
C        6.20168026       2.29430090       3.68045841       0.00000000       0.00274797      -0.00938175       0.00980737
C        4.99563859       4.48715338       3.60746969       0.00000000       0.02108903       0.00480578      -0.00785578
N        3.84666433       6.60049530       3.75175378       0.00000000       0.00014296       0.01218685      -0.01400141
C        2.53943968       8.68787049       3.83784143       0.00000000       0.00382852      -0.00030021       0.00617489
C        9.92035125       0.14569495       3.77517810       0.00000000      -0.00877176       0.00485435      -0.00758860
C        8.67036553       2.28236782       3.79273979       0.00000000       0.00562268      -0.00009594       0.00731356
C        7.42865881       4.42268607       3.92966381       0.00000000       0.00737044       0.00485930      -0.01192564
C        6.25095147       6.60039895       3.94101137       0.00000000      -0.00775841      -0.00306620      -0.01105828
C        5.00413993       8.70489176       3.86735978       0.00000000       0.00958118       0.00568954       0.00129036
C        0.04140137       1.56498433       3.46954306       0.00000000      -0.00961556       0.00276558       0.00335575
C       -1.25551492       3.68998216       3.52743015       0.00000000       0.00011455       0.00388686       0.00772655
C       -2.44121295       5.84147588       3.88916250       0.00000000      -0.00742552      -0.00100959       0.00042326
C       -3.64332026       7.99092730       3.94960347       0.00000000       0.00028538      -0.00096985      -0.00381397
C       -4.87590170      10.13322619       3.76049799       0.00000000       0.00512796      -0.00855601      -0.00933153
C        2.52510536       1.53788143       3.28815746       0.00000000      -0.00456042       0.00705300       0.00126158
S        1.23462286       3.77243590       2.44126186       0.00000000       0.00343859      -0.00324535       0.00206361
C       -0.02367510       5.81560221       3.62078979       0.00000000       0.00045507      -0.00957920       0.00650343
C       -1.18029245       7.97891756       3.88284685       0.00000000       0.00154288      -0.00521776       0.00689156
C       -2.41366701      10.11481467       3.75167041       0.00000000      -0.00029578      -0.00966514      -0.00580796
C        4.98247612       1.56441606       3.51992055       0.00000000       0.00215693      -0.01214724      -0.00303076
S        3.98394033       3.74079140       2.28192323       0.00000000      -0.00513280       0.00244036      -0.00434564
C        1.30666225       7.99641344       3.83799712       0.00000000      -0.00082446       0.00552785       0.00568030
C        0.05176557      10.11541426       3.80865343       0.00000000      -0.00329464       0.00940920       0.00439418
C        7.43395169       1.57453029       3.77937695       0.00000000       0.00569000       0.00144206       0.00296493
C        6.19953743       3.70949852       3.78905850       0.00000000       0.00917111      -0.00457847       0.00342848
C        5.04160939       5.92586857       3.75967578       0.00000000      -0.00814063       0.00241126      -0.00176676
C        3.78168090       7.97129950       3.83484736       0.00000000       0.01117681      -0.00170368      -0.00824620
C        2.52597714      10.11808905       3.82159330       0.00000000      -0.00696735       0.00303352       0.00660111
C        9.91295699       1.57046972       3.71283595       0.00000000       0.00040618       0.00584945       0.00573163
C        8.65556770       3.70321041       3.86454205       0.00000000       0.00359063      -0.00285031      -0.00179642
C        7.45588424       5.85224429       3.98316547       0.00000000      -0.00332353       0.00961076      -0.00943752
C        6.23894836       8.01577521       3.93408101       0.00000000       0.00083278      -0.00508336      -0.01544260
C        4.99005480      10.12378045       3.78931512       0.00000000      -0.00314829       0.00836785       0.00055965
Mo       2.78147795       4.92191283       3.92846941       0.00000000      -0.00131858      -0.00198802       0.06805432
O        1.25753300       1.18028957       7.78696159       1.00000000       0.01036053       0.00774968       0.01387710
O        1.39899400       1.02684984       6.57095957       1.00000000      -0.02419016      -0.01598015      -0.05233734
