52
Lattice="12.336457 0.0 0.0 -6.168228499999997 10.683685154694365 0.0 0.0 0.0 15.0" Properties=species:S:1:pos:R:3:forces:R:3 energy=-448.1256745308177 free_energy=-448.1256745308177 stress="-0.004746829620824528 -0.004395474962707629 2.616582237554806e-05 -0.004395474962707629 -0.00574928837258682 -3.088429920311484e-05 2.616582237554806e-05 -3.088429920311484e-05 8.462661876366136e-06" pbc="T T T"
C        0.07742509       0.12917082       3.77075056       0.00173738       0.01120000       0.00648102
C       -1.18982725       2.25104762       4.06921554      -0.00485170      -0.01765801       0.00354032
C       -2.43233203       4.39892246       3.99929483       0.00167498       0.00374247      -0.00561117
C       -3.61029924       6.54224517       3.76833076       0.01150444      -0.00184824      -0.02045729
C       -4.83054354       8.68896597       3.64050357       0.00134045      -0.01168638       0.00026483
C        2.55581999       0.09898001       3.74785597      -0.01086749       0.00416684      -0.00535565
C        1.31553232       2.14616771       4.23754250       0.00505826       0.01071266       0.01606748
C       -0.08029161       4.42291105       4.56973860      -0.00502099      -0.00091135       0.00608710
C       -1.16607644       6.53388608       4.02913989      -0.00386186       0.00116173      -0.00238294
C       -2.36492091       8.65994540       3.75531722      -0.00120759       0.00060595       0.00226853
C        5.01713783       0.11848458       3.66071099      -0.00052962       0.00075777       0.00392286
C        3.73388046       2.20401289       3.50566249      -0.01744043       0.01565265       0.00379465
B        1.38022517       6.49266093       4.23547396      -0.01236505       0.00464483      -0.00236609
C        0.10017851       8.65908607       3.83309259       0.00337711      -0.00848327       0.00553037
C        7.47284211       0.13351309       3.67495035       0.01436311       0.00162910       0.01028468
C        6.21589929       2.28883990       3.58855066      -0.00477364       0.00092768      -0.00171697
C        5.01070832       4.49511722       3.55644413       0.00209134       0.00197952      -0.01292321
N        3.88463330       6.62353730       3.56166355      -0.00462760      -0.00845213      -0.00330832
C        2.56502344       8.67686445       3.72203383       0.00489760       0.00234549       0.00342477
C        9.94138435       0.13974959       3.70947214      -0.00718299      -0.00590979      -0.00681962
C        8.68791780       2.27105383       3.77987487       0.00444814       0.00705268       0.01189028
C        7.45819045       4.41438435       3.71756793      -0.00086339       0.00547231      -0.01677550
C        6.29803189       6.59551444       3.54907310       0.00645727      -0.00809522      -0.01440247
C        5.04068258       8.70684557       3.55365048      -0.00419545       0.00599046      -0.01353993
C        0.06125562       1.53199942       4.03181058      -0.00073977      -0.00020685       0.01213827
C       -1.22801543       3.67091270       4.23790870      -0.00176682      -0.00822521      -0.00306494
C       -2.40114831       5.82307187       3.93817161       0.00390838       0.00322397       0.00134642
C       -3.60058344       7.96359706       3.71547346       0.00643083      -0.00643136      -0.00736197
C       -4.85024512      10.10088603       3.71953545      -0.00600327      -0.00540744       0.00286029
C        2.53287970       1.51919928       3.84064353       0.00175681      -0.00203446       0.01044585
P        1.34678745       3.60420337       5.24009107      -0.00215454       0.00702476      -0.00302482
C        0.01939504       5.79798419       4.30557790      -0.00516293      -0.00540730      -0.01685575
C       -1.13390396       7.94716761       3.86950415      -0.00375428      -0.00094530      -0.00176485
C       -2.37478795      10.08177301       3.70275530      -0.00627620       0.00379196      -0.00995510
C        4.99116203       1.55526755       3.56028533      -0.01090973       0.00902717       0.00555362
S        3.58722268       3.80322675       2.77962673       0.00688347      -0.01254695      -0.00103909
C        1.35298967       7.96579054       3.91074341       0.00742048       0.00353976       0.00502559
C        0.08356132      10.09076599       3.70520726       0.01206671      -0.00496450       0.01486210
C        7.45338101       1.56712345       3.66518085       0.00986489       0.00594702       0.00348423
C        6.21942308       3.70941655       3.62534337      -0.00423418       0.00302519       0.00750431
C        5.07231998       5.93272421       3.53583038       0.00668297      -0.00259117       0.00057035
C        3.81551708       7.98588308       3.59842602       0.00090610      -0.00239820       0.00502011
C        2.54722758      10.10889172       3.67850633       0.00418013      -0.00401918       0.00194839
C        9.93019690       1.55860661       3.84337985      -0.00857073      -0.01273704       0.00015220
C        8.68252336       3.69245920       3.82828831      -0.00207167       0.01050126       0.00572330
C        7.49498606       5.84167624       3.67694216       0.01424546       0.00110728      -0.02180308
C        6.27653701       8.00634107       3.55019408      -0.00298191      -0.00750537       0.00682333
C        5.01536981      10.11848744       3.66130263      -0.00304768       0.00884227       0.01013939
Mo       3.01212366       5.10913134       4.58921183       0.00239878      -0.00755773       0.01448110
O        0.98697400       3.32037858       6.80572557       0.01827131      -0.02581294       0.02190040
O        1.84640969       2.13505550       7.30279525       0.04728533       0.04663620      -0.06326411
H        2.50166753       2.66240790       7.80544675      -0.06379025      -0.00887360       0.03025673
