51
Lattice="12.336457 0.0 0.0 -6.168228499999997 10.683685154694365 0.0 0.0 0.0 15.0" Properties=species:S:1:pos:R:3:initial_magmoms:R:1:forces:R:3 energy=-440.5993283510651 free_energy=-440.5993283510651 stress="-0.006560198617792925 -0.005144310221814837 -1.4068080251360353e-05 -0.005144310221814837 -0.004329652114067623 1.2422884807698642e-05 -1.4068080251360353e-05 1.2422884807698642e-05 2.4625697206590555e-05" pbc="T T T"
C        0.07743207       0.05386750       3.75673213       0.00000000       0.00484508       0.00333179      -0.00587812
C       -1.18512882       2.17373656       3.60262845       0.00000000      -0.00874259      -0.00089695      -0.00295345
C       -2.39069408       4.33352952       3.65781284       0.00000000       0.00588831      -0.01134724       0.00464340
C       -3.58851672       6.47494950       3.78053079       0.00000000       0.00320998       0.01484058       0.00208851
C       -4.83011112       8.61516487       3.84419295       0.00000000      -0.01026499      -0.00370908      -0.00537629
C        2.54061976       0.08141840       3.80771430       0.00000000       0.00385332      -0.00991464       0.01008882
C        1.24614797       2.15215813       3.59297989       0.00000000      -0.01243921       0.00015977      -0.00685818
C        0.01510856       4.24986405       3.62062173       0.00000000       0.00786740      -0.00153590      -0.00472451
C       -1.10499581       6.43581001       3.87709184       0.00000000      -0.00822696       0.00012975       0.00119248
C       -2.35755003       8.60624573       3.91150630       0.00000000      -0.00749331       0.00388925      -0.01174506
C        5.00866940       0.08766361       3.82192529       0.00000000       0.01324100      -0.00312019       0.01166004
C        3.73550769       2.25884000       3.59242346       0.00000000       0.00785808      -0.00684089      -0.00952052
P        1.69161177       6.21142859       4.35140143       0.00000000       0.00423504      -0.00893066       0.01375931
C        0.09794694       8.60894665       4.04110822       0.00000000      -0.00563372       0.00591657      -0.01441831
C        7.46704234       0.08596137       3.82091923       0.00000000      -0.01041434       0.00479842       0.01058126
C        6.23661004       2.20617858       3.54004366       0.00000000       0.01291915      -0.01599477      -0.00721340
C        5.13511501       4.37899321       3.12571448       0.00000000      -0.00609481       0.00289480      -0.00938959
B        3.70007935       6.47553036       3.91086937       0.00000000      -0.00351055      -0.01784305       0.00437877
C        2.56240629       8.67953051       3.98507212       0.00000000       0.00530050       0.00271460      -0.01136150
C        9.94588019       0.07466172       3.76551436       0.00000000      -0.00230950      -0.00163447      -0.00224085
C        8.70086968       2.20035873       3.63678501       0.00000000       0.00292464      -0.00866466       0.00314925
C        7.51014218       4.34459219       3.57140956       0.00000000      -0.00555826       0.00893049       0.00080436
C        6.28424993       6.49193641       3.71094507       0.00000000       0.00273298       0.01775981       0.00007145
C        5.03576219       8.63037943       3.83653763       0.00000000       0.00405549       0.00296891      -0.00840647
C        0.04496081       1.46458151       3.65126601       0.00000000      -0.01055881      -0.00071710       0.00042612
C       -1.19090671       3.58665188       3.58817489       0.00000000       0.00732020      -0.00441377       0.00157449
C       -2.35558116       5.75441434       3.76501205       0.00000000      -0.00288187      -0.00224108       0.00310894
C       -3.59035077       7.89948751       3.85602696       0.00000000      -0.00939315       0.00907871      -0.00101901
C       -4.84621761      10.04047586       3.82162139       0.00000000       0.00084149      -0.01037539      -0.00784459
C        2.49498469       1.50803953       3.68559712       0.00000000      -0.01138438      -0.00219402       0.01395637
O        1.16374329       3.51577928       3.43884201       0.00000000      -0.00782688      -0.00129236      -0.00666706
C        0.09671026       5.62995756       3.85768262       0.00000000      -0.01493222      -0.00330515       0.00513143
C       -1.11916559       7.87350816       3.96770088       0.00000000      -0.01217238       0.00918280      -0.01536086
C       -2.38388967      10.04320525       3.86790686       0.00000000       0.01228434      -0.00069478       0.01276862
C        4.99422254       1.51786070       3.64557135       0.00000000       0.01455180      -0.00803257       0.00647870
P        3.69628800       3.63348800       2.38689053       0.00000000      -0.00794408       0.01169498      -0.00915808
C        1.35841861       7.94256450       4.15809874       0.00000000       0.00704220       0.00206335      -0.00425010
C        0.07387128      10.04769173       3.90656071       0.00000000      -0.00091601       0.00071203       0.00785041
C        7.46863672       1.49426388       3.66620552       0.00000000       0.00595531      -0.00673654       0.00377275
C        6.31301204       3.61282102       3.37342345       0.00000000       0.00349017      -0.01263578       0.00097056
C        5.05084706       5.76999816       3.58232542       0.00000000       0.01552457       0.00284291      -0.00416913
C        3.78728933       7.98158262       3.89001030       0.00000000       0.00569408      -0.00895511      -0.01183031
C        2.54061727      10.08092970       3.86151920       0.00000000      -0.00932605       0.01300822       0.01592952
C        9.93430402       1.48649605       3.66186986       0.00000000       0.00087210      -0.00377527      -0.00917072
C        8.72083164       3.62349638       3.62114153       0.00000000      -0.00206279      -0.00433643       0.00222013
C        7.51269412       5.77119617       3.68247742       0.00000000      -0.00083912       0.02096028       0.01362208
C        6.27601301       7.90928347       3.81399834       0.00000000      -0.00729546       0.00805061       0.00830359
C        5.01632421      10.04521887       3.79216413       0.00000000       0.00826143       0.00205297      -0.00282327
Mo       3.54465479       4.52424825       4.54407637       0.00000000       0.01008087       0.02606574       0.05960938
O        0.15315518       3.06187894       6.16134680       1.00000000       0.04224274       0.00397259      -0.00279087
O        1.35157349       3.29522938       6.33489404       1.00000000      -0.03487081      -0.01788206      -0.04297047
