52
Lattice="12.336457 0.0 0.0 -6.168228499999997 10.683685154694365 0.0 0.0 0.0 15.0" Properties=species:S:1:pos:R:3:forces:R:3 energy=-450.2426959714061 free_energy=-450.2426959714061 stress="8.711799769584701e-05 -0.0005802128738929237 -1.4344762748537557e-05 -0.0005802128738929237 0.0021484211318803874 -2.1588655739786578e-05 -1.4344762748537557e-05 -2.1588655739786578e-05 1.1591452733887165e-05" pbc="T T T"
C       -0.00471013       0.11789889       3.72383147       0.00358574       0.00096899      -0.00954135
C       -1.25204045       2.24357354       3.68985455       0.00896306       0.00368935       0.00097398
C       -2.48229479       4.39021624       3.70138661       0.00565412      -0.00468700      -0.00903663
C       -3.71042291       6.52882461       3.71881480       0.00069149      -0.00601050      -0.00173019
C       -4.93707526       8.67278290       3.73186730       0.00089076      -0.00247593      -0.00367835
C        2.45867045       0.17007184       3.70768746      -0.00082112      -0.00060652      -0.00564107
C        1.18898232       2.26026104       3.73626692      -0.00607385      -0.00045641       0.00834923
C       -0.04337314       4.33689669       3.85928324      -0.00355446      -0.00185246       0.01075093
C       -1.23161622       6.50715905       3.84246512       0.00618079       0.00120206       0.00590936
C       -2.47579656       8.67064496       3.76101975       0.00446046       0.00779153       0.00203908
C        4.91607819       0.12878319       3.72214830       0.00536686      -0.00533981       0.00008476
C        3.72259434       2.27256420       3.61496236       0.00093180      -0.00776978      -0.00510639
B        1.22686232       6.52877547       4.31044839      -0.01146488       0.00423449      -0.01317987
C       -0.01921677       8.67371915       3.88941570      -0.00214695      -0.00009663       0.00373817
C        7.39003412       0.11953685       3.77497032      -0.00153818      -0.00092885      -0.00222527
C        6.15871990       2.25399508       3.66424421      -0.00583921      -0.00456985      -0.00199716
C        4.93906933       4.35523513       3.75441131       0.00510695      -0.00153833       0.00271782
C        3.71540685       6.51283819       4.12888192       0.00924381      -0.00042363      -0.00531927
C        2.46322368       8.67107348       3.98616593      -0.00215654      -0.00256771       0.00940290
C        9.86011815       0.11188111       3.76966227       0.00370962      -0.00018340      -0.00409406
C        8.62322266       2.25247385       3.68308926       0.00354564       0.00414892       0.00518157
C        7.38858051       4.39304838       3.68373684      -0.01087216       0.00421776      -0.00500279
C        6.15056749       6.51729242       3.75677930      -0.01187645       0.00774790      -0.00647724
C        4.93239887       8.65529767       3.83276766      -0.00475815       0.00282234      -0.00320021
C       -0.00723475       1.54836181       3.70150221      -0.00137308      -0.00080031      -0.00526266
C       -1.25686015       3.65559745       3.70729020       0.00246358      -0.00071332       0.01031507
C       -2.47807411       5.81070542       3.74084005       0.00879679      -0.00513351      -0.00603912
C       -3.70828400       7.95753690       3.73384455       0.00555044      -0.00015783      -0.00853204
C       -4.93262832      10.10938736       3.72151333      -0.00117826      -0.00203972       0.01175131
C        2.45728191       1.62216566       3.68128504      -0.00249045      -0.00276467       0.00432998
O        1.13078288       3.62624929       3.89302454      -0.01384612      -0.00034844      -0.00349563
C       -0.01793304       5.74398424       3.98642254       0.00217812       0.00035025      -0.00085194
C       -1.24073534       7.94329885       3.83821759       0.00063164       0.00143584       0.00271918
C       -2.48579783      10.10991435       3.72929489       0.00234006       0.00579100      -0.00078842
C        4.91615710       1.55778836       3.65821118       0.00037456      -0.00954241       0.00243493
O        3.78335810       3.63927417       3.61272753      -0.00058338       0.00157870      -0.00260241
C        1.22294748       7.99978657       4.04644870      -0.00471746       0.00307686       0.01110605
C       -0.01950521      10.10107062       3.79175573       0.00217763      -0.00575732       0.00056336
C        7.38496357       1.54441366       3.69734462      -0.00160953       0.00248002      -0.00184735
C        6.15808896       3.67032115       3.67811624      -0.00444726      -0.00410729       0.00225180
C        4.90314535       5.78393887       3.88431469       0.00236752      -0.00434585       0.00727608
C        3.69329955       7.92773267       3.99644588      -0.00164397      -0.00422535       0.00453138
C        2.46022043      10.09787761       3.83814566      -0.00010524      -0.00246501      -0.00735165
C        9.85962866       1.53667249       3.70147039       0.00897245       0.00118461      -0.00309770
C        8.62112086       3.67902637       3.67245059      -0.00366810       0.00487550       0.00516185
C        7.38585023       5.81508430       3.70444739      -0.01294866       0.00561353       0.00150183
C        6.16172759       7.94573215       3.76712706      -0.00510213       0.00536522       0.01190148
C        4.92847369      10.08104759       3.77482595       0.00586232       0.00078419      -0.00642208
Mo       2.52107060       5.40655138       5.47964908       0.00440070       0.00512611       0.00796964
O        3.00548450       3.87161500       6.23232944       0.00733980      -0.00505933       0.00176954
O        3.47008850       2.27209880       6.55916912       0.00305673       0.00320061      -0.00512675
H        3.20650940       2.40634641       7.49775549      -0.00002784       0.00928139      -0.00708369
