52
Lattice="12.336457 0.0 0.0 -6.168228499999997 10.683685154694365 0.0 0.0 0.0 15.0" Properties=species:S:1:pos:R:3:forces:R:3 energy=-444.33817174549466 free_energy=-444.33817174549466 stress="-0.004824796655163826 -0.00459443121851281 6.802532523929957e-06 -0.00459443121851281 -0.005509347799146196 4.223272590747814e-05 6.802532523929957e-06 4.223272590747814e-05 -1.1697093899136649e-05" pbc="T T T"
C        0.05281709       0.08425876       3.78769402       0.00299103      -0.00017969      -0.00104323
C       -1.21035280       2.20644928       3.76439883      -0.00644559       0.00398309      -0.01306691
C       -2.41724321       4.36531582       3.78121520      -0.00080073       0.01303332       0.00266763
C       -3.61594805       6.50828226       3.80473503      -0.00778989      -0.00268232      -0.00222976
C       -4.85795994       8.64788511       3.82857116       0.00357109      -0.00446574       0.00570905
C        2.51265571       0.11301089       3.92302647       0.00226622      -0.00247579       0.00101713
C        1.21512476       2.18582151       3.94532868      -0.00348841      -0.00112450      -0.01059839
C       -0.02154914       4.26411582       4.08315774       0.00698251      -0.00532344      -0.00310711
C       -1.14028664       6.46917778       4.04215290      -0.00317968       0.00393911      -0.00238257
C       -2.38697088       8.63973353       3.97432805      -0.00033672      -0.00888872      -0.00323894
C        4.98062637       0.11857873       3.87564295      -0.00059598       0.00225735       0.00427104
C        3.70551580       2.27272365       3.67763009       0.00349769      -0.00370573       0.00622531
P        1.67411090       6.28578784       4.45407977      -0.00030119      -0.00287079       0.00815317
C        0.06925565       8.64916416       4.08017293       0.00308109       0.00226451      -0.00048624
C        7.43676408       0.12153706       3.80003732      -0.00082070      -0.00949863       0.00020168
C        6.20352689       2.23909100       3.54177140       0.01123664      -0.00051693      -0.00651800
C        5.08640678       4.40635016       3.13246152      -0.00162741      -0.00603406      -0.00123852
B        3.67651152       6.51602225       3.85898269       0.00018288       0.00234657      -0.00235833
C        2.53413615       8.71570386       3.90185450      -0.00191540       0.00514932      -0.01022006
C        9.91871331       0.10923519       3.71805717      -0.00202913      -0.00003398      -0.00957721
C        8.67243863       2.23644171       3.64885011      -0.00173986      -0.00032432       0.00051392
C        7.47995667       4.37778129       3.54958485      -0.00130076       0.00430368       0.00355054
C        6.26136965       6.52730271       3.64801277       0.00680523       0.00802560       0.01260491
C        5.00783470       8.66439269       3.72896552      -0.00680999       0.00585934       0.00430255
C        0.01741044       1.49697040       3.81021666      -0.00634243      -0.00016403      -0.00092438
C       -1.21610772       3.61343026       3.84508286      -0.00042826       0.00539364      -0.00061914
C       -2.38403602       5.78540978       3.87288020      -0.00882715       0.01112886       0.01026378
C       -3.61950723       7.93259281       3.87992201      -0.00069348      -0.01013650      -0.00016405
C       -4.87356698      10.07197046       3.86258570       0.00414785      -0.00424925       0.00607653
C        2.47402810       1.54320501       3.89513329       0.00019757       0.00082714       0.00233482
O        1.09480220       3.49897045       4.32899022       0.00199988      -0.00906541      -0.01017786
C        0.05449373       5.66285896       4.16926963      -0.00165857      -0.00128902      -0.00421475
C       -1.14885086       7.91027450       4.05414963       0.00212348      -0.00085730       0.01178169
C       -2.41151666      10.07516928       3.94545231       0.00060828      -0.00482596       0.00402216
C        4.96291966       1.54628607       3.68627556       0.00779391       0.00336663      -0.00186391
P        3.58523497       3.66059368       2.47462464      -0.00585840       0.00751192      -0.00858452
C        1.33713570       7.99188499       4.15857236       0.00583080       0.00443677      -0.00776828
C        0.04620781      10.08326644       3.92559079      -0.00429438      -0.00087391       0.00197000
C        7.43758954       1.53052238       3.65642125       0.00379496      -0.01082769      -0.00426663
C        6.27751818       3.64492864       3.35805663       0.00299465      -0.00118160      -0.00018715
C        5.02552929       5.80115724       3.54690989       0.01559184      -0.00000992       0.00766843
C        3.75648178       8.01852869       3.77314938      -0.00511455       0.00391005       0.00673220
C        2.51077878      10.11663828       3.79270206       0.00006295       0.00238988      -0.00061401
C        9.90629658       1.52194822       3.69288786      -0.00460378      -0.00075094       0.00148487
C        8.69338404       3.65925866       3.64924939       0.00052570       0.00660843       0.00295669
C        7.48700958       5.80502809       3.65384504      -0.00061293       0.00272841       0.00348926
C        6.24848251       7.94365737       3.74098970      -0.00225170       0.00877948       0.00628063
C        4.99083748      10.07922958       3.73202694      -0.00110485       0.00531047      -0.00395798
Mo       3.48137593       4.62841594       4.57686693       0.00105787       0.00419079      -0.01316771
O        3.42927922       3.03916511       6.51655901       0.00198790      -0.01304798       0.00037206
O        2.13640954       2.63553521       6.77845604      -0.01504986      -0.02164975      -0.00689240
H        1.71146123       3.48680136       7.01850715       0.00668976       0.00930955       0.01481797
