52
Lattice="12.336457 0.0 0.0 -6.168228499999997 10.683685154694365 0.0 0.0 0.0 15.0" Properties=species:S:1:pos:R:3:forces:R:3 energy=-441.90416268801994 free_energy=-441.90416268801994 stress="-0.001876102056386178 0.0006663215248134796 3.41038340714626e-05 0.0006663215248134796 -0.006206856754399843 7.145623466590567e-05 3.41038340714626e-05 7.145623466590567e-05 -5.734966893733682e-06" pbc="T T T"
C        0.02069708       0.03556289       3.68831639       0.00680682      -0.00225432      -0.01375496
C       -1.21831640       2.16308373       3.52134437      -0.00058175       0.00013838      -0.00592559
C       -2.46712401       4.29842878       3.54645361      -0.00188141      -0.00620910      -0.00724109
C       -3.67858257       6.43382482       3.67618232      -0.00242369       0.00104649       0.01419373
C       -4.92708492       8.56139148       3.67845174      -0.00059698      -0.00497249      -0.00658562
C        2.48971979      -0.00701122       3.87456403      -0.00956814      -0.00065527       0.01302492
C        1.28462286       2.17247889       3.66972877       0.00062639       0.00476450       0.00781866
C       -0.08816946       4.30860760       2.96325913       0.01163819       0.00323475      -0.00586528
C       -1.20581271       6.43723966       3.55989734       0.00068462      -0.00252279       0.00614463
C       -2.43900862       8.55650367       3.79465325       0.00375453       0.00143504       0.01414028
C        4.96162778       0.00764929       4.04589888      -0.00696773      -0.00431818       0.00001917
C        3.70015876       2.05745429       4.32798855       0.00157570      -0.00356629       0.00894636
B        1.37428651       6.40046896       3.79839060      -0.01262430       0.01170005      -0.00109254
C        0.03383924       8.56892374       3.85362388       0.00553324       0.00945279      -0.00146332
C        7.41797316       0.04979801       3.96829856       0.00329094       0.00460842       0.00125867
C        6.19559171       2.16741702       4.19690479       0.00231093      -0.00321110       0.00112412
C        5.02539533       4.35958218       4.26498257      -0.00027332       0.00393538      -0.01925228
S        3.46176646       6.27473352       3.10873804      -0.00031447       0.00489151       0.01080464
C        2.47954407       8.63496000       3.73144538      -0.00043365       0.00156673      -0.00724571
C        9.89341763       0.05280080       3.75835378      -0.00216200       0.00313828      -0.00984060
C        8.65426991       2.17376430       3.84829973       0.00147571      -0.00264575       0.00369398
C        7.43094786       4.30534958       3.91039368       0.00514443      -0.01357143      -0.01023075
C        6.17677727       6.43422862       3.68590717       0.00250508      -0.00689778      -0.00395975
C        4.94444797       8.58001662       3.58784364      -0.00070744       0.00237583       0.00521531
C        0.01553338       1.46063476       3.61458802       0.00326366      -0.00008231      -0.00644476
C       -1.26910350       3.56712190       3.31257420       0.00079548       0.00003492      -0.01666142
C       -2.44591159       5.72433338       3.58445108      -0.00409342      -0.00478625       0.01515339
C       -3.68139447       7.85420233       3.70630315       0.00199624       0.00527326       0.00203137
C       -4.91883292       9.98432066       3.73442247       0.00026197      -0.00522802      -0.00630866
C        2.50006410       1.40453842       3.97779196      -0.00488284       0.00039809       0.01782587
P        1.43821715       3.50480350       2.39696112       0.00202490       0.01243825      -0.01049953
C        0.02290514       5.71820996       3.35687895       0.00778378       0.00446156      -0.00148223
C       -1.20360071       7.84519464       3.75987395       0.00755791       0.00085451       0.00241028
C       -2.43959275       9.97325751       3.92025692      -0.00988893       0.00080406      -0.00468741
C        4.96718237       1.42637027       4.22377350       0.00047696      -0.00701051      -0.00566478
P        3.56146030       3.69161099       4.99025174       0.00146305       0.01278657      -0.00789795
C        1.27988896       7.90847460       3.79074413       0.00066951       0.00573645       0.00444316
C        0.02470449      10.00195604       3.97166222       0.00148189       0.00731012       0.00582110
C        7.42150980       1.46955940       4.02589146       0.00229674       0.00292419      -0.00827338
C        6.21952583       3.59455890       4.16722075       0.00212985      -0.00089885       0.00016418
C        4.98285609       5.67325911       3.77031170      -0.00788312       0.01096551      -0.00155651
C        3.68991784       7.94399311       3.51608100      -0.00072700       0.00412366       0.00485771
C        2.48807519      10.05070794       3.84007553      -0.00012928      -0.00057833       0.00087194
C        9.88495454       1.46685482       3.71913152      -0.00337000       0.00016649      -0.00853694
C        8.65291293       3.59401327       3.77849967       0.00365444      -0.01096949      -0.00052139
C        7.42179385       5.72464802       3.75857257       0.00472219      -0.01075366       0.00977739
C        6.17403230       7.85313925       3.60400985      -0.00127445      -0.00790263       0.01436924
C        4.95376477      10.01436901       3.67403112       0.00334612       0.00381627      -0.00059663
Mo       1.38974337       4.38266997       4.52865981      -0.00642827       0.00777312       0.00345756
O        1.45930353       3.29598768       7.03802559      -0.00217754      -0.00350100       0.01168368
O        1.34004973       4.27900016       7.99680176      -0.00186166      -0.01638260       0.00225613
H        2.22775113       4.69693303       8.01676042      -0.00801987      -0.01323703      -0.00991839
