51
Lattice="12.336457 0.0 0.0 -6.168228499999997 10.683685154694365 0.0 0.0 0.0 15.0" Properties=species:S:1:pos:R:3:initial_magmoms:R:1:forces:R:3 energy=-438.78290059119104 free_energy=-438.78290059119104 stress="-0.00508652772045741 -0.0004155561896667573 1.3815968212715669e-05 -0.0004155561896667573 -0.00681267956229655 -3.252920162096252e-06 1.3815968212715669e-05 -3.252920162096252e-06 1.73341263372328e-05" pbc="T T T"
C       -0.12932777       0.01274273       3.52059490       0.00000000       0.01364329       0.00187088       0.00366590
C       -1.35579649       2.16531144       3.37015100       0.00000000       0.00026431       0.00181752       0.00918192
C       -2.60282367       4.30250501       3.61295548       0.00000000      -0.00555359       0.01291250       0.00286100
C       -3.83649623       6.42978378       3.77879289       0.00000000       0.00263487      -0.00154656      -0.00348354
C       -5.06802959       8.55772662       3.72536469       0.00000000       0.00475610      -0.00315711       0.00537459
C        2.34203063      -0.02166498       3.55531434       0.00000000      -0.00644481       0.00602148      -0.00665955
C        1.11299093       2.03404368       3.05481631       0.00000000       0.00540854      -0.00813715       0.00572580
C       -0.21551308       4.35947084       3.29564182       0.00000000      -0.00294654       0.00100591       0.00358066
C       -1.37042838       6.43009376       3.91195753       0.00000000       0.00368893       0.00463319      -0.00816312
C       -2.59040869       8.56105959       3.89104506       0.00000000       0.00288390       0.00774876      -0.00347778
C        4.80905030       0.02725549       3.73055038       0.00000000      -0.00361610      -0.00684652      -0.01651636
C        3.56649586       2.11175420       3.16142717       0.00000000       0.00198503       0.00895113      -0.01404190
P        1.39709428       6.20996110       4.45713284       0.00000000      -0.00814423       0.01208594       0.00242862
C       -0.12271057       8.58785420       4.07348620       0.00000000       0.00575073      -0.01272319      -0.01003478
C        7.27171123       0.05292883       3.81089146       0.00000000      -0.00736940       0.00116841      -0.01549838
C        6.04791692       2.15201372       3.48024380       0.00000000      -0.00453563       0.00269891       0.00519685
C        4.91228760       4.31137168       3.05169165       0.00000000       0.00355966      -0.00042879       0.01490403
B        3.47857633       6.41900009       3.68184430       0.00000000      -0.00693719      -0.00413924      -0.00134007
C        2.34844232       8.64979213       3.94783028       0.00000000      -0.00697719      -0.00183534       0.00455692
C        9.75161209       0.05255463       3.66284420       0.00000000       0.00134333      -0.01240690      -0.00251199
C        8.51415968       2.16848517       3.59717334       0.00000000       0.00769254       0.00258260      -0.00454556
C        7.28491967       4.29650893       3.57631275       0.00000000      -0.00225776      -0.00583559      -0.00329332
C        6.03456181       6.43195574       3.61282415       0.00000000       0.00056463      -0.00245562       0.01363114
C        4.80560287       8.58533192       3.69748913       0.00000000      -0.00449055       0.00728039      -0.00721110
C       -0.13502367       1.42876618       3.30817665       0.00000000       0.00477959      -0.00140566       0.00572915
C       -1.38394543       3.58667810       3.39649586       0.00000000      -0.00772933       0.00799419       0.00633930
C       -2.60227393       5.72057349       3.77777855       0.00000000       0.00369123       0.01042725      -0.00765886
C       -3.83065246       7.85158112       3.81565842       0.00000000       0.00730461      -0.00038560       0.00605701
C       -5.06653316       9.97539031       3.61536199       0.00000000       0.00543930      -0.00311565      -0.00655357
C        2.33518478       1.36643198       3.23417538       0.00000000       0.00455406       0.00618883       0.00968301
S        1.18224853       3.67601837       2.50960368       0.00000000       0.00336430      -0.00312062       0.00738034
C       -0.16584304       5.66806509       3.80472850       0.00000000      -0.00300550      -0.00328177       0.01586516
C       -1.35795562       7.85488557       4.01307884       0.00000000       0.00429172       0.00091506      -0.00611939
C       -2.59028585       9.97828255       3.75406337       0.00000000      -0.01109829       0.00583182      -0.01532143
C        4.81487920       1.43346658       3.46381395       0.00000000      -0.00078340       0.00023298       0.00211553
P        3.73852928       3.45430192       1.90517303       0.00000000       0.00329621      -0.00440934      -0.00030754
C        1.13661732       7.94568562       4.18824084       0.00000000       0.00231406      -0.00508793       0.00232401
C       -0.12844393      10.01512391       3.89850113       0.00000000      -0.00198911      -0.00951367       0.00702468
C        7.27991170       1.45763949       3.64377677       0.00000000       0.00073360       0.00962653       0.00703214
C        6.09213548       3.56202147       3.36284806       0.00000000      -0.00444539      -0.00039469       0.00231214
C        4.81107522       5.70744303       3.43495701       0.00000000       0.00203399      -0.00085724       0.00492094
C        3.55745158       7.92669058       3.77201607       0.00000000      -0.00825464       0.00259708      -0.00549644
C        2.34600796      10.05540164       3.82762906       0.00000000      -0.00828673      -0.00526982       0.00001142
C        9.75670019       1.46795475       3.54827404       0.00000000       0.00437444      -0.01111696      -0.01034614
C        8.51172172       3.58757512       3.60684465       0.00000000       0.00047233       0.00411145       0.00362284
C        7.27108217       5.72148567       3.65832247       0.00000000       0.00187312      -0.00740790      -0.00218692
C        6.03512628       7.85423201       3.68750375       0.00000000      -0.00163203       0.00297633      -0.00057718
C        4.80843653      10.00917960       3.63866558       0.00000000       0.01093089       0.00497747      -0.00156010
Mo       2.96737294       4.37254599       3.89785820       0.00000000      -0.00713191      -0.01177774       0.00137993
O        4.99673900       4.18444726       9.73470408       1.00000000       0.00980050      -0.00113925       0.00243074
O        6.18961576       4.04578188      10.03056387       1.00000000      -0.00980050       0.00113925      -0.00243074
