51
Lattice="12.336457 0.0 0.0 -6.168228499999997 10.683685154694365 0.0 0.0 0.0 15.0" Properties=species:S:1:pos:R:3:initial_magmoms:R:1:forces:R:3 energy=-437.7013664481071 free_energy=-437.7013664481071 stress="-0.0009684511040451221 -0.00039405108133361625 -4.967199594797639e-08 -0.00039405108133361625 -0.004770993958943165 -1.7858844276658101e-06 -4.967199594797639e-08 -1.7858844276658101e-06 -2.4850052385204794e-06" pbc="T T T"
C       -0.16634509       0.01026328       3.88123335       0.00000000       0.00347298      -0.00261734      -0.00284962
C       -1.40211454       2.16833744       4.01741310       0.00000000      -0.00406547      -0.00894761       0.00365204
C       -2.64085227       4.30653269       3.74830076       0.00000000       0.00011649      -0.00766000      -0.00744154
C       -3.86747668       6.43611648       3.53419323       0.00000000       0.00134505       0.00102089      -0.00260212
C       -5.10687848       8.55674389       3.64812201       0.00000000       0.00563387       0.00320926       0.00562674
C        2.30667938       0.00088655       3.71830564       0.00000000      -0.00110128       0.00002745      -0.00885836
C        1.09329517       2.07308998       4.14983725       0.00000000      -0.00683202       0.00412077      -0.00044225
C       -0.23613243       4.36016437       4.11493764       0.00000000       0.00360411       0.00599852      -0.00846738
C       -1.38412069       6.43612573       3.54685983       0.00000000      -0.00059884      -0.00215654      -0.00514730
C       -2.61695852       8.56330597       3.53228158       0.00000000       0.00653485      -0.00638781       0.00082574
C        4.77526100       0.03948249       3.53612319       0.00000000      -0.00788320       0.00242165       0.00376039
C        3.52557396       2.18867173       3.55748058       0.00000000      -0.00044318      -0.00615209      -0.00442869
S        1.35717572       6.26239539       2.99821919       0.00000000       0.00671303      -0.00436166      -0.00628328
C       -0.14917209       8.57788386       3.44115973       0.00000000      -0.00069874      -0.00082762       0.00284678
C        7.23853527       0.05140585       3.57670063       0.00000000      -0.00088797       0.00020295       0.00062044
C        6.01081207       2.16355140       3.34196373       0.00000000       0.00538133       0.00426386       0.00333292
C        4.88891547       4.30236522       2.76925404       0.00000000      -0.00193610       0.00073909       0.00072960
B        3.41077807       6.38151538       3.67727642       0.00000000      -0.00225652      -0.00102265      -0.00161130
C        2.31521559       8.62978740       3.59334773       0.00000000      -0.00062899       0.00354448      -0.00323658
C        9.71336629       0.04919673       3.79236312       0.00000000       0.00356568       0.00389167       0.00268909
C        8.47812119       2.17504585       3.65399966       0.00000000      -0.00190431      -0.00359883       0.00486111
C        7.25770687       4.30102710       3.37574891       0.00000000      -0.00002564      -0.00040947       0.00314984
C        5.99148448       6.43151096       3.41531477       0.00000000       0.00107857       0.00355814      -0.00308206
C        4.75828995       8.56487331       3.71644774       0.00000000      -0.00496459       0.00159919       0.00493159
C       -0.17145618       1.43120609       4.05002478       0.00000000      -0.00277545      -0.00687990      -0.00383788
C       -1.42928524       3.59541070       4.00281851       0.00000000       0.00403019      -0.00596862      -0.00286866
C       -2.63192072       5.72702976       3.61328146       0.00000000      -0.00076542      -0.00388993      -0.00676847
C       -3.86369249       7.85595002       3.56300979       0.00000000       0.00597458       0.00089299      -0.00241833
C       -5.10260493       9.97671256       3.76318428       0.00000000       0.00542935       0.00068193      -0.00024912
C        2.29721624       1.41725680       3.82619244       0.00000000      -0.00723544       0.00141030      -0.00360902
P        1.24010253       3.69957238       4.82321929       0.00000000       0.00580975       0.00755458       0.01409460
C       -0.19018197       5.67549562       3.63612538       0.00000000       0.00278061       0.00799444      -0.00246900
C       -1.38182641       7.85481498       3.46437158       0.00000000       0.00395722      -0.00523699      -0.00427459
C       -2.62308655       9.98901526       3.58253752       0.00000000      -0.00355707      -0.00502312      -0.00387808
C        4.78599156       1.46936305       3.48157992       0.00000000       0.00312510       0.00462769       0.00094819
S        3.41896365       3.46221003       2.22774468       0.00000000      -0.00083299       0.00349668      -0.00162724
C        1.10539863       7.93983098       3.38211146       0.00000000       0.00003843       0.00001699       0.00429735
C       -0.15733407      10.01425365       3.51110160       0.00000000      -0.00727393       0.00226789      -0.00630828
C        7.24624056       1.46757178       3.52549871       0.00000000       0.00195687      -0.00076818       0.00332795
C        6.05800866       3.56784620       3.12571510       0.00000000      -0.00175479       0.00376753       0.01490425
C        4.75441390       5.69829565       3.19771579       0.00000000       0.00006534      -0.00312206       0.01211760
C        3.51295456       7.89782648       3.67215073       0.00000000      -0.00467781      -0.00219088       0.00945501
C        2.30730308      10.04814343       3.67090996       0.00000000       0.00383614       0.00445454       0.00457420
C        9.71026799       1.46982644       3.83564450       0.00000000      -0.00540213      -0.00073746       0.01107046
C        8.47634293       3.59395078       3.60049411       0.00000000      -0.00174613      -0.00608394      -0.00409237
C        7.23318807       5.72534032       3.43477263       0.00000000       0.00044465      -0.00013886      -0.00027274
C        5.99322796       7.84159079       3.61954524       0.00000000      -0.00022333       0.00660527      -0.00724958
C        4.76920823      10.00067548       3.81330564       0.00000000       0.00119263       0.00275743       0.00072217
Mo       3.47160159       4.34139205       4.41130150       0.00000000      -0.00630849       0.00310929      -0.00945220
O        6.24059369       4.11985683       9.52928678       1.00000000      -0.00140278       0.00048258       0.00082725
O        7.41055276       3.82145095       9.79636636       1.00000000       0.00209583      -0.00053646       0.00046077
