51
Lattice="12.336457 0.0 0.0 -6.168228499999997 10.683685154694365 0.0 0.0 0.0 15.0" Properties=species:S:1:pos:R:3:initial_magmoms:R:1:forces:R:3 energy=-442.9840719532971 free_energy=-442.9840719532971 stress="-0.004319606713096715 -0.004437140827627729 9.51956622604148e-06 -0.004437140827627729 -0.005229724009678216 -6.003166089274746e-07 9.51956622604148e-06 -6.003166089274746e-07 -8.867755155764243e-06" pbc="T T T"
C       -0.04818705      -0.09414990       3.63009704       0.00000000      -0.00193854      -0.00085441      -0.00280310
C       -1.31903748       2.02224354       3.88739443       0.00000000       0.00127074       0.00516535       0.00859773
C       -2.55728326       4.16972184       3.77527729       0.00000000      -0.00122774      -0.01228406      -0.00956134
C       -3.73564799       6.31413883       3.55008550       0.00000000       0.00206634       0.00007176      -0.01245701
C       -4.95852434       8.46281573       3.47810420       0.00000000       0.00515776       0.00555600      -0.00018404
C        2.42796141      -0.12068991       3.60137231       0.00000000      -0.00777275      -0.00339408       0.00187579
C        1.18370347       1.96222328       4.03624467       0.00000000       0.00538542      -0.01294172       0.00292424
C       -0.18574692       4.18120118       4.30901625       0.00000000       0.00221176      -0.00329302      -0.00441556
C       -1.28903123       6.30207312       3.79518425       0.00000000       0.00308764      -0.00573405       0.00327275
C       -2.49273285       8.43454423       3.56992763       0.00000000       0.00374612       0.00869846      -0.00225413
C        4.88911091      -0.10628836       3.48218517       0.00000000      -0.00500807      -0.00638977      -0.00035875
C        3.60243750       1.97789068       3.32488228       0.00000000       0.00613218      -0.01604132       0.00476771
B        1.24425858       6.26249110       3.96686272       0.00000000       0.00480254      -0.00189218       0.00567662
C       -0.02710962       8.43112620       3.62098077       0.00000000      -0.00092121       0.01308642       0.01202896
C        7.34639427      -0.09509721       3.48476884       0.00000000      -0.00317048       0.00337725       0.00244926
C        6.08835405       2.05918622       3.36942377       0.00000000       0.00349690       0.00403126       0.01281844
C        4.88601093       4.26209759       3.27463910       0.00000000      -0.00607486       0.00728344      -0.00242338
N        3.75915001       6.39013511       3.37626789       0.00000000      -0.00498044      -0.00941309       0.00467122
C        2.44113610       8.44916791       3.53472903       0.00000000      -0.00585141      -0.00907158      -0.00392242
C        9.81420893      -0.09068591       3.54591876       0.00000000       0.00088895       0.00527193      -0.00567162
C        8.56059174       2.04220986       3.57696194       0.00000000      -0.00637033       0.00271733       0.00569639
C        7.33297899       4.18631330       3.47475649       0.00000000       0.00555068       0.00541383      -0.00853838
C        6.16971850       6.36636002       3.32505608       0.00000000       0.00465841       0.00253368      -0.00280840
C        4.91458692       8.47853456       3.40045851       0.00000000       0.00163144      -0.01010900      -0.00563142
C       -0.06743069       1.31229726       3.86564267       0.00000000       0.00346662      -0.00270001       0.00243423
C       -1.35564913       3.43910397       4.01434083       0.00000000       0.00223479      -0.00048509      -0.00772151
C       -2.52592070       5.59431146       3.71151943       0.00000000      -0.00052467      -0.00904890      -0.01491466
C       -3.72791698       7.73682128       3.52696112       0.00000000       0.00632660       0.00140713      -0.00135417
C       -4.97663085       9.87618842       3.57693832       0.00000000      -0.00394781       0.00098406      -0.00605567
C        2.40671499       1.30181025       3.68136931       0.00000000      -0.00130313      -0.01354437      -0.00952243
P        1.19563517       3.38535096       5.10716348       0.00000000      -0.01428046       0.00616964      -0.00038966
C       -0.10148299       5.56618259       4.04787106       0.00000000       0.00473703      -0.00232523       0.01104326
C       -1.26109317       7.71862407       3.65604538       0.00000000       0.00510774       0.00495685      -0.00046152
C       -2.50362754       9.85880539       3.53757246       0.00000000      -0.00728751       0.00691545      -0.00407432
C        4.86233038       1.32845145       3.37239312       0.00000000       0.00252971      -0.00836543       0.00012536
S        3.45432899       3.53895603       2.52016140       0.00000000       0.00147287       0.00994435      -0.00529497
C        1.22522611       7.73924061       3.68543356       0.00000000      -0.00863183       0.00032091       0.01242805
C       -0.04358819       9.86396885       3.51418974       0.00000000      -0.00365262       0.00861757      -0.00323431
C        7.32579644       1.33868230       3.46083341       0.00000000      -0.00401126      -0.00001056       0.01123863
C        6.09116953       3.48276014       3.37309398       0.00000000       0.00513858       0.00629343       0.00581553
C        4.94484824       5.70133844       3.29058908       0.00000000       0.00593498       0.00130921      -0.00070922
C        3.69159544       7.75404086       3.43147790       0.00000000      -0.00038659      -0.01407611      -0.00550769
C        2.42114978       9.87923014       3.49977508       0.00000000      -0.00148309       0.00030276       0.00481122
C        9.79924495       1.32719306       3.66523615       0.00000000      -0.00073974       0.01363377      -0.00322285
C        8.55604911       3.46497023       3.60575059       0.00000000      -0.00062187      -0.00278954       0.00042682
C        7.37027718       5.61379858       3.44136564       0.00000000      -0.00022363       0.00579845      -0.00327458
C        6.14998441       7.77795826       3.37671766       0.00000000       0.00705567       0.00330050       0.00091786
C        4.89019014       9.89053674       3.51616994       0.00000000      -0.00131460      -0.00276854      -0.00033555
Mo       2.84565534       4.83589726       4.29499188       0.00000000      -0.00242064       0.01425339       0.01272008
O        3.68314996       6.65076999       9.82408730       1.00000000      -0.00339156      -0.00670499      -0.00137637
O        4.22654687       7.72689197      10.09908830       1.00000000       0.00344535       0.00682289       0.00173883
