52
Lattice="12.336457 0.0 0.0 -6.168228499999997 10.683685154694365 0.0 0.0 0.0 15.0" Properties=species:S:1:pos:R:3:initial_magmoms:R:1:forces:R:3 energy=-455.9692869095862 free_energy=-455.9692869095862 stress="-0.0077744292554942675 0.0012378982373308402 5.3725943662578005e-06 0.0012378982373308402 -0.009081138262680004 -5.907150153474765e-06 5.3725943662578005e-06 -5.907150153474765e-06 -1.6263862830877757e-05" pbc="T T T"
C        0.04891057       0.10307857       3.64763080       0.00000000       0.00086485      -0.00077946      -0.00173872
C       -1.18636369       2.22892511       3.70282526       0.00000000       0.00019000      -0.00006108      -0.00045573
C       -2.42274923       4.36865343       3.74682363       0.00000000       0.00020155      -0.00004364       0.00140880
C       -3.65185985       6.50760049       3.70839269       0.00000000       0.00046087       0.00088242      -0.00311790
C       -4.88312597       8.64870729       3.63622763       0.00000000      -0.00104858      -0.00088331       0.00113955
C        2.51163840       0.09523203       3.75813926       0.00000000       0.00073659      -0.00143379       0.00019393
C        1.27889798       2.23047129       3.78468009       0.00000000       0.00029018      -0.00057432      -0.00193379
C        0.01848841       4.35077340       3.88386658       0.00000000       0.00007176      -0.00075938       0.00063873
C       -1.19254315       6.50746564       3.88681694       0.00000000      -0.00128718       0.00168957       0.00175165
C       -2.42499549       8.64445320       3.80784237       0.00000000       0.00025534       0.00203889       0.00348902
C        4.97869499       0.09480814       3.82477186       0.00000000      -0.00128539      -0.00037360      -0.00196229
C        3.75359005       2.21189904       3.81225608       0.00000000      -0.00055331      -0.00197607      -0.00013052
B        2.52984502       4.43818348       4.05408753       0.00000000       0.00239033       0.00077841      -0.00136295
B        1.34882588       6.48030240       4.13911238       0.00000000      -0.00024551      -0.00005999       0.00061802
C        0.03079651       8.65920511       3.90826792       0.00000000       0.00113094       0.00024148      -0.00100921
C        7.44101118       0.11337420       3.78531673       0.00000000      -0.00120239      -0.00060222       0.00234084
C        6.22792606       2.21588488       3.75233262       0.00000000      -0.00164179       0.00005051       0.00022923
C        5.02343238       4.30274340       3.64487024       0.00000000      -0.00154546       0.00380358      -0.00048534
P        3.50169726       6.37738302       2.53940855       0.00000000       0.00055650       0.00125011       0.00027897
C        2.47628192       8.70695250       3.72550167       0.00000000       0.00330291      -0.00063398       0.00146389
C        9.92046890       0.11047404       3.66112885       0.00000000      -0.00031109       0.00112811      -0.00245805
C        8.68892036       2.23486580       3.70834866       0.00000000       0.00062163      -0.00042010       0.00623644
C        7.46630566       4.36626940       3.66129596       0.00000000       0.00010111      -0.00285057      -0.00043683
C        6.23462806       6.51189825       3.51416761       0.00000000       0.00016809      -0.00088161       0.00293279
C        4.99247617       8.65643551       3.52516525       0.00000000      -0.00043264      -0.00058070       0.00258535
C        0.04506650       1.51775337       3.69599137       0.00000000      -0.00015971      -0.00068244      -0.00033951
C       -1.20452161       3.64481209       3.77306739       0.00000000      -0.00037366      -0.00045385       0.00126143
C       -2.42656172       5.79488518       3.78445064       0.00000000       0.00010213       0.00080746      -0.00372272
C       -3.65669676       7.93438026       3.71796898       0.00000000       0.00021097       0.00164397       0.00085036
C       -4.88720987      10.06795408       3.67910013       0.00000000       0.00083004      -0.00134098       0.00126993
C        2.51268900       1.51407579       3.78835304       0.00000000      -0.00022016      -0.00197176       0.00285659
C        1.24768782       3.63885198       3.89421135       0.00000000       0.00112930      -0.00040528       0.00371627
C        0.01653543       5.76951529       3.96900363       0.00000000      -0.00144890      -0.00009887       0.00110197
C       -1.19577851       7.93690516       3.88806419       0.00000000       0.00056017       0.00179994      -0.00447760
C       -2.42558228      10.06731991       3.80350198       0.00000000       0.00031107       0.00058659      -0.00334572
C        4.98982476       1.50815506       3.79840505       0.00000000      -0.00112300      -0.00131885      -0.00169627
C        3.79998473       3.62738299       3.83827168       0.00000000       0.00152440      -0.00102067       0.00180310
C        1.27977842       7.98792436       3.93899035       0.00000000       0.00213962       0.00005248      -0.00272946
C        0.03996117      10.08075549       3.84542770       0.00000000      -0.00163909      -0.00014650       0.00072473
C        7.45550028       1.52278810       3.75098777       0.00000000      -0.00062407      -0.00018383      -0.00142466
C        6.25150777       3.62954292       3.67213397       0.00000000      -0.00245375       0.00109743       0.00467157
C        5.00406383       5.74068472       3.44620797       0.00000000      -0.00198979       0.00413637      -0.00336723
C        3.70690757       7.97123519       3.49722089       0.00000000       0.00187674      -0.00034093      -0.00174726
C        2.50898918      10.10847780       3.72120699       0.00000000       0.00028719      -0.00023047      -0.00135205
C        9.91977321       1.52524313       3.68126832       0.00000000       0.00050060       0.00086059       0.00356237
C        8.68819484       3.65646774       3.70159398       0.00000000       0.00092370      -0.00139027       0.00104646
C        7.45641927       5.79557079       3.62447087       0.00000000       0.00104907      -0.00228435      -0.00124172
C        6.21234840       7.93105372       3.53314304       0.00000000      -0.00100385      -0.00149777      -0.00180098
C        4.98523524      10.07354314       3.60596750       0.00000000      -0.00033569       0.00049488      -0.00203936
Mo       3.33566962       6.23422490       4.80268103       0.00000000       0.00336694      -0.00285854      -0.02443238
O        0.79881942       1.50068150       6.56518812       1.00000000       0.00123996      -0.00288085       0.00519481
O       -0.01704662       2.41820899       6.55999199       1.00000000      -0.00646951       0.00867726       0.01544145
