52
Lattice="12.336457 0.0 0.0 -6.168228499999997 10.683685154694365 0.0 0.0 0.0 15.0" Properties=species:S:1:pos:R:3:forces:R:3 energy=-444.3468701506982 free_energy=-444.3468701506982 stress="-0.0022472633295930414 -0.004208500917198237 -4.682463609368246e-05 -0.004208500917198237 -0.0035113915410425766 6.6183185505502745e-06 -4.682463609368246e-05 6.6183185505502745e-06 7.218864159663376e-06" pbc="T T T"
C       -0.01342088      -0.11151996       3.91348338      -0.00542650       0.00308551       0.01381559
C       -1.28273604       2.00553549       4.14799726      -0.00759840      -0.00690073      -0.00855428
C       -2.51878986       4.15331463       4.01732835      -0.00039050       0.00137431       0.01558541
C       -3.69801232       6.29902043       3.82746159      -0.00690018       0.00232627       0.00778287
C       -4.92411960       8.44496035       3.78778020       0.00098421      -0.00300866      -0.01434681
C        2.46619040      -0.13303924       3.87817829      -0.00959239      -0.01207196       0.00171236
C        1.22027985       1.93311870       4.33253169       0.00490052       0.00399317       0.00966810
C       -0.15011923       4.16839384       4.58322727      -0.00370856       0.00207676      -0.00836127
C       -1.24818808       6.28904805       4.04871779      -0.00299727       0.00059125      -0.00427897
C       -2.45250835       8.42411030       3.83267644       0.00509295       0.00036060       0.00070679
C        4.92667290      -0.11479244       3.69617466      -0.00405055      -0.00035240      -0.00393869
C        3.63063278       1.97973834       3.57034418       0.00145615      -0.00443939       0.01791898
B        1.27815859       6.26128881       4.22998169       0.01235351       0.00462008      -0.00120495
C        0.01841994       8.41712047       3.82186294      -0.00193886       0.00256654       0.01050121
C        7.38720155      -0.10781139       3.66827272       0.00071090      -0.00051377       0.00790767
C        6.13059256       2.04751864       3.55943295       0.00481428      -0.00206128       0.00923121
C        4.91965531       4.26283680       3.42868971      -0.00015593       0.00423706       0.00992313
O        3.78226391       6.39339924       3.36589699      -0.00961629      -0.00102655      -0.00114800
C        2.48747129       8.42913677       3.67598784      -0.00132132       0.00219079      -0.00938401
C        9.85353457      -0.10620356       3.76407114      -0.00638865      -0.00019104       0.00787938
C        8.60030493       2.02744859       3.78941888      -0.00409695       0.00135619       0.00621719
C        7.36853212       4.17338168       3.69263351       0.00571441      -0.00535867      -0.00080437
C        6.20105901       6.34966872       3.64901356      -0.00191101       0.00267526       0.01362390
C        4.94987719       8.46311119       3.63215631       0.00240913       0.00572540      -0.01490940
C       -0.03338535       1.29314862       4.14776953       0.00041082       0.00781292       0.00143580
C       -1.31633346       3.42510936       4.27185660      -0.00025279      -0.00618323      -0.01376287
C       -2.48526233       5.57893489       3.96371344      -0.00684681       0.00257362       0.00487452
C       -3.68832105       7.72273330       3.82040273       0.00417281       0.00291543      -0.00937039
C       -4.93734155       9.86057226       3.87048079      -0.01125662      -0.00690516      -0.00591786
C        2.44500910       1.28142742       3.94400010      -0.00097863      -0.01149339       0.00749916
P        1.24694401       3.38336516       5.35505678       0.00089068       0.00280675       0.00099763
C       -0.06149313       5.55709834       4.31344272       0.00333340       0.00469265      -0.00447869
C       -1.21859648       7.70645882       3.89619767       0.00179033      -0.00116851      -0.00352197
C       -2.46386653       9.84731282       3.79012703      -0.00330661      -0.00326340      -0.00290661
C        4.89693355       1.31893627       3.58096302       0.00100011      -0.00219308      -0.00460947
P        3.36607034       3.60631241       2.82390355       0.01244500      -0.00077760      -0.00316926
C        1.26624352       7.71751010       3.87115538       0.00036838       0.00249409       0.00134651
C       -0.00677616       9.85457436       3.70643021      -0.00225293       0.00121162      -0.00024662
C        7.36868147       1.32461593       3.65519817       0.00254626      -0.00154383      -0.00315993
C        6.13621734       3.47619195       3.53874521       0.00610176      -0.00282948       0.00135240
C        4.99332843       5.68006502       3.53960202      -0.00327343       0.00800070      -0.00688247
C        3.73668551       7.78264082       3.55512908      -0.00085253       0.00379902       0.00458998
C        2.46225507       9.86266617       3.67553219      -0.00126348       0.00115294      -0.00221811
C        9.83845040       1.31412927       3.89717768      -0.01238537      -0.00321691      -0.00430613
C        8.59440548       3.45123653       3.83013716       0.00723845       0.00037203      -0.00613917
C        7.40757419       5.59800727       3.72419025      -0.00278103      -0.00408473      -0.00627017
C        6.19124740       7.75973971       3.68066558       0.00105215       0.00168599       0.00104863
C        4.92707720       9.87765056       3.76801434      -0.00188549       0.00527425      -0.00865805
Mo       3.00335047       4.98051655       4.69443204      -0.00245586       0.00595875      -0.00537290
O        4.03269248       5.92170489       6.17079744       0.00718314      -0.00843542       0.01303888
O        3.27860392       7.16800836       6.40458774       0.01439115       0.00619839      -0.00721210
H        2.79958243       6.92953016       7.22464655       0.01452443      -0.00610914      -0.00352376
