51
Lattice="12.336457 0.0 0.0 -6.168228499999997 10.683685154694365 0.0 0.0 0.0 15.0" Properties=species:S:1:pos:R:3:initial_magmoms:R:1:forces:R:3 energy=-441.9567197781843 free_energy=-441.9567197781843 stress="-0.0021337867703438733 -0.004029797135047289 1.6327020519983295e-06 -0.004029797135047289 -0.0003735539154607735 2.1257869955818172e-05 1.6327020519983295e-06 2.1257869955818172e-05 -3.682654656001127e-05" pbc="T T T"
C       -0.02019078      -0.04206447       3.74111792       0.00000000       0.00207154       0.00072129      -0.00994697
C       -1.28235296       2.05953754       3.52003284       0.00000000       0.00049265       0.00010051      -0.00134177
C       -2.54226478       4.20460888       3.56351621       0.00000000       0.00177259       0.01129589      -0.00645969
C       -3.72755800       6.35108783       3.72992403       0.00000000      -0.00333397       0.01193635       0.00040416
C       -4.94499197       8.49328242       3.77686184       0.00000000       0.00138425       0.00149220       0.00641954
C        2.45579398      -0.07530453       3.82354666       0.00000000      -0.00525002      -0.00333133      -0.00082285
C        1.21904139       2.08889280       3.60874531       0.00000000       0.00777894      -0.00044158      -0.00204343
C       -0.15459671       4.20331181       3.08389189       0.00000000       0.00788761      -0.00346857      -0.00333693
C       -1.26523157       6.33564845       3.65660919       0.00000000      -0.00027622      -0.00186959       0.00381208
C       -2.46577624       8.47233658       3.83079513       0.00000000       0.00064150       0.00276920       0.00273212
C        4.92318194      -0.07408608       3.91022507       0.00000000      -0.00236944       0.00065041      -0.00402133
C        3.66417561       2.06354428       3.93361131       0.00000000      -0.00244010      -0.00107144       0.00753477
B        1.20432781       6.24766824       4.02152301       0.00000000      -0.00071628      -0.00317354      -0.00452684
C        0.01484537       8.45135792       3.90142616       0.00000000      -0.00193049      -0.00153368      -0.00780353
C        7.38031413      -0.06814976       3.86828465       0.00000000       0.00452465       0.00165766       0.00070227
C        6.12070944       2.09827353       3.89127776       0.00000000      -0.00545855      -0.00117226      -0.00692757
C        4.88290983       4.30896623       3.89227923       0.00000000      -0.00701441      -0.00171256       0.00038326
O        3.75927953       6.43422383       3.63693104       0.00000000      -0.00209995      -0.00600851       0.00793944
C        2.48560900       8.45945333       3.85759798       0.00000000      -0.00109501      -0.00277973      -0.00608959
C        9.83940036      -0.06396617       3.75272707       0.00000000      -0.00075998       0.00433929      -0.00356251
C        8.58334141       2.07293391       3.72473393       0.00000000      -0.00134065      -0.00001440       0.00626915
C        7.34443057       4.22476006       3.76974049       0.00000000       0.00283790      -0.01027445      -0.00009133
C        6.15238288       6.38253605       3.76744892       0.00000000       0.00561131      -0.00185633       0.00048787
C        4.93337411       8.50435173       3.76413889       0.00000000      -0.00028534       0.00293157       0.00577450
C       -0.04522756       1.37623477       3.63043420       0.00000000       0.00552810       0.00124443       0.00485468
C       -1.33830588       3.46532973       3.35015638       0.00000000       0.00233934       0.00211193       0.00072255
C       -2.50947055       5.63138355       3.64233728       0.00000000      -0.00461511       0.01260438       0.00800637
C       -3.70818903       7.77424988       3.77977523       0.00000000       0.00125673       0.00953395       0.00571085
C       -4.94902958       9.91775206       3.78618171       0.00000000      -0.00240984      -0.00248829      -0.00841983
C        2.46333381       1.34839571       3.80235634       0.00000000       0.00089433      -0.00361870       0.00042098
S        1.23440383       3.40897971       2.32321943       0.00000000      -0.00169543       0.00624988      -0.00741278
C       -0.05585660       5.58749635       3.50480532       0.00000000       0.00129490      -0.00409583      -0.00234946
C       -1.22876253       7.74920054       3.82393186       0.00000000      -0.00227801      -0.00256584      -0.00456878
C       -2.47227393       9.89542804       3.86945952       0.00000000      -0.00423937       0.00089587       0.00608321
C        4.90866083       1.36611922       3.93121869       0.00000000      -0.00448794      -0.00027217      -0.00361653
B        3.57376121       3.57432959       4.05900492       0.00000000       0.00104921      -0.00498998       0.00541170
C        1.26402092       7.74664103       3.93553219       0.00000000      -0.00214108      -0.00289082       0.00811070
C       -0.01158996       9.89313970       3.90753848       0.00000000       0.00178818       0.00124178      -0.00277005
C        7.35750425       1.36756839       3.83573565       0.00000000      -0.00196408       0.00163990       0.00891799
C        6.09688529       3.53668017       3.85704751       0.00000000      -0.00514847      -0.00418084       0.00346698
C        4.92549761       5.71278482       3.78215078       0.00000000      -0.00159066      -0.00212903       0.00849544
C        3.73317310       7.79276447       3.75812303       0.00000000      -0.00089319      -0.00095105      -0.00762920
C        2.45202147       9.89567368       3.82854566       0.00000000       0.00366298      -0.00057001       0.00271774
C        9.81911491       1.35616584       3.67028722       0.00000000      -0.00395844       0.00193030      -0.00646184
C        8.56781292       3.49812166       3.69045217       0.00000000       0.00715437      -0.00093066      -0.00381100
C        7.36821491       5.64640672       3.75195626       0.00000000       0.00560122      -0.00641369       0.00052016
C        6.16497486       7.79541544       3.76060356       0.00000000       0.00221048       0.00125096       0.00043407
C        4.91397652       9.92587825       3.74989151       0.00000000      -0.00043946       0.00629678       0.00582526
Mo       1.54986478       4.20033071       4.48457656       0.00000000       0.00135314       0.00332822      -0.04235526
O        3.53347975       7.10101523       6.46124677       1.00000000       0.03324821      -0.00816576       0.00270136
O        4.74117661       6.88886889       6.37039608       1.00000000      -0.03215265      -0.00325209       0.03150990
