52
Lattice="12.336457 0.0 0.0 -6.168228499999997 10.683685154694365 0.0 0.0 0.0 15.0" Properties=species:S:1:pos:R:3:forces:R:3 energy=-449.81354484268604 free_energy=-449.81354484268604 stress="0.0017543608439440923 -0.0005968104106612944 4.954727595586333e-06 -0.0005968104106612944 -0.0018252467928642298 2.728176706129311e-05 4.954727595586333e-06 2.728176706129311e-05 4.0033861929606e-05" pbc="T T T"
C       -0.10450613      -0.09213622       3.90822916       0.00018500      -0.02338284      -0.01598069
C       -1.34210756       2.03101322       3.82061742      -0.00684772      -0.02605223       0.00370542
C       -2.57255748       4.16787197       3.74982621      -0.01227170      -0.01134542       0.04132350
C       -3.83094186       6.29879374       3.79915167      -0.01028055       0.02139926      -0.00983665
C       -5.07080928       8.42826978       3.91887775      -0.00635421       0.00138272      -0.00363251
C        2.34706514      -0.10943486       3.75527188       0.00557265       0.00043063      -0.01160439
C        1.11894969       2.07134309       3.71514288      -0.01368003       0.03083945       0.01312539
C       -0.09799067       4.11840760       3.74875024       0.00045252       0.01305174      -0.02734746
C       -1.33569141       6.29269657       3.74286846      -0.00187754      -0.00718019       0.00917825
C       -2.57342637       8.42658008       3.80944778      -0.00473534      -0.01507287      -0.02400390
C        4.81793474      -0.10656079       3.69513075       0.01149845      -0.01714126      -0.02300302
C        3.56854234       1.95781363       3.25500636       0.00869920      -0.01359993       0.03133835
S        1.35593963       6.24776701       3.20280982       0.00907806       0.03245579      -0.01372929
C       -0.09629413       8.44259751       3.85389480       0.00713745       0.00721594      -0.02508909
C        7.28717020      -0.08916616       3.84652278       0.00239100       0.01088939      -0.01750220
C        6.06474225       2.01899256       3.44940384      -0.00041216       0.01237482      -0.01195441
C        4.93598072       4.18705136       3.10114371       0.01479108       0.02460360       0.00031140
B        3.59433720       6.86985693       5.91011781       0.00237322      -0.02732730       0.02096637
C        2.37675376       8.49439635       4.24541843       0.01743842      -0.01735040       0.00103486
C        9.76199922      -0.07883385       3.98525049      -0.01050998       0.01225504       0.01033421
C        8.52501655       2.04059573       3.73604773      -0.01912203      -0.01153946      -0.01977917
C        7.29965390       4.17281002       3.59550582       0.01259165       0.00649591       0.00537674
C        5.99986630       6.29527202       3.79489814       0.00036512      -0.00259240       0.01417684
C        4.81034201       8.45972212       4.22963091       0.02287650       0.01181450       0.02287629
C       -0.10421097       1.33574146       3.82151666      -0.00732209      -0.01994679      -0.01147155
C       -1.34772450       3.43814877       3.77735316       0.00041530      -0.01156668       0.02191611
C       -2.58527781       5.58882422       3.76838902      -0.01455827      -0.00022506      -0.00900082
C       -3.82457050       7.72029962       3.84440873      -0.01480226       0.01167195       0.00325940
C       -5.05124933       9.86235283       3.88550824       0.00813027      -0.01238727      -0.00734318
C        2.34417894       1.32438892       3.58430381      -0.01150746       0.01886668       0.02167001
N        1.11226474       3.44671129       3.76670616       0.01110358       0.04016847       0.01160597
C       -0.14106418       5.52634004       3.64558744      -0.00810477      -0.00141461      -0.00499400
C       -1.32797714       7.71826942       3.77974039       0.00284362      -0.00438458       0.00949428
C       -2.58368256       9.85994387       3.75549220       0.00988465      -0.01587278       0.02548328
C        4.82180378       1.30635804       3.45917988       0.01134838      -0.01040844       0.01100161
S        3.60011064       3.39287055       2.21898390      -0.00288766      -0.00650995       0.00220886
C        1.17455251       7.80581268       3.90602141       0.00518458      -0.01398108      -0.01913659
C       -0.11159122       9.87614624       3.82536539       0.01220135       0.01099392       0.00214613
C        7.28786302       1.32557054       3.67889156      -0.01080234       0.00229455      -0.00333276
C        6.11332848       3.42829496       3.34497882       0.01606891       0.02404967       0.00007206
C        4.81960522       5.52792154       3.56182405      -0.00897982       0.01248839       0.00012762
C        3.59272303       7.87476947       4.65697508       0.02427591      -0.03113470      -0.00406824
C        2.35477286       9.90931000       4.03599758      -0.00438950       0.01143191       0.01516059
C        9.75798871       1.33261280       3.84538893      -0.02017757       0.00152972       0.01665648
C        8.53100414       3.45981892       3.69465131      -0.00687703      -0.01753488       0.00341794
C        7.26351038       5.59533534       3.72772945      -0.00019755       0.00803701       0.00436960
C        6.02339122       7.72059257       4.00885125       0.01035165      -0.00281816       0.00771057
C        4.82727456       9.88406114       4.03509681      -0.00998008       0.00587885      -0.02420713
Mo       2.90603901       4.73226570       3.97415843      -0.00705511      -0.04352589      -0.00221255
O        2.64843748       5.98034231       6.13946954      -0.00702466       0.01880595      -0.03336802
O        4.70739638       7.16860996       6.72445223      -0.01639021       0.01889131       0.00205466
H        4.58099250       6.59889830       7.49763348       0.00988916      -0.00602203      -0.00950521
