51
Lattice="12.336457 0.0 0.0 -6.168228499999997 10.683685154694365 0.0 0.0 0.0 15.0" Properties=species:S:1:pos:R:3:initial_magmoms:R:1:forces:R:3 energy=-445.73001412816313 free_energy=-445.73001412816313 stress="0.0017120998817601288 0.0015448795011749812 -8.97230901591573e-05 0.0015448795011749812 -0.004595950415014847 3.068387085795689e-05 -8.97230901591573e-05 3.068387085795689e-05 2.5373664341117473e-05" pbc="T T T"
C       -0.06031534      -0.08337602       3.97016528       0.00000000       0.03240094       0.00559843       0.04482722
C       -1.26612408       2.08782566       3.91254016       0.00000000       0.01055997      -0.00367058      -0.01146638
C       -2.49265988       4.20917244       3.85578233       0.00000000      -0.03050742      -0.03119363      -0.03180877
C       -3.75043068       6.33131578       3.90232416       0.00000000      -0.01963377       0.02609343       0.01084834
C       -5.00062465       8.45720341       3.89634080       0.00000000       0.00285247      -0.00548980      -0.00821875
C        2.41129550      -0.11964542       4.02808831       0.00000000       0.03541684       0.00322391       0.02969954
C        1.20754455       2.00230001       4.02228087       0.00000000      -0.01264769       0.02703853       0.01402245
C        0.01432613       4.26361006       3.66732687       0.00000000       0.05297366      -0.02883013      -0.02130737
C       -1.28573128       6.36178896       3.88029062       0.00000000      -0.02152815       0.01354229      -0.01460492
C       -2.52062245       8.46370942       3.98186825       0.00000000      -0.01905990       0.02386273      -0.02102581
C        4.87658444      -0.07025659       3.90989723       0.00000000       0.01577766      -0.02072750       0.03014603
C        3.61794040       2.03315478       3.78044814       0.00000000      -0.01209422      -0.01785341      -0.02363420
N        1.07252047       6.40528034       3.38435243       0.00000000       0.03547465      -0.00651424       0.01735580
C       -0.05869244       8.48413978       3.78331461       0.00000000       0.01131907       0.03171289       0.02037564
C        7.34574061      -0.05521257       3.81302271       0.00000000      -0.00419597       0.00863064       0.01034424
C        6.10569605       2.07698446       3.79934647       0.00000000       0.02801731      -0.01327355       0.01183909
C        4.84596930       4.20818758       3.54113453       0.00000000      -0.01668337       0.00238957       0.03890789
P        3.72573027       6.36393347       2.39591800       0.00000000      -0.07205767      -0.00521521       0.01303149
C        2.40259009       8.50147142       3.51383217       0.00000000      -0.01656733      -0.04622750       0.02548075
C        9.81578317      -0.05215056       3.82626185       0.00000000      -0.03650620      -0.01510202      -0.00415328
C        8.58587274       2.07909512       3.84913085       0.00000000       0.02088608       0.01402463       0.03814104
C        7.34634177       4.20111905       3.78921529       0.00000000      -0.02706099       0.00707256       0.02495320
C        6.13219803       6.34582394       3.65135608       0.00000000       0.02832510      -0.03246574      -0.03104624
C        4.88015224       8.49445631       3.61772685       0.00000000       0.00384179       0.00013564      -0.00058820
C       -0.04703173       1.34741308       4.01555055       0.00000000       0.00886812       0.00027079      -0.04791235
C       -1.23425656       3.51510788       3.81644958       0.00000000       0.01785337      -0.01107614      -0.02391359
C       -2.51083930       5.62887367       3.90672395       0.00000000      -0.04923591      -0.01363924      -0.05512008
C       -3.75729447       7.75098863       3.94518912       0.00000000      -0.00930419       0.01995445       0.01779466
C       -4.99902987       9.87544675       3.99346510       0.00000000       0.04650658       0.00340985      -0.01604096
C        2.42208842       1.29460806       3.97224845       0.00000000      -0.02285635       0.01679535       0.01648335
B        1.38507282       3.48060011       3.78654418       0.00000000      -0.01299106       0.00925505      -0.02256287
C       -0.06982985       5.69802622       3.66305405       0.00000000       0.00428072      -0.00793716       0.00384184
C       -1.28464523       7.77401621       3.90275421       0.00000000      -0.01046424       0.04705169       0.00429075
C       -2.51717250       9.88200919       3.99041251       0.00000000       0.01774615      -0.00029131      -0.03187818
C        4.86793703       1.36222376       3.83762928       0.00000000       0.00856023      -0.02882163      -0.04250744
B        3.41282417       3.53123425       3.44382474       0.00000000      -0.00877327       0.02948215      -0.00999470
C        1.14912309       7.77202059       3.53649257       0.00000000      -0.00197761      -0.00161523       0.01955861
C       -0.05811196       9.90966131       3.84061097       0.00000000       0.01265031       0.01871746       0.01950739
C        7.34363687       1.36924518       3.83771648       0.00000000       0.04354218       0.01012051      -0.02280701
C        6.09055604       3.49384394       3.72237060       0.00000000      -0.00952100      -0.00837721       0.05434894
C        4.95153131       5.60299859       3.39488228       0.00000000       0.01207249      -0.01832946      -0.02144522
C        3.64676488       7.85501839       3.32402990       0.00000000       0.00269519       0.03847222      -0.02372457
C        2.40839534       9.92118965       3.73433562       0.00000000      -0.04172242      -0.04349179       0.00066949
C        9.82598269       1.37375242       3.88637398       0.00000000       0.01028666       0.00223890      -0.03705353
C        8.59343925       3.50113703       3.83963823       0.00000000      -0.04367277       0.00191258       0.03090501
C        7.35486290       5.62435038       3.79484291       0.00000000       0.01600045       0.00369453       0.03356854
C        6.11239938       7.76714458       3.69107661       0.00000000       0.01014568      -0.03155601       0.00463100
C        4.87924644       9.90659762       3.82375130       0.00000000       0.00295008       0.01816778       0.00251845
Mo       1.96999010       4.82985665       2.42431854       0.00000000      -0.02017878       0.03019960      -0.00434586
O        4.79702692       7.19338435       6.25904988       1.00000000      -0.01678135      -0.04760963      -0.00453081
O        3.77579734       6.55255668       6.02430621       1.00000000       0.04401790       0.02623996      -0.00639966
