51
Lattice="12.336457 0.0 0.0 -6.168228499999997 10.683685154694365 0.0 0.0 0.0 15.0" Properties=species:S:1:pos:R:3:initial_magmoms:R:1:forces:R:3 energy=-441.18178807380065 free_energy=-441.18178807380065 stress="-0.0029326529650068253 0.0037569815517214836 -6.2081364605007045e-06 0.0037569815517214836 -0.005055434907456702 3.972136607228043e-06 -6.2081364605007045e-06 3.972136607228043e-06 -9.78515545929935e-08" pbc="T T T"
C        0.04083881      -0.09380753       3.68656795       0.00000000      -0.00257985       0.00167828      -0.00372614
C       -1.16017006       2.08025296       3.81327021       0.00000000       0.00042407      -0.00149330      -0.00555264
C       -2.38477857       4.20580656       3.84820867       0.00000000      -0.00035068       0.00029176      -0.00134149
C       -3.64840232       6.32681859       3.73169073       0.00000000      -0.00021047      -0.00290731      -0.00887062
C       -4.90977151       8.44581622       3.60999255       0.00000000       0.00109462       0.00107403      -0.00801622
C        2.50686064      -0.12305989       3.77876344       0.00000000      -0.00569438      -0.00555625      -0.00138973
C        1.30465776       2.00491298       3.85469922       0.00000000       0.00399640       0.00153031       0.00042169
C        0.10541888       4.28225359       3.88711247       0.00000000       0.00087237       0.00251318      -0.00164050
C       -1.20251397       6.36657263       3.76748635       0.00000000      -0.00421146       0.00080900       0.00303135
C       -2.43251482       8.46359898       3.70194890       0.00000000      -0.00124171      -0.00041560      -0.00068666
C        4.97607579      -0.07820202       3.82659496       0.00000000      -0.00299662       0.00652324       0.00204690
C        3.73996028       2.00582353       3.99970524       0.00000000      -0.00200182      -0.00127958      -0.00888364
O        1.14667570       6.43387264       3.45217952       0.00000000      -0.00415035      -0.00673432       0.00664463
C        0.01809700       8.49642035       3.60525808       0.00000000       0.00102374      -0.00237728       0.00655972
C        7.45082449      -0.06956388       3.76595075       0.00000000       0.00190316       0.00456262      -0.00645643
C        6.23220036       2.05129523       3.94590986       0.00000000       0.00175960       0.00131347       0.00139615
C        5.00666098       4.18928285       3.85330905       0.00000000      -0.00158693      -0.00213987       0.00630555
S        3.64937861       6.15131650       2.70836325       0.00000000       0.00382040       0.00612776      -0.00700478
C        2.47942558       8.47884186       3.45251848       0.00000000       0.00063907      -0.00087769       0.00044355
C        9.91967963      -0.06962749       3.68484349       0.00000000       0.00347546      -0.00400104      -0.00029336
C        8.70499270       2.06392994       3.85554005       0.00000000       0.00449527       0.00299382       0.01727759
C        7.47702256       4.18921539       3.84688638       0.00000000      -0.00607537      -0.00147541      -0.00338619
C        6.24135279       6.31682974       3.52666944       0.00000000      -0.00073844       0.00291887       0.00647780
C        4.96043986       8.45162748       3.44687869       0.00000000       0.00171569       0.00178751      -0.00437941
C        0.05598691       1.33834274       3.77960853       0.00000000       0.00205476       0.00151734      -0.00192816
C       -1.13485594       3.51427507       3.85692210       0.00000000       0.00064083      -0.00017477      -0.00056338
C       -2.41395003       5.62410081       3.79971610       0.00000000      -0.00075581      -0.00080776      -0.00337124
C       -3.66756672       7.74532286       3.67603720       0.00000000       0.00005158      -0.00207757       0.00324182
C       -4.90086682       9.86805924       3.68088119       0.00000000      -0.00626164      -0.00089251      -0.00577465
C        2.52127916       1.28983795       3.88391854       0.00000000      -0.00079831      -0.00540491       0.00361139
B        1.43177828       3.50325634       3.96682267       0.00000000       0.00205062       0.00208561       0.00204142
C        0.01399615       5.69041691       3.81323449       0.00000000      -0.00550314       0.00286601       0.01470260
C       -1.20960436       7.77646457       3.68006947       0.00000000      -0.00197700      -0.00111393      -0.00142217
C       -2.42449686       9.88127272       3.76503178       0.00000000      -0.00319283       0.00059981      -0.00215308
C        4.98791341       1.34180226       3.94475668       0.00000000      -0.00001229       0.00654022      -0.00376688
B        3.63380553       3.52054104       4.11755472       0.00000000       0.00541975      -0.00504496       0.00212204
C        1.22366764       7.83208871       3.46399333       0.00000000       0.00022298      -0.00472193      -0.00024135
C        0.03843349       9.91431659       3.73063282       0.00000000      -0.00164025       0.00233459       0.00819909
C        7.46381641       1.35063233       3.87139084       0.00000000       0.00422959       0.00434086       0.00284471
C        6.24135686       3.47011366       3.91866750       0.00000000      -0.00322615      -0.00313778       0.00039789
C        5.07029796       5.53976813       3.45736451       0.00000000       0.00194395      -0.00327890      -0.00218457
C        3.71434687       7.79503695       3.29143753       0.00000000       0.00166671       0.00075419       0.00011260
C        2.50858788       9.90862080       3.64760689       0.00000000       0.00258250       0.00055494      -0.00158471
C        9.93803623       1.36112244       3.79192415       0.00000000       0.00163443      -0.00332063      -0.00617800
C        8.71444867       3.48760696       3.86646932       0.00000000      -0.00235397       0.00359035      -0.00053015
C        7.46940290       5.60525729       3.71635088       0.00000000      -0.00278681       0.00012104       0.00789509
C        6.19862430       7.73476065       3.48798661       0.00000000       0.00045407       0.00410204       0.00643985
C        4.97430450       9.88744269       3.60448124       0.00000000       0.00162760      -0.00303693       0.00816948
Mo       2.40970657       5.17251654       4.53379046       0.00000000       0.00616325       0.00144799      -0.02591588
O        1.68867512       6.77173595       6.31985351       1.00000000       0.00179089       0.00446550      -0.00673316
O        0.49628400       7.11632942       6.18228514       1.00000000       0.00259295      -0.00717411       0.01359228
