51
Lattice="12.336457 0.0 0.0 -6.168228499999997 10.683685154694365 0.0 0.0 0.0 15.0" Properties=species:S:1:pos:R:3:initial_magmoms:R:1:forces:R:3 energy=-442.43324758140625 free_energy=-442.43324758140625 stress="-0.0014576811355478624 0.0014317132509303239 3.00564086971929e-06 0.0014317132509303239 -0.004140694190692032 6.72571594009899e-06 3.00564086971929e-06 6.72571594009899e-06 3.067686607665331e-05" pbc="T T T"
C        0.21271945       0.07159741       3.77921842       0.00000000      -0.00087228       0.00063547      -0.00243473
C       -1.01901643       2.20981147       3.59770039       0.00000000       0.00054353       0.00077294       0.00053475
C       -2.26823558       4.34912382       3.70038413       0.00000000       0.00146810       0.00087070       0.00402785
C       -3.49987980       6.48311748       3.83761848       0.00000000       0.00073058       0.00023084      -0.00126292
C       -4.73291299       8.61320440       3.89125855       0.00000000      -0.00014079       0.00053898      -0.00036866
C        2.67973699       0.07728456       3.81492735       0.00000000       0.00187709      -0.00027923       0.00012666
C        1.46555274       2.13917498       3.36585628       0.00000000       0.00266741       0.00130982      -0.00057590
C        0.11604290       4.35312302       3.18119304       0.00000000      -0.00047999      -0.00052098      -0.00096302
C       -1.04758075       6.50593795       3.54190235       0.00000000      -0.00131105      -0.00124123      -0.00704816
C       -2.25607693       8.62239849       3.77502430       0.00000000       0.00084421      -0.00150677      -0.00167209
C        5.13914851       0.09107822       3.82066636       0.00000000      -0.00007758       0.00097404      -0.00158326
C        3.92367086       2.24862331       3.82043891       0.00000000       0.00021393       0.00276817       0.00063993
S        1.54462148       6.50298059       2.48185744       0.00000000      -0.00286540       0.00287931       0.00097820
C        0.20340777       8.64585722       3.56562181       0.00000000      -0.00148832       0.00112164       0.00339619
C        7.60962452       0.09380806       3.79593534       0.00000000       0.00202823      -0.00292452      -0.00234755
C        6.38517753       2.21048408       3.89484087       0.00000000      -0.00184470      -0.00209919      -0.00179169
C        5.14700751       4.29392686       3.96303939       0.00000000      -0.00041145      -0.00059356      -0.00140058
B        3.82626348       6.44219337       3.94439963       0.00000000       0.00161652       0.00528766      -0.00219426
C        2.67067992       8.65996276       3.68617114       0.00000000       0.00009299      -0.00155392       0.00346688
C       10.08586168       0.09118171       3.80991261       0.00000000      -0.00065072      -0.00023984      -0.00309464
C        8.85295733       2.22067429       3.81249199       0.00000000      -0.00243336       0.00082822      -0.00175151
C        7.61215609       4.34219490       3.89510341       0.00000000       0.00060756       0.00007184       0.00083462
C        6.36351425       6.46840625       3.95252510       0.00000000      -0.00072059       0.00010895       0.00010437
C        5.13243677       8.61687905       3.88956617       0.00000000      -0.00139194      -0.00126755      -0.00448179
C        0.21586209       1.49168278       3.58184833       0.00000000       0.00155438       0.00228978       0.00171131
C       -1.05309336       3.62072631       3.51653452       0.00000000       0.00069125       0.00070115       0.00159641
C       -2.26862766       5.77633643       3.70837955       0.00000000       0.00049312      -0.00050519       0.00235361
C       -3.49603588       7.90644144       3.84665319       0.00000000       0.00026452       0.00093325       0.00219151
C       -4.72360696      10.04318846       3.83605576       0.00000000       0.00002933       0.00141789       0.00065510
C        2.69027669       1.51418460       3.69180405       0.00000000       0.00195414      -0.00004600       0.00214928
S        1.46182148       3.56616245       2.32414892       0.00000000       0.00016652      -0.00125323       0.00240906
C        0.12718497       5.77087466       3.22647776       0.00000000      -0.00035569       0.00010538      -0.00266801
C       -1.02987746       7.92212878       3.60857718       0.00000000      -0.00039641      -0.00205147       0.00009188
C       -2.25797975      10.05221484       3.82246828       0.00000000       0.00186618      -0.00128629      -0.00044046
C        5.14514173       1.51765120       3.86735716       0.00000000      -0.00205075      -0.00053568       0.00189693
N        3.94414023       3.61968457       3.92601537       0.00000000       0.00568909      -0.00052653       0.00137521
C        1.45195971       8.01413331       3.36735593       0.00000000      -0.00143458       0.00252727      -0.00024378
C        0.20670350      10.06691397       3.75020013       0.00000000      -0.00000482       0.00100825       0.00014515
C        7.62074132       1.51189518       3.84836380       0.00000000      -0.00169893      -0.00219222       0.00021255
C        6.38871662       3.61367026       3.93393968       0.00000000       0.00070273      -0.00099672       0.00006577
C        5.14215144       5.71882419       3.97006957       0.00000000      -0.00203009       0.00151088       0.00070645
C        3.88263971       7.93622787       3.82681865       0.00000000      -0.00095966       0.00048841       0.00208442
C        2.67499431      10.08115365       3.78856544       0.00000000       0.00165283      -0.00367268       0.00127827
C       10.09050389       1.51262586       3.75874642       0.00000000      -0.00155295       0.00080391       0.00227014
C        8.84535807       3.63755934       3.81565955       0.00000000       0.00048487       0.00127200       0.00266532
C        7.60651116       5.76637827       3.90761096       0.00000000       0.00110844      -0.00039057       0.00190615
C        6.36487798       7.89720073       3.92668520       0.00000000      -0.00026859      -0.00058817      -0.00184265
C        5.14458054      10.05079083       3.83939289       0.00000000      -0.00125705      -0.00175362      -0.00158643
Mo       2.27617626       4.92354234       4.04703078       0.00000000       0.00029451      -0.00006176       0.01922008
O       -2.19498344       2.93152081       6.54139064       1.00000000       0.00494790       0.00125961      -0.00500257
O       -3.41155355       2.94282533       6.70846542       1.00000000      -0.00789224      -0.00462945      -0.01633940
