51
Lattice="12.336457 0.0 0.0 -6.168228499999997 10.683685154694365 0.0 0.0 0.0 15.0" Properties=species:S:1:pos:R:3:initial_magmoms:R:1:forces:R:3 energy=-446.40858181391866 free_energy=-446.40858181391866 stress="-0.0010827906951725937 -0.0009158565942519143 8.903971762435796e-06 -0.0009158565942519143 0.0024716082185172587 7.078392226350832e-06 8.903971762435796e-06 7.078392226350832e-06 -5.0937536726431325e-06" pbc="T T T"
C       -0.00177602       0.04784767       3.68501194       0.00000000      -0.00089821       0.00092092       0.00333673
C       -1.25018720       2.16898855       3.62497641       0.00000000      -0.00347159       0.00123331       0.00352689
C       -2.48041786       4.31624854       3.61284333       0.00000000      -0.00203105       0.00746779      -0.00452300
C       -3.70116810       6.45777303       3.63735876       0.00000000      -0.00061170      -0.00711435       0.00029628
C       -4.93068420       8.60200567       3.67413962       0.00000000       0.00387427      -0.00214711       0.01059248
C        2.46218600       0.08823038       3.70428191       0.00000000       0.00473997       0.00808030       0.00016296
C        1.19644459       2.17794578       3.70843255       0.00000000       0.00279930       0.00586895      -0.00561993
C       -0.05885859       4.28307787       3.71412769       0.00000000       0.00074365      -0.00448375      -0.00493034
C       -1.23452717       6.43994687       3.72653389       0.00000000      -0.00696572      -0.00312510      -0.00002578
C       -2.47018040       8.59788016       3.70306664       0.00000000       0.00107286      -0.00246509       0.00654310
C        4.92342739       0.05469906       3.71473712       0.00000000       0.00551271       0.00706408       0.00509238
C        3.71430742       2.18554717       3.70867854       0.00000000      -0.00359157      -0.00549577      -0.00358739
B        1.27127896       6.40105746       4.10347996       0.00000000       0.00255608       0.00208888       0.01045984
C       -0.00928620       8.58895943       3.80932457       0.00000000       0.00610773       0.00149738      -0.00057337
C        7.39577841       0.03974816       3.72607441       0.00000000       0.00110647      -0.00267486       0.00319298
C        6.16343040       2.17990802       3.65678939       0.00000000      -0.00498829       0.00152973       0.00256275
C        4.97011136       4.31270281       3.73401544       0.00000000      -0.00232832      -0.00070597       0.00443219
C        3.73029486       6.42863782       3.97516914       0.00000000      -0.00466120      -0.00138323      -0.00102300
C        2.46737339       8.58508238       3.87288727       0.00000000       0.00238897       0.00887047      -0.00171366
C        9.86246253       0.03429184       3.70794806       0.00000000      -0.00040128      -0.00689500      -0.00069801
C        8.62644137       2.17690419       3.63202790       0.00000000      -0.00248632       0.00038353      -0.00282505
C        7.39634113       4.32168083       3.62422022       0.00000000       0.00125794       0.00311404      -0.00214155
C        6.17489625       6.45442863       3.67142743       0.00000000       0.00827585       0.00390333       0.00087928
C        4.93643734       8.58164081       3.75752436       0.00000000      -0.00638003      -0.00505713       0.00005124
C       -0.00086412       1.48160198       3.66382243       0.00000000       0.00212134       0.00491885      -0.01173477
C       -1.25535631       3.58270662       3.61086938       0.00000000      -0.00580737       0.00161160       0.01058013
C       -2.47263435       5.73757395       3.64529270       0.00000000      -0.00468178       0.00180948      -0.00758420
C       -3.70149597       7.88656162       3.66527355       0.00000000       0.00140693      -0.01028873      -0.00191767
C       -4.93056654      10.03733874       3.68974483       0.00000000       0.00446510       0.00332832       0.00454921
C        2.45729490       1.55003105       3.71737387       0.00000000      -0.00378643       0.00664003      -0.00617916
O        1.14607051       3.58592425       3.71298064       0.00000000       0.00898074       0.00286091       0.00587525
C       -0.01956415       5.67976071       3.82111645       0.00000000      -0.00640785      -0.00681271       0.00086841
C       -1.23832662       7.87228141       3.75127864       0.00000000       0.00219852      -0.00198032      -0.00047122
C       -2.47947708      10.03719161       3.71214361       0.00000000       0.00601909       0.00571237      -0.00670230
C        4.91531525       1.49159105       3.68553101       0.00000000      -0.00221026       0.00306055       0.00991918
O        3.76171744       3.60145278       3.65966763       0.00000000       0.00156856      -0.01931352      -0.00067113
C        1.23267669       7.89465862       3.92062791       0.00000000       0.00720531       0.00730659      -0.00235708
C       -0.01092794      10.01923078       3.74871652       0.00000000       0.00389300       0.00251879      -0.00052055
C        7.38869002       1.46746543       3.66339149       0.00000000      -0.00497999      -0.00244159       0.00234337
C        6.16069970       3.60094896       3.64925363       0.00000000      -0.00086980       0.00241508      -0.00067488
C        4.93923648       5.72423647       3.77805570       0.00000000       0.00288945       0.00543395       0.00077985
C        3.69837519       7.84663263       3.87666384       0.00000000      -0.00618579       0.00194495       0.00217672
C        2.46420230      10.01271783       3.76585918       0.00000000       0.00048707       0.00113764      -0.00266894
C        9.86350932       1.46088642       3.64498859       0.00000000      -0.00140296      -0.00542088      -0.00183495
C        8.62451576       3.60409787       3.60941523       0.00000000       0.00145934       0.00592929      -0.00227117
C        7.39950107       5.74327524       3.63003190       0.00000000       0.00447973      -0.00078651      -0.01077598
C        6.17206479       7.88074897       3.69585200       0.00000000      -0.00009985       0.00252681      -0.00970996
C        4.93199164      10.00705267       3.71457302       0.00000000      -0.00274909      -0.00608684       0.00312363
Mo       2.56846105       4.91162592       4.89548071       0.00000000      -0.00376362      -0.01631218      -0.00120931
O        2.20192366       3.46732508       6.19174209       1.00000000      -0.00543839      -0.01217380       0.01141034
O        3.50515042       4.18298420       6.42275883       1.00000000      -0.00041148       0.01198652      -0.00781085
