51
Lattice="12.336457 0.0 0.0 -6.168228499999997 10.683685154694365 0.0 0.0 0.0 15.0" Properties=species:S:1:pos:R:3:initial_magmoms:R:1:forces:R:3 energy=-450.40312788997534 free_energy=-450.40312788997534 stress="-6.064622401792953e-05 0.001995490578668708 1.7217793135060355e-06 0.001995490578668708 0.002298901483261585 -1.2302137339603042e-05 1.7217793135060355e-06 -1.2302137339603042e-05 -7.282495967129331e-06" pbc="T T T"
C        0.00214466       0.02182419       3.68976813       0.00000000      -0.00515323      -0.00550185      -0.00526069
C       -1.22369610       2.17186068       3.71149788       0.00000000       0.00625876      -0.00056997      -0.01022398
C       -2.45047175       4.30282982       3.70324511       0.00000000       0.00171076      -0.00160159       0.00306978
C       -3.70145754       6.42999140       3.68550815       0.00000000       0.00743408       0.00325965      -0.00006707
C       -4.94650567       8.56343296       3.71330106       0.00000000      -0.00021847      -0.00164791       0.00712454
C        2.46321143       0.03161502       3.64506429       0.00000000       0.00249735       0.00143740      -0.00247244
C        1.23307651       2.13974177       3.68667040       0.00000000      -0.00626809       0.00050316      -0.00413015
C        0.00839648       4.33932295       3.84915216       0.00000000      -0.00834255       0.00430503       0.00372019
C       -1.23030428       6.43990545       3.58218498       0.00000000       0.00473785      -0.00385873      -0.00203219
C       -2.46980399       8.56955201       3.57593997       0.00000000      -0.00168436      -0.00329333      -0.00669472
C        4.93982959       0.02393169       3.59381726       0.00000000      -0.00075637      -0.00055899      -0.00199542
C        3.71635878       2.17407427       3.86072608       0.00000000       0.00244956      -0.00203340       0.00047546
O        1.16762229       6.46795014       3.43066710       0.00000000       0.00989024      -0.00147264       0.00990526
C       -0.00036161       8.55662892       3.51892804       0.00000000      -0.01107124       0.00100210      -0.00031179
C        7.41081570       0.00586823       3.58118001       0.00000000       0.00309594       0.00426402       0.00070813
C        6.18816293       2.14786790       3.70743177       0.00000000      -0.00329170       0.00247972      -0.00402510
C        4.96719203       4.27370064       4.06326120       0.00000000      -0.00274900       0.00005155      -0.00011791
B        3.71942465       6.45716918       4.51705587       0.00000000       0.00323256      -0.00298093      -0.00607355
C        2.45456118       8.52476978       3.69333528       0.00000000       0.00011692      -0.00468183      -0.00059986
C        9.87009931       0.01129439       3.65643787       0.00000000      -0.00043573       0.00272106       0.00233952
C        8.64905463       2.15355105       3.65723884       0.00000000       0.00903031       0.00021619      -0.00202233
C        7.42138731       4.28634428       3.76285573       0.00000000      -0.00283564       0.00365012      -0.00492490
C        6.17259944       6.41428878       3.92727533       0.00000000      -0.00895400      -0.00304873       0.00638954
C        4.91204687       8.55783611       3.84251138       0.00000000      -0.00168659      -0.00222943      -0.00727853
C        0.00894935       1.45507303       3.69068408       0.00000000      -0.00145288      -0.00368435       0.00112600
C       -1.21424421       3.60203494       3.77128397       0.00000000      -0.00016802      -0.00143400       0.00630903
C       -2.46013641       5.72189060       3.65256533       0.00000000       0.00665611      -0.00304836      -0.00336776
C       -3.70889266       7.85636647       3.65237979       0.00000000       0.00191268       0.00251149       0.00232533
C       -4.93667815       9.99698330       3.67139033       0.00000000      -0.00039015      -0.00092857       0.00059381
C        2.46568024       1.46399150       3.72634113       0.00000000      -0.00253798       0.00517970      -0.01196379
O        1.20611763       3.54052563       3.41272502       0.00000000      -0.00282895       0.00818891       0.00482610
C       -0.00942745       5.75621017       3.63677631       0.00000000       0.00570706      -0.00143572       0.00772283
C       -1.24127564       7.85839188       3.53182980       0.00000000      -0.00609214      -0.00520133      -0.00005883
C       -2.47073038      10.00043957       3.59531159       0.00000000       0.00153141      -0.00446985       0.00279654
C        4.94841301       1.44299153       3.69882575       0.00000000      -0.00099610      -0.00249430      -0.00498832
C        3.76478370       3.53151499       4.17562117       0.00000000       0.01142550      -0.00308840       0.00132438
C        1.20288482       7.84497637       3.55383051       0.00000000      -0.00697854       0.00280931      -0.00237077
C        0.00669399       9.98771973       3.55226752       0.00000000      -0.00125122       0.00271282       0.00014942
C        7.41836689       1.43506109       3.63060114       0.00000000       0.00470679       0.00554420       0.00396518
C        6.19922236       3.56661298       3.82595323       0.00000000      -0.00570384       0.00360717       0.00207444
C        4.98191754       5.68678578       4.14158908       0.00000000      -0.00812464      -0.00297533       0.00277516
C        3.68006524       7.86900174       3.95002221       0.00000000       0.00243414      -0.00499500       0.00083596
C        2.46679015       9.96509339       3.61957044       0.00000000       0.00186664      -0.00105798       0.00458654
C        9.88643529       1.44878615       3.66050919       0.00000000       0.00903931       0.00081902       0.00775199
C        8.65409629       3.57837632       3.69617168       0.00000000       0.00066956      -0.00018454      -0.00867833
C        7.41369130       5.71032667       3.78787250       0.00000000       0.00042720       0.00496695      -0.00282566
C        6.16148553       7.84936770       3.84986505       0.00000000      -0.00300916      -0.00317029       0.00472411
C        4.93294975       9.99005774       3.71176934       0.00000000      -0.00562989      -0.00192805       0.00505382
Mo       2.01394496       4.31699464       5.12685267       0.00000000       0.00054253      -0.00252223      -0.01650763
O        2.79275825       6.03604847       5.47273891       1.00000000       0.00677188       0.00796684       0.00189121
O        1.63022362       3.32248775       6.46089053       1.00000000      -0.00553469       0.00790120       0.01442749
