52
Lattice="12.336457 0.0 0.0 -6.168228499999997 10.683685154694365 0.0 0.0 0.0 15.0" Properties=species:S:1:pos:R:3:forces:R:3 energy=-451.1987724908844 free_energy=-451.1987724908844 stress="-0.0026357752532355644 -0.0020478791604680376 6.071994683439785e-05 -0.0020478791604680376 -0.004166946322413651 8.415294924547848e-05 6.071994683439785e-05 8.415294924547848e-05 0.00015619975792352086" pbc="T T T"
C        0.11109338      -0.08792240       3.75752696      -0.03402849       0.01688025      -0.03397719
C       -1.12730267       2.06001947       3.83844864       0.00422077      -0.02163438      -0.07476259
C       -2.37268184       4.19104565       3.92388276       0.02566903       0.03185629       0.02194975
C       -3.57586935       6.33086865       3.88049740      -0.03764052      -0.02799418      -0.00010161
C       -4.80630527       8.47186685       3.81035966       0.01318526      -0.01294484      -0.01025127
C        2.59096656      -0.11635969       3.59590241      -0.04267565      -0.00495853      -0.00466551
C        1.34705179       2.00724584       3.61285214       0.02129007      -0.01946031       0.06166276
C        0.07464090       4.23120688       4.09622701       0.02571181       0.01669149       0.01733620
C       -1.12127592       6.32941565       4.13669064      -0.02046314       0.00390413      -0.03022869
C       -2.33590196       8.45585122       3.82184722       0.02454899      -0.02877779       0.02268647
C        5.05742462      -0.09371497       3.57841682       0.00428771       0.01237069       0.00968654
C        3.79777509       1.98246902       3.23095534       0.02093140      -0.04624919      -0.00005527
B        1.28191741       6.44182574       4.86723163       0.03865506      -0.02903473       0.03204928
C        0.13134063       8.47372340       3.95230241       0.01527237      -0.03319593      -0.01784333
C        7.51643846      -0.07727005       3.70521545       0.01438759      -0.00893443      -0.00006546
C        6.27217109       2.06794290       3.51226798      -0.01546444       0.01824659       0.03202230
C        5.03495644       4.26925383       3.52188406      -0.01242953       0.00377811      -0.02028497
N        3.89658050       6.37643392       3.91189048      -0.00609770      -0.01884061      -0.02626630
C        2.57681966       8.45499743       3.95997645      -0.02268271       0.04874897       0.02102989
C        9.97561879      -0.08031786       3.78683552       0.05410857       0.00668198       0.04535319
C        8.73829080       2.05920962       3.75910008      -0.00352793      -0.00540569      -0.04061233
C        7.50174276       4.19525632       3.74967574       0.00757064       0.01961531      -0.00728385
C        6.31262469       6.36748906       3.78594759       0.00366723       0.02800451       0.02696177
C        5.05725753       8.47133510       3.87155248      -0.00082777       0.00708228      -0.03392041
C        0.10326601       1.33581636       3.73814223       0.00809102      -0.00867382      -0.03136230
C       -1.13760013       3.48392164       3.94396313       0.01894474      -0.01218079       0.01426399
C       -2.35514170       5.61455945       3.97302398      -0.02521565       0.02177342       0.04507402
C       -3.57313451       7.75398798       3.84221098       0.01777637      -0.04966975       0.01235100
C       -4.81430797       9.88513561       3.72892439      -0.05530626      -0.00316160       0.00753493
C        2.57148759       1.29379235       3.44388063       0.00023182      -0.01633921       0.03663876
B        1.37600848       3.47396303       3.88428246       0.04542095       0.01837753      -0.01150998
C        0.07355077       5.60944651       4.36191673      -0.04441233       0.00996471      -0.00490335
C       -1.11240929       7.75419088       3.99332013       0.02812266      -0.01350308       0.01403960
C       -2.33897064       9.86964416       3.64739149      -0.01920956       0.01031373       0.02780538
C        5.04997039       1.32922846       3.40613591      -0.00078256       0.01948622      -0.01203834
P        3.69390814       3.59239227       2.44817231      -0.00019050       0.00420965      -0.01616569
C        1.35572894       7.80826267       4.16560895       0.00925226       0.00150514      -0.02916186
C        0.11948671       9.89316630       3.71891867       0.00591986      -0.01208221       0.02024727
C        7.50755062       1.35270405       3.64449291      -0.02552113      -0.01170865       0.00852224
C        6.26868873       3.49074312       3.58186978       0.02032853       0.01925609       0.00570013
C        5.08830628       5.71278003       3.72941714       0.00576557      -0.01618602       0.00927355
C        3.83667381       7.74118665       3.94500497      -0.01792419       0.01663700       0.02879010
C        2.57899457       9.88777657       3.79687790       0.04157091       0.05153199       0.01677960
C        9.97527902       1.34706173       3.79815312       0.00734072      -0.00971134      -0.02862719
C        8.73160150       3.48160253       3.81355132       0.02970805       0.02565901      -0.03091953
C        7.53025400       5.62297562       3.80702707      -0.04308039       0.00071131      -0.01171354
C        6.29863435       7.77918422       3.84291568       0.01110447       0.02601180      -0.03584962
C        5.04578638       9.89150227       3.81605563       0.00218459      -0.00176990      -0.00457234
Mo       3.02730380       4.61738248       4.38413549      -0.03137451       0.04820469       0.10691410
O        1.85987637       6.43546234       6.21702664      -0.05990799      -0.05921070      -0.04344156
O        0.61003208       6.37977966       7.01156034      -0.08273759      -0.02068744      -0.05340268
H        0.75600574       5.51888662       7.45805014       0.07623154       0.00481222      -0.03068609
