52
Lattice="12.336457 0.0 0.0 -6.168228499999997 10.683685154694365 0.0 0.0 0.0 15.0" Properties=species:S:1:pos:R:3:forces:R:3 energy=-449.1513863126257 free_energy=-449.1513863126257 stress="-0.00618668118259741 0.0030251533601138476 2.3058070389319602e-05 0.0030251533601138476 -0.005319709552316403 2.4025863711589115e-05 2.3058070389319602e-05 2.4025863711589115e-05 -6.760479531324141e-07" pbc="T T T"
C       -0.01588963       0.03920521       3.71581918       0.00206275      -0.00359549      -0.00138494
C       -1.22989334       2.19302509       3.85274407      -0.00343883       0.00031650       0.00395489
C       -2.46683255       4.32588011       3.77741601       0.00459842      -0.00000262      -0.00853153
C       -3.71312007       6.45422417       3.61211551       0.00337784       0.00288180       0.00011083
C       -4.95811913       8.58549115       3.55112200      -0.00361539       0.00057463      -0.00926708
C        2.44795882       0.01531035       3.76508582       0.00268006       0.00143813      -0.00509558
C        1.23837901       2.15153968       3.99662143       0.00382581       0.00246992       0.00399591
C       -0.01433026       4.38203484       4.00567747       0.00033335       0.00399553       0.00137623
C       -1.26960051       6.48463564       3.72522317      -0.00188419      -0.00155583       0.00192961
C       -2.49394546       8.59245537       3.64021790      -0.00296502       0.00234087       0.00325062
C        4.92581663       0.03052172       3.77133528      -0.00310390       0.00532141       0.00761909
C        3.69506012       2.10869906       4.01028295       0.00038751      -0.00274745      -0.00508450
N        1.11768259       6.52330019       4.00338162       0.00136103      -0.00444365       0.00066907
C       -0.03176422       8.59288284       3.69883147       0.00039998       0.00000104       0.00189326
C        7.39540953       0.04037106       3.76438410       0.00170833       0.00399793      -0.00539659
C        6.17620210       2.16842457       3.85542808      -0.00121666      -0.00636947      -0.00292179
C        4.97614366       4.32142048       3.83560283       0.00005827       0.00140442       0.00577721
P        3.56501129       6.29650600       2.60306491      -0.00829668       0.01221618       0.00407273
C        2.43200119       8.58288257       3.60165995       0.00388224       0.00158293       0.00500672
C        9.85973359       0.04569385       3.70500402       0.00264113      -0.00009911       0.00394479
C        8.63974986       2.18085605       3.79649002      -0.00106250       0.00122336      -0.00122802
C        7.41552103       4.31324183       3.72075095       0.00350491      -0.00417767      -0.00263549
C        6.18341139       6.45507648       3.46368913       0.00160542       0.00063802       0.00032680
C        4.91309042       8.59338039       3.44255219      -0.00096260      -0.00212980       0.00162103
C       -0.00225307       1.47065578       3.86310780       0.00126117      -0.00023516       0.00042522
C       -1.22412904       3.62597850       3.88238482       0.00170945       0.00193360       0.00433045
C       -2.48307452       5.74720088       3.70051986       0.00111923      -0.00125349       0.00329391
C       -3.72376492       7.87759055       3.58718565      -0.00226083       0.00289963      -0.00950855
C       -4.95618617      10.00356908       3.66818036       0.00398869      -0.00217802      -0.00218122
C        2.45661638       1.42655223       3.93087288       0.00292745      -0.00097330      -0.00106751
B        1.30347724       3.65947826       4.19769768      -0.00395886       0.00278200      -0.00107553
C       -0.04983248       5.80864729       3.90550779      -0.00136934       0.00095142       0.00101955
C       -1.26424879       7.89375112       3.67481357      -0.00243625      -0.00001050       0.00342000
C       -2.48336527      10.00727806       3.71459028      -0.00001166       0.00275865       0.00375769
C        4.93717247       1.44693101       3.88035022      -0.00181469       0.00124037      -0.00085330
B        3.68316798       3.58927769       4.18988092       0.00109466      -0.00835817      -0.00772653
C        1.18223969       7.87017488       3.74253003       0.00395770      -0.00227598       0.00508595
C       -0.01214212      10.01279106       3.73325157      -0.00256352       0.00453659      -0.00054404
C        7.40416210       1.46385401       3.80715193       0.00148885       0.00008692       0.00024376
C        6.18930628       3.59223053       3.81458939       0.00052948      -0.00696111      -0.00186476
C        4.98163872       5.70142203       3.47749392       0.00018415       0.00194953      -0.00579028
C        3.65611569       7.91984481       3.33059915       0.00144908       0.00286515       0.00182981
C        2.45214453      10.01486289       3.70063550       0.00356585       0.00232572       0.00414753
C        9.87293226       1.47365877       3.78689701      -0.00432212       0.00133373       0.00092212
C        8.64398939       3.60650933       3.76821598       0.00539168      -0.00057348      -0.01051424
C        7.40685911       5.73575718       3.60042683       0.00379529      -0.00035367       0.00076263
C        6.15008016       7.87697235       3.44210338      -0.00377783       0.00025630       0.00524155
C        4.92151960      10.01673503       3.62090765       0.00028832      -0.00347390       0.00345678
Mo       2.62339165       5.25510844       4.72802211      -0.00154819      -0.00969824      -0.00399168
O        2.95999933       4.53557671       6.32755189      -0.00414361      -0.00195775       0.00026742
O        3.11112200       4.11507670       7.91895092      -0.01333239       0.00399407       0.00012982
H        3.55137489       4.94902956       8.18924870       0.00290698      -0.00689249       0.00278017
