52
Lattice="12.336457 0.0 0.0 -6.168228499999997 10.683685154694365 0.0 0.0 0.0 15.0" Properties=species:S:1:pos:R:3:forces:R:3 energy=-445.0183282929465 free_energy=-445.0183282929465 stress="-0.008374101860850372 -0.002480806436723469 1.3550554467657413e-05 -0.002480806436723469 -0.004833078392365124 1.3519672139676672e-05 1.3550554467657413e-05 1.3519672139676672e-05 -2.1987507477007697e-05" pbc="T T T"
C        0.03198540      -0.03669958       3.64696624      -0.00490682       0.01350129       0.00732422
C       -1.22305130       2.09576869       3.58574056      -0.00774128       0.00298871      -0.00563351
C       -2.47881328       4.23661838       3.88553678       0.00708337       0.00254007      -0.00924589
C       -3.67174658       6.38684351       3.99129758      -0.00779171      -0.00133833      -0.00046961
C       -4.88656166       8.53267711       3.85119503       0.00755579      -0.01055926       0.00315250
C        2.50992833      -0.04821984       3.61065502      -0.00314140      -0.00716150      -0.00028730
C        1.25440546       2.02005403       3.22240015       0.00400537       0.01584208      -0.00242682
C       -0.11502338       4.27966927       3.51848747       0.01107037      -0.00687737      -0.00892567
C       -1.23704075       6.38061300       3.99964832      -0.00819349       0.00115053      -0.00615553
C       -2.42763489       8.51680281       3.91479329       0.00031538      -0.00540181       0.00718892
C        4.97078211      -0.04050530       3.73649419       0.00267180       0.00247177       0.00047059
C        3.75664058       2.02389761       3.20168673      -0.01036040       0.01064159      -0.00058666
B        1.26033170       6.33789307       4.13217645       0.01593289      -0.00490323      -0.00915420
C        0.03798396       8.51182022       3.97628318       0.00769097       0.00536094      -0.00005884
C        7.43420804      -0.03785490       3.83790636       0.00018928      -0.00301835       0.00230151
C        6.18668578       2.11369356       3.71591413       0.00325209      -0.00963657      -0.01174295
C        4.99209492       4.30537724       3.71012902       0.00345704       0.01440410       0.00687357
N        3.83272107       6.40570163       3.82044076      -0.01099742      -0.01326747      -0.00573399
C        2.52176574       8.50294785       3.91560397       0.00251933       0.01095294       0.00965471
C        9.89994562      -0.03824494       3.76635867      -0.00669244       0.00076381      -0.00558910
C        8.65379002       2.10037264       3.82459921      -0.00365689      -0.00050642      -0.00415544
C        7.41629994       4.24476867       3.95193414       0.00034691       0.00315055      -0.01780795
C        6.24068978       6.42151397       3.89745194       0.01048944       0.00365491      -0.00484537
C        4.98328762       8.51818801       3.81969110       0.00103622      -0.01153590       0.01017903
C        0.01922575       1.38552759       3.47932855      -0.00128518       0.01720534       0.00180954
C       -1.27040929       3.50973873       3.65431236       0.00668178      -0.00216816      -0.01389755
C       -2.46243801       5.66207735       3.98249718      -0.00956482       0.00363673      -0.00278329
C       -3.66082839       7.81199326       3.93243392       0.00229143      -0.01074234       0.01408835
C       -4.89484470       9.94710106       3.70760409      -0.00378330      -0.00800023       0.00883858
C        2.50887927       1.35819666       3.31452637      -0.00624010       0.00089451      -0.01020461
S        1.23203120       3.65199127       2.65465903      -0.00175820      -0.00189751      -0.00015297
C       -0.04474696       5.62873459       3.90808032      -0.00501284      -0.00562834      -0.00106413
C       -1.20011101       7.80396358       3.99728087       0.00332613       0.00498652      -0.00479474
C       -2.42788979       9.93386485       3.75941065       0.00258365      -0.00301897       0.01368922
C        4.96731985       1.38723982       3.55307175      -0.00520495       0.00488090      -0.00526607
S        3.86731246       3.64837399       2.52098849      -0.00363995      -0.00695259      -0.00552046
C        1.28787455       7.82339005       4.03018261       0.00868796       0.00837719       0.00183019
C        0.03344481       9.93669897       3.86694544       0.00326254       0.00233236      -0.00669337
C        7.41790022       1.39294237       3.80683571       0.00335504      -0.01312730      -0.00381664
C        6.18716677       3.53089171       3.82648077       0.00082437      -0.00465255      -0.00011640
C        5.03227412       5.73783899       3.79289403       0.00713634       0.01014406       0.00687690
C        3.76442867       7.78412618       3.86430484      -0.00632092      -0.01075186       0.00515429
C        2.50747280       9.93308786       3.84674926      -0.00259110       0.00838194       0.00925202
C        9.89378508       1.38815317       3.73030416      -0.00770626       0.00109294       0.01275973
C        8.63911552       3.52104451       3.90983417       0.00448381       0.00489449      -0.00159480
C        7.44125203       5.67273983       3.97002542      -0.00139993       0.00152116      -0.00248362
C        6.22232523       7.83443235       3.86387644       0.00833308      -0.00362648       0.01051750
C        4.96755698       9.93810466       3.74949098      -0.00569274      -0.00130163       0.00780164
Mo       2.67663430       4.82149643       4.40542928       0.00545628      -0.00644658       0.00569004
O        2.28936095       5.22864311       6.09425124       0.00593596      -0.00008887      -0.00234338
O        2.10958941       5.49798075       7.72201262      -0.01125516       0.00141554       0.00213444
H        2.82077171       4.87363409       7.98444258      -0.00503731      -0.00457740       0.00596334
