52
Lattice="12.336457 0.0 0.0 -6.168228499999997 10.683685154694365 0.0 0.0 0.0 15.0" Properties=species:S:1:pos:R:3:forces:R:3 energy=-453.31425287774147 free_energy=-453.31425287774147 stress="-0.0023904779822617097 -0.0016886136105556972 7.499709005233542e-06 -0.0016886136105556972 0.0023640619971210947 2.0901423979709463e-05 7.499709005233542e-06 2.0901423979709463e-05 -1.6171136680624326e-05" pbc="T T T"
C        0.12609626       0.11150370       3.72592582       0.00246120       0.00289314       0.00432982
C       -1.12411933       2.22750483       3.59264740      -0.00451507       0.00548543      -0.00254020
C       -2.34076123       4.37788170       3.61415980      -0.00374357      -0.00068210       0.00274309
C       -3.55854385       6.52108932       3.70969552       0.00357786       0.00730094       0.00319962
C       -4.79690695       8.66892468       3.78925302      -0.00422886      -0.00337266      -0.00275093
C        2.58535969       0.15265035       3.77032499       0.00463392       0.00017452      -0.00032482
C        1.31630087       2.24039937       3.63048484       0.00403172       0.00378412       0.00141920
C        0.09290186       4.33562694       3.60870049      -0.00380625      -0.00235263       0.00375232
C       -1.09426232       6.50493968       3.69067287      -0.00414254      -0.01190565      -0.00144436
C       -2.33850217       8.66737380       3.74555153       0.00335998       0.00024902       0.00167956
C        5.05476133       0.12134992       3.82049489      -0.00135827      -0.00249075       0.00610261
C        3.80703801       2.30915368       3.97959563       0.00224936       0.00364624      -0.00061156
C        1.33876005       6.46198112       4.07767127       0.00056896       0.00294456      -0.00756739
C        0.12654728       8.63860048       3.84891943      -0.00031505       0.00249089       0.00052651
C        7.52330584       0.09728115       3.81887714       0.00109988       0.00020310      -0.00146070
C        6.29546411       2.23806789       3.83113126       0.00350460      -0.00655105      -0.00530735
C        5.10718229       4.36813143       4.08586058      -0.00132107       0.00349444      -0.00045016
B        3.84102509       6.51304896       4.38492130       0.00043182       0.00020630      -0.00176044
C        2.58821647       8.64432371       4.00878300       0.00663834       0.00281957       0.00742055
C        9.98825377       0.09641499       3.78002035      -0.00580992       0.00051917      -0.00351709
C        8.75453219       2.23397238       3.69190876       0.00239308       0.00319653       0.00307216
C        7.54710240       4.37937971       3.75856869       0.00695639       0.00098375       0.00443687
C        6.32711909       6.52467328       3.92415274       0.00260182      -0.00064540       0.00717160
C        5.07694829       8.66389383       3.93927689      -0.00581227      -0.00420924       0.00691731
C        0.11184370       1.53074576       3.62346545       0.00034514       0.00726671       0.00357944
C       -1.11956492       3.64813714       3.56683581      -0.00730033       0.00196366      -0.00166353
C       -2.32481139       5.80191592       3.64992075      -0.00617677      -0.00423474      -0.00790884
C       -3.56370360       7.95164760       3.74064607       0.00078955       0.00769405      -0.00294187
C       -4.80295966      10.10055929       3.75689417       0.00387302      -0.00164314      -0.00720874
C        2.56108459       1.59165234       3.80090618       0.00657132       0.00296123      -0.00330560
O        1.24835559       3.60441331       3.47468471       0.00105355       0.00346222       0.00227435
C        0.14820404       5.75979336       3.77785588       0.00108198      -0.00443662       0.00074462
C       -1.10230964       7.93397581       3.75611836       0.00026928      -0.00939007      -0.00323547
C       -2.34895790      10.10091371       3.78500664       0.00113872      -0.00183243       0.00752018
C        5.04462670       1.55098502       3.87603887      -0.00066243      -0.00403291      -0.00797965
C        3.87841714       3.68631514       4.24794049      -0.01234475       0.00848163       0.00485462
C        1.36326561       7.88777483       3.99335195       0.00473546       0.00782496       0.00044715
C        0.12109968      10.07015088       3.83140781       0.00029066       0.00365444       0.00524535
C        7.52577505       1.52047373       3.76890721       0.00502127      -0.00090111      -0.00476074
C        6.32676259       3.65569139       3.86111821       0.00251385      -0.00190820      -0.00403166
C        5.13860652       5.78542780       4.12710148      -0.00096680       0.00414445       0.00021476
C        3.83632602       7.98367543       4.10057535      -0.00017302      -0.00611998      -0.00927770
C        2.58582850      10.07146654       3.86216810      -0.00181991      -0.00223720      -0.00031563
C        9.98986434       1.52090557       3.67148596      -0.00316030       0.00231201      -0.00390636
C        8.76711588       3.66322564       3.66736177       0.00358782      -0.00023526      -0.00068207
C        7.55724001       5.80688788       3.78254543       0.00715589       0.00339915      -0.00186517
C        6.31323004       7.95377219       3.89098901      -0.00745065      -0.00535089      -0.00302201
C        5.06387142      10.08194881       3.80754872      -0.00421901      -0.00145041      -0.00542851
Mo       2.55392899       5.11094505       5.20706484       0.00209470      -0.01497592       0.00918292
O        1.51450564       4.03477923       6.19910451      -0.00347511      -0.00164303       0.00079595
O        0.30713018       2.83671009       6.42194676      -0.00030970       0.01616798       0.00864934
H        0.39001356       2.99722749       7.38820129      -0.00191948      -0.01712284      -0.00101136
