51
Lattice="12.336457 0.0 0.0 -6.168228499999997 10.683685154694365 0.0 0.0 0.0 15.0" Properties=species:S:1:pos:R:3:initial_magmoms:R:1:forces:R:3 energy=-440.426365007432 free_energy=-440.426365007432 stress="0.00266644473602611 0.0028333238872065864 -5.597063600458116e-06 0.0028333238872065864 -0.004839186364414167 7.121464785038008e-06 -5.597063600458116e-06 7.121464785038008e-06 6.285043584887357e-06" pbc="T T T"
C       -0.21736795       0.14099111       3.40479607       0.00000000      -0.00002227      -0.00961521      -0.00295078
C       -1.44280738       2.27564002       3.73096074       0.00000000       0.00991968      -0.00273774       0.00706792
C       -2.72321002       4.40392566       3.85745060       0.00000000      -0.00296277       0.01018899      -0.00662153
C       -3.96799239       6.52605464       3.68458411       0.00000000       0.00117402       0.00106735       0.00075371
C       -5.18396999       8.65094127       3.42089225       0.00000000      -0.00405275       0.00383266       0.00966208
C        2.24981875       0.11045843       3.29793345       0.00000000      -0.00769319       0.00585062       0.00418743
C        1.07375107       2.20784515       3.72555587       0.00000000       0.00932845      -0.00263376      -0.00253555
C       -0.29903747       4.40103823       4.25062124       0.00000000       0.00580926       0.00457616      -0.00024492
C       -1.48454014       6.54949771       3.89801785       0.00000000       0.00506200      -0.00715131      -0.00911511
C       -2.70342485       8.65015657       3.51838926       0.00000000      -0.00332273       0.00146758       0.00660642
C        4.70402665       0.10449166       3.36191721       0.00000000       0.00406647       0.00617585      -0.00123060
C        3.52944498       2.22558338       3.15079904       0.00000000      -0.00562154      -0.00155567       0.00138088
P        1.35745617       6.47334981       4.34654842       0.00000000      -0.01224328       0.00438261      -0.01443399
C       -0.23326116       8.69167889       3.64328401       0.00000000      -0.00034157      -0.00943432       0.00088430
C        7.16657021       0.16295324       3.41797149       0.00000000       0.00487043       0.00187401      -0.00337890
C        5.93624218       2.25884308       3.50668763       0.00000000      -0.00869085       0.00125510       0.00238722
C        4.61923438       4.27890286       3.66888194       0.00000000       0.00138542      -0.01024625      -0.00206501
B        3.29492134       6.56658027       3.61769264       0.00000000      -0.00756588       0.00696492      -0.00166155
C        2.23785861       8.77877598       3.42585713       0.00000000       0.00012946       0.00115490      -0.00549510
C        9.65788666       0.18193304       3.37853161       0.00000000      -0.00124799      -0.00084098       0.00405553
C        8.40970416       2.28586003       3.60399721       0.00000000      -0.00531016       0.00199917       0.00701201
C        7.12608424       4.39308838       3.74862609       0.00000000       0.00214709      -0.00767131       0.00751644
C        5.86584004       6.50403403       3.57854586       0.00000000       0.00681927      -0.00362266      -0.00128997
C        4.69786338       8.69785901       3.32393534       0.00000000       0.00055801       0.00970691       0.00146887
C       -0.19744071       1.56189821       3.61784571       0.00000000       0.01317424      -0.01235560      -0.00383569
C       -1.48899907       3.67657151       3.95982486       0.00000000       0.00162692       0.00789188       0.00202108
C       -2.72668179       5.83024646       3.83148807       0.00000000       0.00266086       0.00495296      -0.01777970
C       -3.95065636       7.94210619       3.53573244       0.00000000      -0.00473828       0.00197659       0.00698528
C       -5.16284289      10.08471516       3.35459024       0.00000000      -0.00366779      -0.00054797      -0.00045223
C        2.27534942       1.54757052       3.31645195       0.00000000       0.00080929       0.00207285      -0.00098193
P        1.24036874       3.66294369       4.69287440       0.00000000       0.00291005      -0.00531985       0.00583098
C       -0.27949998       5.81056818       4.15171999       0.00000000       0.00526020       0.00111284      -0.01271967
C       -1.46948311       7.95975827       3.69917334       0.00000000      -0.00083026      -0.01025954       0.00636074
C       -2.69701023      10.07086971       3.35707369       0.00000000      -0.00540301       0.00945334       0.01057461
C        4.72144735       1.52807996       3.30840183       0.00000000      -0.00551513       0.00504987       0.00007684
O        3.63429474       3.57412341       2.88410399       0.00000000      -0.00264308      -0.00790206      -0.00106091
C        1.03862311       8.08250566       3.74859399       0.00000000       0.00016630       0.00157682      -0.00164874
C       -0.23039942      10.10551977       3.45874585       0.00000000       0.00607889      -0.00195613       0.00335398
C        7.17154540       1.57624767       3.49749852       0.00000000      -0.00799647       0.00361136       0.00473996
C        5.90006812       3.65181901       3.71478456       0.00000000       0.00255045      -0.00313885      -0.00175301
C        4.60298281       5.74788916       3.64760406       0.00000000      -0.00129568      -0.00797512      -0.00920243
C        3.44165390       8.05210940       3.34649879       0.00000000       0.00190014       0.01194014       0.00360325
C        2.24245679      10.18085638       3.35696779       0.00000000       0.00268999      -0.00190478       0.00059922
C        9.65909671       1.58805500       3.55392903       0.00000000       0.00052713       0.00120897       0.00149709
C        8.38163127       3.69715205       3.74496871       0.00000000      -0.00090191       0.00237595      -0.00334090
C        7.11448973       5.81439433       3.68512496       0.00000000       0.00761354      -0.00841194       0.00227856
C        5.90614641       7.93782306       3.43747401       0.00000000       0.00003988       0.00355884      -0.00087053
C        4.71554228      10.13415508       3.34124694       0.00000000      -0.00361961       0.00212123       0.00320654
Mo       3.08956644       5.19034015       5.14173261       0.00000000      -0.00355680      -0.00378170      -0.00277865
O        8.07928840       2.00863716      10.06294985       1.00000000       0.00004960      -0.00001173      -0.00023293
O        8.75542838       1.68070649       9.08084000       1.00000000      -0.00008403      -0.00032600       0.00356936
