51
Lattice="12.336457 0.0 0.0 -6.168228499999997 10.683685154694365 0.0 0.0 0.0 15.0" Properties=species:S:1:pos:R:3:initial_magmoms:R:1:forces:R:3 energy=-448.9925880416293 free_energy=-448.9925880416293 stress="-0.0025198546399365414 -0.00240278020076953 3.229867898658035e-06 -0.00240278020076953 0.0009916086580780948 -8.39160306069306e-06 3.229867898658035e-06 -8.39160306069306e-06 -2.6400054150545418e-05" pbc="T T T"
C        0.11782308       0.15828801       3.51132983       0.00000000      -0.00281069      -0.00227950      -0.00148171
C       -1.13867461       2.27905020       3.41106142       0.00000000       0.00108184       0.00019783       0.00234229
C       -2.35093043       4.43006005       3.48752921       0.00000000       0.00108928       0.00159693      -0.00218752
C       -3.56388978       6.57069176       3.58178626       0.00000000       0.00242651      -0.00041269      -0.00167872
C       -4.80590812       8.71500323       3.61359373       0.00000000       0.00086440      -0.00107887       0.00060199
C        2.57481953       0.19978201       3.58335749       0.00000000      -0.00405847       0.00168480      -0.00055113
C        1.29834526       2.28555693       3.42327361       0.00000000       0.00228078      -0.00168407       0.00067418
C        0.08856399       4.37879891       3.46035457       0.00000000      -0.00004801       0.00173563      -0.00039026
C       -1.09380142       6.54796732       3.56631247       0.00000000      -0.00072668      -0.00358215       0.00089142
C       -2.34363458       8.71385210       3.59653137       0.00000000      -0.00047253      -0.00294525      -0.00058966
C        5.04174198       0.17210127       3.66195102       0.00000000      -0.00286499       0.00089784      -0.00116531
C        3.78739370       2.35999712       3.81672575       0.00000000       0.00026548       0.00077547       0.00330047
C        1.34418842       6.50695758       3.96278787       0.00000000       0.00085006      -0.00205104       0.00118092
C        0.11861474       8.68617221       3.70309023       0.00000000       0.00029329      -0.00275381       0.00064308
C        7.50590635       0.15202614       3.64212140       0.00000000       0.00582089       0.00010193       0.00344414
C        6.27817221       2.28913870       3.68669943       0.00000000      -0.00168081       0.00062809      -0.00048703
C        5.10006133       4.41348994       3.98166531       0.00000000      -0.00246185      -0.00297760      -0.00126022
B        3.86408576       6.61891144       4.20088498       0.00000000       0.00567392       0.00549331      -0.00034758
C        2.57222464       8.70922086       3.81913937       0.00000000      -0.00065649       0.00065214       0.00055052
C        9.97380292       0.14992981       3.56957814       0.00000000       0.00141665       0.00020433      -0.00317665
C        8.73755555       2.28714912       3.52897664       0.00000000      -0.00016359       0.00213400      -0.00186333
C        7.53583028       4.42968035       3.64121255       0.00000000       0.00132315       0.00219271       0.00441474
C        6.32092033       6.57303375       3.80582972       0.00000000      -0.00034511       0.00111623      -0.00024568
C        5.07107496       8.72607117       3.73244495       0.00000000      -0.00211486       0.00284110       0.00330921
C        0.09558549       1.57617703       3.42206701       0.00000000       0.00195333      -0.00250156       0.00040722
C       -1.13201376       3.69879505       3.42507127       0.00000000       0.00037287       0.00186304       0.00082119
C       -2.32839213       5.85135000       3.52580688       0.00000000       0.00025601      -0.00084990       0.00091906
C       -3.57021234       7.99970565       3.59107512       0.00000000       0.00137841      -0.00229832      -0.00057253
C       -4.81181909      10.14787894       3.55708839       0.00000000      -0.00294669      -0.00123511      -0.00000695
C        2.54861446       1.63946716       3.60746784       0.00000000       0.00346662       0.00227433      -0.00423984
O        1.22051990       3.63721454       3.18027873       0.00000000      -0.00615855      -0.00232495      -0.00116907
C        0.15353589       5.80366402       3.64982232       0.00000000       0.00088824       0.00131480      -0.00079652
C       -1.10687153       7.97854387       3.62147057       0.00000000      -0.00078920      -0.00495127      -0.00264238
C       -2.35810328      10.14834010       3.62110654       0.00000000      -0.00465310      -0.00041150      -0.00294925
C        5.02878595       1.60204949       3.72015122       0.00000000      -0.00231887       0.00164812       0.00295532
C        3.85330296       3.73748247       4.10844655       0.00000000       0.00102854      -0.00181958      -0.00069127
C        1.35622262       7.93989674       3.84524003       0.00000000       0.00097890      -0.00163748       0.00417766
C        0.10822564      10.11987790       3.67241146       0.00000000       0.00217856       0.00066992       0.00157669
C        7.50773811       1.57433926       3.60429565       0.00000000       0.00023756       0.00109708       0.00090644
C        6.31416628       3.70511504       3.74496865       0.00000000      -0.00052543       0.00017931      -0.00213150
C        5.13514132       5.82812023       4.02855124       0.00000000      -0.00088137      -0.00172678      -0.00233530
C        3.82594596       8.06655070       3.89566818       0.00000000      -0.00127244       0.00300040      -0.00383474
C        2.56926603      10.12983991       3.66534484       0.00000000       0.00499677      -0.00142463      -0.00447571
C        9.97271032       1.57356311       3.48308433       0.00000000      -0.00008421       0.00031421      -0.00214061
C        8.75421187       3.71511088       3.53151525       0.00000000       0.00146908       0.00268592       0.00092873
C        7.55037465       5.85747391       3.66684234       0.00000000       0.00191615       0.00262171       0.00171502
C        6.30388290       8.00309508       3.72281918       0.00000000      -0.00126785       0.00248384       0.00245311
C        5.05318150      10.13663340       3.58589459       0.00000000      -0.00198374       0.00043397       0.00277758
Mo       2.68150338       5.24543748       5.00768059       0.00000000      -0.00290303      -0.00780541      -0.01640451
O       -0.25554307       1.08515276       8.74281433       1.00000000      -0.00434504       0.00131276       0.00060195
O       -0.54295186       1.09390494       7.54213439       1.00000000       0.00402633       0.00459971       0.01822205
