53
Lattice="12.336457 0.0 0.0 -6.168228499999997 10.683685154694365 0.0 0.0 0.0 15.0" Properties=species:S:1:pos:R:3:forces:R:3 energy=-456.54539576732276 free_energy=-456.54539576732276 stress="-0.0037620322526091344 -0.00023663374038082992 2.1555848054225165e-05 -0.00023663374038082992 -0.0037309415176204445 -2.4627224229413682e-06 2.1555848054225165e-05 -2.4627224229413682e-06 1.0079910623577094e-05" pbc="T T T"
C       -0.00451203      -0.06743065       3.86407195       0.00395951       0.00071858      -0.00166297
C       -1.24676030       2.06395234       3.97334083       0.00818632      -0.00019529      -0.00617693
C       -2.48754319       4.20638928       3.94232320       0.00244136      -0.00594482      -0.00078231
C       -3.72387479       6.33895729       3.87337169       0.00098859      -0.00190380       0.00870372
C       -4.95132217       8.47480221       3.79822685       0.00140929      -0.00185488      -0.00111745
C        2.46075975      -0.07538776       3.92905287      -0.00118218      -0.00208647       0.00304774
C        1.22445947       2.06262223       3.98129323      -0.00333028       0.00318758       0.00347051
C       -0.03986537       4.18378728       3.78454342      -0.00008330       0.00555581       0.00603593
C       -1.26334062       6.33364511       3.61048641       0.00326624       0.00266546       0.00025007
C       -2.47509588       8.47264830       3.77309986       0.00032044      -0.00015523      -0.00715796
C        4.93182157      -0.07811530       3.90471676       0.00394500       0.00296543       0.00817727
C        3.70188618       2.04892749       4.07535568      -0.00179327      -0.00325607       0.00476611
B        2.46607218       4.27702261       4.00072390      -0.00200001       0.00845044       0.01502360
P        1.23270194       6.23331994       2.38580676       0.00290149       0.00290365      -0.00099774
C       -0.01792590       8.49433132       3.51856659       0.00208568      -0.00179219       0.00545669
C        7.39004659      -0.05374422       3.80037801      -0.01046182       0.00494855       0.00027781
C        6.16908247       2.05688877       4.08676767      -0.00108820       0.00453961      -0.00304048
C        4.95886088       4.19197958       4.16812575       0.00454548      -0.00300041       0.00051732
S        3.63677344       6.58317064       1.74565919      -0.00364665       0.00618168       0.00984663
C        2.45773482       8.61091867       3.17754578      -0.00258901      -0.00956466       0.00319652
C        9.86764719      -0.04734610       3.76004566      -0.00356326       0.00373977       0.00310565
C        8.62814223       2.06860330       4.01441418      -0.00734640       0.00245761       0.00358849
C        7.40009846       4.20824473       4.08239721      -0.00212914       0.00335255       0.00067096
C        6.12754555       6.34223090       3.92454531       0.00088129      -0.00140524      -0.00391896
C        4.95658832       8.51378290       3.43391351       0.00877350      -0.00701531      -0.00043229
C       -0.01134649       1.34900836       3.95584840       0.00464736      -0.00000863      -0.00279350
C       -1.26499981       3.48406195       3.93372341       0.00477791      -0.00310425      -0.00197779
C       -2.49064124       5.62800696       3.82933534       0.00373863      -0.00124411       0.00826790
C       -3.71725021       7.76436926       3.81765521      -0.00159258      -0.00145986       0.00473944
C       -4.94296329       9.89854624       3.85624590       0.00017589      -0.00106265      -0.00034245
C        2.46171035       1.34643647       4.00602983      -0.00575663      -0.00046827      -0.00186232
C        1.18707789       3.48074978       3.91884686      -0.00270178       0.00422470      -0.00408757
C       -0.07404722       5.57261899       3.44745232       0.00146229       0.00291318      -0.00311631
C       -1.24056411       7.76614356       3.61134751       0.00104142       0.00133760      -0.01167121
C       -2.47351849       9.89450945       3.87190347       0.00329771       0.00066684      -0.00375023
C        4.93714004       1.33775075       4.04260070       0.00328322       0.00211352       0.00213205
C        3.73934995       3.46604339       4.11998731       0.00224774      -0.00152684       0.00302875
C        1.24287516       7.85496496       3.18615297      -0.00383438      -0.00190048      -0.00516255
C       -0.00808145       9.90310352       3.75243574      -0.00081861      -0.00175832       0.00934065
C        7.39715703       1.35247780       3.99300946      -0.00831076       0.00326166       0.01025212
C        6.18774873       3.47749147       4.15394774       0.00377202       0.00085388      -0.00755154
C        4.93765732       5.61505446       4.12027256       0.00113594      -0.00277823      -0.01265126
C        3.72449357       7.96101069       2.85113607       0.00563866      -0.01486356       0.00480413
C        2.46096427       9.96371124       3.59950765      -0.00941818       0.00358832      -0.01714093
C        9.86073135       1.35806658       3.94534357       0.00064901       0.00666869      -0.00073434
C        8.62770080       3.49252977       4.04156475      -0.00346080       0.00088123      -0.00564208
C        7.38376862       5.63228638       3.98341665      -0.00108586      -0.00010845      -0.00680239
C        6.13965539       7.76718596       3.69880157       0.00659578      -0.00482590       0.00070829
C        4.93579962       9.91479912       3.69596431       0.00265158      -0.00297759      -0.00069523
Mo       2.92073881       6.33650695       4.06583121      -0.00266559      -0.00121310      -0.00664931
O        3.24957197       7.76266398       6.31703448       0.00446272       0.00086245      -0.00649153
O        2.79013011       7.06018050       7.41401197      -0.01440284      -0.00113025       0.00809002
H        3.47442235       6.36993844       7.53773167      -0.00002052      -0.00043395      -0.00308872
