52
Lattice="12.336457 0.0 0.0 -6.168228499999997 10.683685154694365 0.0 0.0 0.0 15.0" Properties=species:S:1:pos:R:3:forces:R:3 energy=-444.48592232766237 free_energy=-444.48592232766237 stress="-0.0012605274875116214 0.0027285634882591296 0.00012398371074860288 0.0027285634882591296 -0.005596704948656525 4.9387833309767754e-05 0.00012398371074860288 4.9387833309767754e-05 1.522720893287641e-05" pbc="T T T"
C       -0.07788806       0.11267384       3.72476296       0.00363500      -0.00258130       0.02338301
C       -1.31074078       2.25056775       3.90821183      -0.00495474      -0.00546171       0.01773626
C       -2.57494929       4.38417737       3.87868855      -0.00607257       0.00515526       0.00928473
C       -3.81659748       6.51063553       3.77363095      -0.00277384       0.00031693      -0.00804328
C       -5.03923946       8.63615809       3.70389039      -0.00689960       0.00385396       0.00440106
C        2.38989096       0.10221064       3.64703086       0.00257223       0.00273148      -0.00820228
C        1.19339887       2.18164776       4.10397892      -0.00544108      -0.01418512       0.01347827
C       -0.19674700       4.38841374       4.43503325       0.01229071      -0.01824517      -0.02286661
C       -1.35651092       6.53464163       4.00706469       0.01036288       0.00456022      -0.00217891
C       -2.56247764       8.64525228       3.70595187      -0.00675115      -0.00576141       0.02430969
C        4.84604182       0.09749069       3.53930243      -0.00540381       0.00689599      -0.01514061
C        3.65785367       2.20840578       3.57508263      -0.00471283      -0.00174061       0.00047434
P        1.39835321       6.48876087       4.66372772      -0.00105032      -0.00951565       0.01999279
C       -0.10152704       8.68054664       3.81698060       0.01537799       0.00717206       0.01368506
C        7.31394547       0.13017319       3.53863057      -0.00127340       0.00620795       0.01604004
C        6.09489109       2.23661826       3.44232524       0.00630650      -0.00055588      -0.01291927
C        4.86847296       4.31569032       3.60055963       0.00171146      -0.00466646       0.00769943
B        3.50249887       6.53851803       4.16103695      -0.00686897       0.00147548       0.02173614
C        2.38608347       8.74337888       3.77184691       0.00598439      -0.00753688      -0.02391455
C        9.80046861       0.14246926       3.61786078       0.00898576      -0.00024937       0.00218525
C        8.55994745       2.25841771       3.61219174       0.00533240       0.00165405      -0.02112041
C        7.30660013       4.37928259       3.62896956       0.01032116       0.02035271       0.01618304
C        6.02659422       6.47690742       3.79333762      -0.00091776       0.00771169       0.00554878
C        4.84447501       8.66535948       3.72315604       0.00314034      -0.00315325      -0.00303728
C       -0.06566861       1.53491136       3.91000485       0.00065478      -0.00866529       0.01208917
C       -1.36151675       3.65741191       4.07417498      -0.00265630      -0.00580577      -0.00503659
C       -2.58265988       5.80969937       3.88388504       0.00231350       0.00655856      -0.01772520
C       -3.80456238       7.93258361       3.72544265      -0.01289823      -0.00774120       0.00155655
C       -5.02024157      10.06901948       3.68883500       0.00558031       0.00286705      -0.02111729
C        2.41763453       1.53244876       3.74612028      -0.00613527      -0.00112931      -0.00602111
P        1.27099482       3.65016165       5.05112551      -0.01469267      -0.01136500       0.00116267
C       -0.17368161       5.79402620       4.30792032       0.00008066      -0.00853553       0.02643320
C       -1.33300506       7.94796045       3.84744512       0.01210789       0.01306722       0.01173510
C       -2.55526629      10.07015845       3.60732393      -0.00244071      -0.00526979       0.00672479
C        4.86035984       1.52201021       3.46382802      -0.00386442       0.00960662       0.00112116
O        3.69542856       3.58388470       3.55821903      -0.00156815       0.00254519      -0.03524369
C        1.15941273       8.07034604       4.00584394       0.01196279      -0.01365748       0.01110098
C       -0.08949277      10.08923529       3.60062379      -0.00161379       0.00676537      -0.00594490
C        7.32167283       1.54811243       3.49578701       0.00525837       0.00061769       0.01015979
C        6.08979981       3.65027249       3.48889234       0.01160545       0.00847288      -0.01158027
C        4.79227413       5.70453891       3.92283857       0.00255609       0.00997855      -0.00387552
C        3.59409946       8.01208523       3.81749823       0.00305452       0.00314585       0.00506976
C        2.38831473      10.13957361       3.59256294       0.00423443       0.00260620      -0.00186726
C        9.80126276       1.55694395       3.69046572       0.00296634       0.00331788      -0.02222134
C        8.54457558       3.67587528       3.68946711       0.00485081       0.00654083      -0.01091359
C        7.27858627       5.79262928       3.73199594      -0.00157389       0.00774544      -0.00263246
C        6.05690204       7.91391379       3.75735257      -0.00202617       0.00400958      -0.02049470
C        4.85805672      10.09875092       3.66682764       0.00500499      -0.00314313       0.00346323
Mo       2.99598216       5.18536116       5.68490225       0.00481030      -0.00553677       0.02082157
O        4.69367561       4.27881321       6.85068367      -0.01417122      -0.02358792      -0.01183025
O        4.75595047       2.89763506       6.42604515       0.03322638      -0.00022211       0.04032115
H        4.80202699       2.46917495       7.30546940      -0.07952754       0.01237939      -0.05396964
