52
Lattice="12.336457 0.0 0.0 -6.168228499999997 10.683685154694365 0.0 0.0 0.0 15.0" Properties=species:S:1:pos:R:3:forces:R:3 energy=-449.3197775270167 free_energy=-449.3197775270167 stress="-0.004367347518169611 -0.0020639086266541385 -5.678781284386702e-06 -0.0020639086266541385 -0.004225008802105906 1.590297347485465e-05 -5.678781284386702e-06 1.590297347485465e-05 -3.5625625880015944e-05" pbc="T T T"
C       -0.00697391      -0.02202253       3.58037981      -0.00456971       0.00213423       0.00352750
C       -1.25741826       2.11040776       3.74112944       0.00030130       0.00278132       0.00364406
C       -2.49500621       4.25799613       3.55597660      -0.00313147       0.00263248       0.00165873
C       -3.69938472       6.40078115       3.38795251      -0.00325145      -0.00572363      -0.00610784
C       -4.92610300       8.54189663       3.38825148      -0.00470791       0.00398335      -0.00393061
C        2.46922800      -0.02831198       3.59562236      -0.00006403       0.00102251       0.01070144
C        1.21693108       2.01011883       4.09327479       0.00521463      -0.00437075       0.00351305
C       -0.12475624       4.28456163       4.08051432      -0.00109452       0.00319025      -0.00561758
C       -1.25822297       6.40798968       3.65203145      -0.00071721      -0.00319052       0.00485285
C       -2.45809573       8.53629460       3.47026129       0.00245287      -0.00147428       0.00945731
C        4.93526691      -0.00989172       3.63476716      -0.00040201       0.00390092      -0.00606572
C        3.68982414       2.10069767       3.95692499      -0.00413068       0.00296321       0.00965308
B        1.18500177       6.42167409       4.36810491      -0.00216127       0.00242686       0.01019565
C        0.00111319       8.53691040       3.72828430       0.00943323      -0.00857275       0.00918073
C        7.39974572      -0.01176629       3.64526577      -0.00249743      -0.00037384       0.00298608
C        6.15550874       2.13774702       3.69435944       0.00290010      -0.00095538      -0.00387234
C        4.95686631       4.32712060       3.93237211       0.00924513      -0.01168326      -0.00186162
N        3.84579161       6.46967672       4.07108621       0.01319146       0.00624578      -0.00495632
C        2.48743576       8.52623183       3.82983050      -0.00262029      -0.00096131      -0.00846692
C        9.86144877      -0.01835794       3.60064442      -0.00359819      -0.00598009       0.00168872
C        8.61947712       2.12301705       3.56964007       0.00037000       0.01409337      -0.00569333
C        7.38787622       4.27009555       3.51333774      -0.00002248       0.00815129       0.00507593
C        6.18295023       6.42609598       3.47796088      -0.00084628      -0.00125653      -0.01108193
C        4.94409896       8.53293590       3.54737926      -0.00513078      -0.00534585       0.00049389
C       -0.02480292       1.38454835       3.80325889       0.00236053       0.00515596      -0.00078838
C       -1.28464133       3.53192402       3.77220976      -0.00474252       0.00414585       0.00270639
C       -2.48222126       5.68428615       3.49537434      -0.00251097      -0.00398454       0.00360875
C       -3.69188916       7.82696423       3.38368485      -0.00225261      -0.00091202      -0.00626582
C       -4.93394354       9.95875913       3.49886358      -0.00425339       0.00748872       0.00462970
C        2.46734850       1.36707042       3.87390222       0.00311088      -0.00154005       0.00282198
P        1.27378500       3.56983904       4.85299563       0.00903964      -0.00263506      -0.00514158
C       -0.08505653       5.69462133       3.98719709       0.00439982       0.00260113      -0.00221550
C       -1.23134605       7.82716986       3.60714428       0.00707930      -0.00517968       0.00024345
C       -2.46154072       9.95638391       3.54335972       0.00003439       0.00101752       0.00650001
C        4.92798034       1.41919356       3.75858167      -0.00474155       0.00587859      -0.01013434
B        3.69448958       3.58279528       4.30945470      -0.00347468       0.00363439       0.00501101
C        1.24133274       7.85432169       3.95229362       0.00894591      -0.00976227      -0.00339037
C       -0.00275728       9.96434424       3.65169410       0.00098440      -0.00533413      -0.01659114
C        7.38728660       1.41654521       3.61157827       0.00370230       0.00534214       0.00649243
C        6.15356322       3.57199173       3.69558523       0.01006643      -0.00355069      -0.00612363
C        4.98576396       5.75469881       3.79538081       0.00188691      -0.00729594      -0.01795862
C        3.74305870       7.81352218       3.80930742      -0.00536525       0.00437704      -0.00779241
C        2.47044926       9.95321115       3.66722745      -0.00597082      -0.00320950       0.00358528
C        9.85429832       1.40708825       3.61021923      -0.00143129       0.00022351      -0.00267415
C        8.61377158       3.54875930       3.51413358      -0.00439417       0.01421605       0.00128896
C        7.40248108       5.69131591       3.42329812      -0.00315333       0.00227496       0.00416590
C        6.17682524       7.83830765       3.43121557      -0.00303226      -0.00263600       0.00464042
C        4.92926061       9.95469859       3.54865914      -0.00189046      -0.00896817      -0.00274878
Mo       2.72355318       5.26323860       5.35886720      -0.00795451       0.00672109      -0.00184554
O        2.75286156       5.19145370       7.11980759      -0.00110380      -0.01188223       0.01222712
O        2.64721589       5.19546100       8.78416044       0.00484527      -0.00614848       0.00723018
H        3.61540091       5.28076731       8.90683787      -0.00434717       0.00632443      -0.00045616
