52
Lattice="12.336457 0.0 0.0 -6.168228499999997 10.683685154694365 0.0 0.0 0.0 15.0" Properties=species:S:1:pos:R:3:forces:R:3 energy=-442.2166165575084 free_energy=-442.2166165575084 stress="-0.0054446662187685145 -0.000267587264179283 -3.614365370827171e-05 -0.000267587264179283 -0.007013422133756965 1.964017310703334e-06 -3.614365370827171e-05 1.964017310703334e-06 1.4772382903598743e-05" pbc="T T T"
C       -0.02736121       0.00536980       3.64905466       0.00339189       0.00448755       0.00141475
C       -1.25425488       2.15782233       3.51265287      -0.00085647      -0.00683689      -0.00849085
C       -2.50286884       4.29410207       3.75481504       0.00804108       0.00003355       0.00341687
C       -3.73523901       6.42183942       3.90809421       0.00039052       0.00160884       0.00416883
C       -4.96647051       8.55017881       3.85144712      -0.00414440       0.00505494      -0.00106123
C        2.44265129      -0.02774493       3.67572440      -0.00148653       0.00262834      -0.00684451
C        1.21290646       2.03131498       3.18790534      -0.00150816       0.00430125       0.00203464
C       -0.11312076       4.35070894       3.44726493      -0.00502228       0.00471994       0.00226049
C       -1.27117260       6.42308842       4.04227116       0.00838134      -0.00435826       0.00567920
C       -2.48999239       8.55351821       4.00434958       0.00412216       0.00509058       0.00302514
C        4.90959567       0.01733170       3.84302284      -0.00195331       0.00071997      -0.01353547
C        3.66875576       2.10494705       3.28814100      -0.00375990      -0.00815948      -0.00723412
P        1.48042349       6.20736184       4.65398039      -0.00148854       0.00971207       0.00185683
C       -0.02268144       8.57886677       4.18747335      -0.00179495      -0.00542043      -0.00515550
C        7.37226269       0.04142930       3.91711982      -0.00383061       0.00067828       0.00367822
C        6.14885129       2.14299053       3.61472948       0.00064199      -0.00356284      -0.00104737
C        5.01052644       4.30152335       3.21572206       0.00444177       0.00891276      -0.00108930
B        3.58233475       6.41098825       3.82714878      -0.00637290      -0.00648271      -0.00189871
C        2.44633242       8.63797724       4.06440338       0.00068759      -0.00092185       0.00176287
C        9.85178113       0.04113921       3.77823350       0.00076852       0.00167111       0.00881899
C        8.61542205       2.15869937       3.72840936       0.00251640       0.00770951      -0.00094384
C        7.38589854       4.28717787       3.72283131       0.00290308      -0.00455583      -0.00102375
C        6.13732317       6.42344415       3.76134489      -0.00373174       0.00123591       0.00705865
C        4.90668259       8.57688121       3.82396580      -0.00571984      -0.00163925      -0.00201697
C       -0.03306372       1.42276726       3.44624924       0.00028892       0.00176364      -0.00624577
C       -1.28313691       3.57859653       3.54595644       0.00127088      -0.00430639      -0.00473887
C       -2.50206510       5.71306543       3.90917876       0.00628357      -0.00100893       0.00116250
C       -3.72965754       7.84369874       3.93769534       0.00026534       0.00817012       0.00441203
C       -4.96471975       9.96798744       3.73846542       0.00071504       0.00465153      -0.00074842
C        2.43654271       1.36349920       3.36190443      -0.00429822      -0.00062022      -0.00264955
S        1.26788482       3.67050690       2.62420659      -0.00323200      -0.01114296       0.00334802
C       -0.06583829       5.65961554       3.95699611       0.01234838       0.00042441       0.01115423
C       -1.25835582       7.84795043       4.13044932       0.00205662      -0.00663533       0.00664607
C       -2.49019768       9.97038560       3.86535539      -0.00108568       0.00552370       0.00043279
C        4.91549870       1.42538268       3.58848228      -0.00181481      -0.00183548      -0.00238672
P        3.84910144       3.45727091       2.04490664      -0.00714322      -0.00411862       0.00223481
C        1.23461871       7.93650467       4.31380473      -0.00079341       0.00286103       0.00016572
C       -0.02783021      10.00460508       4.00584564      -0.00566649      -0.00222715       0.00663644
C        7.38122710       1.44762970       3.76630074       0.00367925       0.00372134       0.00675841
C        6.19300855       3.55263296       3.51543939       0.00110512      -0.00217671      -0.00310423
C        4.91429285       5.69745821       3.59521586      -0.00390873       0.00609037       0.00078933
C        3.65808767       7.91788440       3.89951318      -0.00491882      -0.00738914      -0.00115559
C        2.44530556      10.04295893       3.93407350      -0.00171433      -0.00050461       0.00391960
C        9.85771438       1.45778818       3.67750435      -0.00404715       0.00016184      -0.01131049
C        8.61252985       3.57798264       3.74837666       0.00713966       0.00511190      -0.00158156
C        7.37302598       5.71219798       3.80004139      -0.00257712      -0.00422974       0.00778529
C        6.13646974       7.84661561       3.82213039      -0.00448866       0.00080113      -0.00491966
C        4.91000253      10.00026797       3.76023580       0.00275425       0.00087162       0.00204801
Mo       3.04828790       4.37979145       4.02543422       0.00429721      -0.00440967      -0.00558695
O        3.00463931       4.26459350       7.20930970      -0.00480618      -0.00323819       0.00157736
O        3.09376890       4.31494492       8.56478032       0.00824017      -0.00443718      -0.00406341
H        4.05463356       4.39641510       8.76158494       0.00543373       0.00150064      -0.00541328
