51
Lattice="12.336457 0.0 0.0 -6.168228499999997 10.683685154694365 0.0 0.0 0.0 15.0" Properties=species:S:1:pos:R:3:initial_magmoms:R:1:forces:R:3 energy=-449.307168983828 free_energy=-449.307168983828 stress="-0.002213380301926723 0.003929435823314736 4.055223250782386e-06 0.003929435823314736 0.0016914426027103563 -7.817504393225202e-06 4.055223250782386e-06 -7.817504393225202e-06 4.198294824365837e-06" pbc="T T T"
C       -0.19877122       0.21529918       3.65319309       0.00000000      -0.00102004      -0.00298195       0.00231821
C       -1.42984045       2.33437083       3.65990195       0.00000000       0.00562624      -0.00071870      -0.00561945
C       -2.68501197       4.46737853       3.56673998       0.00000000      -0.00228066      -0.00332711      -0.00722591
C       -3.93536859       6.60363399       3.50496583       0.00000000       0.00275791      -0.00145509       0.00155840
C       -5.16379313       8.74251781       3.57300902       0.00000000      -0.00284041       0.00386429      -0.00568205
C        2.26219793       0.23470701       3.57145064       0.00000000      -0.00252208       0.00347074      -0.00361985
C        1.06010009       2.40492165       3.79994833       0.00000000       0.00075681      -0.00449140      -0.00801004
C       -0.24497274       4.47539297       3.92096514       0.00000000       0.00089406       0.00327533      -0.00255340
C       -1.48864599       6.61828057       3.69308729       0.00000000       0.00033788      -0.00435238      -0.00955299
C       -2.70100430       8.75169130       3.55944387       0.00000000      -0.00304477      -0.00210967      -0.00367629
C        4.72532934       0.18319497       3.48315995       0.00000000      -0.00352709      -0.00221218      -0.00281016
C        3.54873004       2.31280245       3.38580061       0.00000000       0.00072180       0.00058991       0.00436274
C        0.93745424       6.63364612       4.01700260       0.00000000       0.00473843       0.00050839       0.00550818
C       -0.23023435       8.74028432       3.65689951       0.00000000      -0.00270056       0.00415461       0.00271518
C        7.20258599       0.17584290       3.52756819       0.00000000       0.00674579       0.00481411      -0.00508045
C        5.98898274       2.29973486       3.32532228       0.00000000      -0.00361045      -0.00007362      -0.00495759
C        4.76618337       4.38846802       3.30410305       0.00000000       0.00717488      -0.00321212       0.01388348
B        3.45861386       6.52130319       3.97871561       0.00000000      -0.01614535      -0.00719583      -0.00276136
C        2.25233761       8.73498647       3.76789051       0.00000000      -0.00037652      -0.00589757       0.00555524
C        9.66908416       0.18960292       3.61694793       0.00000000      -0.00086602       0.00365800       0.00924264
C        8.44556575       2.31870684       3.46522056       0.00000000      -0.00098946       0.00622838       0.00314451
C        7.20310862       4.45663536       3.37178850       0.00000000       0.00255911      -0.00247402       0.01217235
C        5.92518618       6.56465660       3.51255649       0.00000000       0.00424596      -0.00566276      -0.00194130
C        4.71907749       8.73064831       3.68793928       0.00000000      -0.00116259       0.00135302       0.00224955
C       -0.18140081       1.64850821       3.70868664       0.00000000       0.00399811      -0.00589027      -0.01042433
C       -1.45992598       3.75408444       3.69466566       0.00000000       0.00099778       0.00041608      -0.00830669
C       -2.70583758       5.89550360       3.57590906       0.00000000      -0.00170895      -0.00577180       0.01101874
C       -3.93351497       8.03289284       3.54026758       0.00000000      -0.00335156       0.00043729      -0.00425810
C       -5.14153834      10.18241350       3.61025367       0.00000000      -0.00127672       0.00359759      -0.00373100
C        2.29371323       1.67471956       3.59513141       0.00000000      -0.00076739       0.00029798      -0.01205349
C        0.99136658       3.79372525       4.06812417       0.00000000       0.00247019       0.00193934      -0.00704635
C       -0.27559805       5.90525007       3.91503679       0.00000000       0.00194622       0.00353312      -0.00637551
C       -1.47103802       8.03906015       3.63142344       0.00000000      -0.00167769      -0.00255147       0.00441383
C       -2.68786817      10.18148913       3.53117606       0.00000000      -0.00516695      -0.00105201      -0.00639704
C        4.75153596       1.59912026       3.38006564       0.00000000      -0.00306294      -0.00166476       0.01115242
O        3.61693227       3.65029489       3.08712466       0.00000000       0.00143027       0.00068533      -0.00573494
C        1.00639745       8.02903257       3.80954523       0.00000000      -0.00444926       0.00465022       0.00712297
C       -0.20975198      10.15268990       3.54463588       0.00000000       0.00319204       0.00571991      -0.00173620
C        7.21121382       1.59830429       3.42105189       0.00000000      -0.00052379       0.00722199       0.00045570
C        5.99109338       3.71558816       3.27872787       0.00000000       0.00591435      -0.00218582       0.00820272
C        4.71298387       5.78427367       3.54338068       0.00000000       0.00134946      -0.00346150       0.00774373
C        3.47732864       8.02985733       3.80904657       0.00000000       0.00111088      -0.00390527       0.00638538
C        2.26297858      10.16091723       3.62933354       0.00000000       0.00286740      -0.00355639       0.00710176
C        9.67495890       1.61312910       3.56981300       0.00000000       0.00006366       0.00531665       0.00478279
C        8.43582445       3.74669012       3.44630803       0.00000000      -0.00246220       0.00115548       0.00267799
C        7.17498874       5.87760962       3.43988470       0.00000000       0.00646891      -0.00481220      -0.00007148
C        5.93711753       8.00328357       3.60088663       0.00000000      -0.00069878      -0.00058554       0.00085080
C        4.73448134      10.16924526       3.65713311       0.00000000      -0.00220772       0.00297535       0.00057089
Mo       2.08589511       5.32020882       5.01387372       0.00000000       0.00024141       0.01153932      -0.00934317
O        7.72715027       0.56654372      10.12214122       1.00000000      -0.00087027      -0.00096967      -0.00251719
O        7.30177968       0.10292992       9.05749809       1.00000000       0.00070068       0.00116868       0.00629613
