51
Lattice="12.336457 0.0 0.0 -6.168228499999997 10.683685154694365 0.0 0.0 0.0 15.0" Properties=species:S:1:pos:R:3:initial_magmoms:R:1:forces:R:3 energy=-437.66945529954967 free_energy=-437.66945529954967 stress="-0.0046842169553456756 0.0005903652667704821 3.427396078899508e-06 0.0005903652667704821 -0.00773992918528556 -4.4361256531430575e-06 3.427396078899508e-06 -4.4361256531430575e-06 -3.693277211442094e-06" pbc="T T T"
C        0.05770065      -0.06905620       3.74791607       0.00000000      -0.00578566      -0.00960491      -0.00879283
C       -1.17718100       2.06908986       3.54027079       0.00000000       0.00927979       0.01461056       0.00045203
C       -2.39760636       4.21596474       3.72501112       0.00000000      -0.00937683      -0.00543437       0.00973330
C       -3.62367438       6.35413262       3.93382542       0.00000000      -0.00087598       0.00107844       0.00294447
C       -4.87026318       8.48643592       3.95600095       0.00000000      -0.00157888       0.00167273      -0.00498011
C        2.52225466      -0.08553572       3.68375589       0.00000000       0.00578167      -0.00212516      -0.01511390
C        1.26859498       1.94360561       3.08790866       0.00000000      -0.00531844      -0.00956004       0.00383984
C       -0.10025629       4.21380570       2.93248673       0.00000000       0.00494144       0.00222278      -0.00986755
C       -1.20975770       6.37682926       3.45114130       0.00000000      -0.00035736      -0.00388681       0.00710912
C       -2.39729403       8.48444780       3.78485078       0.00000000      -0.00232882       0.00165696      -0.00579947
C        4.99460374      -0.05781345       3.70101074       0.00000000       0.00372285       0.00039162      -0.00631545
C        3.75757505       1.99239570       3.29879246       0.00000000       0.00103739      -0.00188762       0.00346208
S        1.26991594       6.52106267       2.16132616       0.00000000      -0.00147677      -0.00572681      -0.00437974
C        0.05444188       8.50673275       3.52817899       0.00000000      -0.00419994       0.01008508      -0.00511198
C        7.46188016      -0.04371597       3.75364124       0.00000000       0.00418667       0.00815743      -0.00861752
C        6.23699140       2.08177769       3.70030404       0.00000000      -0.00505856      -0.00078442       0.00271925
C        5.10082555       4.26131045       3.65171981       0.00000000       0.00699996      -0.00558921      -0.00278953
B        3.68126568       6.31253462       3.80849309       0.00000000       0.00424480       0.00587720       0.00528286
C        2.52549007       8.52131084       3.61684018       0.00000000       0.00174824      -0.00025350      -0.00080843
C        9.93357337      -0.05021940       3.80751498       0.00000000       0.00532427       0.00374509       0.00202736
C        8.70460404       2.08433324       3.81851305       0.00000000       0.00307686      -0.00379297       0.00431290
C        7.49505695       4.21883901       3.93294259       0.00000000      -0.00570467       0.00207103       0.00434659
C        6.25235957       6.36424328       4.03825769       0.00000000      -0.00577089      -0.00671121      -0.00104290
C        4.98753015       8.48635808       3.90533084       0.00000000       0.00677606      -0.00649222       0.00442914
C        0.04948401       1.33854003       3.46922477       0.00000000      -0.00502022      -0.00716495      -0.00761762
C       -1.21272184       3.48205039       3.43331035       0.00000000       0.00230255       0.01372176       0.00041132
C       -2.39968642       5.64575587       3.73884283       0.00000000      -0.00459101      -0.00665618       0.00357741
C       -3.63163615       7.77622126       3.91647831       0.00000000      -0.00214475       0.00319165       0.00161642
C       -4.87570882       9.90220275       3.81564247       0.00000000       0.00068218       0.00209790      -0.00627227
C        2.51721843       1.30728355       3.35567110       0.00000000       0.00097644      -0.00222630       0.00047312
S        1.15270615       3.35171687       2.01363797       0.00000000       0.00408494      -0.00797326      -0.00938148
C       -0.08737078       5.66084429       2.94641262       0.00000000       0.00168401       0.00203184       0.00091475
C       -1.17575958       7.78598134       3.57556046       0.00000000      -0.00282542       0.00047613       0.00331310
C       -2.40389355       9.90774912       3.74799208       0.00000000       0.00610833       0.00039120       0.00298713
C        4.99809532       1.36449123       3.58281106       0.00000000      -0.00223974      -0.00291695       0.00489893
P        3.72609728       3.65707091       2.76550728       0.00000000      -0.00103993       0.00727654       0.01824938
C        1.29881594       7.87706722       3.27968173       0.00000000      -0.00534396      -0.00092437       0.00610207
C        0.06086782       9.92440253       3.69903032       0.00000000       0.00417152       0.00910944       0.00521363
C        7.46533688       1.37729360       3.78851938       0.00000000      -0.00207879       0.00449899       0.00191105
C        6.27551739       3.49794501       3.78170302       0.00000000       0.00062249      -0.00314504       0.00511487
C        5.04318456       5.64560616       3.90408102       0.00000000      -0.00403135      -0.00745328      -0.00327488
C        3.74014573       7.80633028       3.77741484       0.00000000       0.00630356       0.00243010      -0.00083965
C        2.52451944       9.93938816       3.76122662       0.00000000       0.00388747       0.00337725      -0.00459448
C        9.93978748       1.37269399       3.75458971       0.00000000       0.01253853       0.00769192      -0.00922665
C        8.71605242       3.50475793       3.86622330       0.00000000      -0.01102571      -0.00568454      -0.00358245
C        7.48837846       5.64255066       4.01176167       0.00000000      -0.00307282       0.00179301       0.00475782
C        6.23097904       7.78266730       4.00253947       0.00000000       0.00259720      -0.00750831      -0.00076058
C        4.99371675       9.91392915       3.84520141       0.00000000      -0.00142659      -0.00875474       0.00464111
Mo       1.91739752       4.92189009       3.62581763       0.00000000      -0.01040417       0.01259775       0.00430990
O        1.29097342       5.80484215       9.48385969       1.00000000      -0.00435942       0.00421076       0.00016126
O        0.40158339       6.66372330       9.51298494       1.00000000       0.00435745      -0.00420798      -0.00014276
