51
Lattice="12.336457 0.0 0.0 -6.168228499999997 10.683685154694365 0.0 0.0 0.0 15.0" Properties=species:S:1:pos:R:3:initial_magmoms:R:1:forces:R:3 energy=-449.081597014362 free_energy=-449.081597014362 stress="-0.002858384348270039 -0.0037270300524862897 2.4305169232162757e-05 -0.0037270300524862897 0.0014998855524737792 -3.040075394119468e-05 2.4305169232162757e-05 -3.040075394119468e-05 4.9021764647997935e-06" pbc="T T T"
C       -0.39611165      -0.08415716       3.51237029       0.00000000      -0.00590351      -0.00025898      -0.00243554
C       -1.66381710       2.02436594       3.53140784       0.00000000      -0.00592457      -0.00696672       0.00872609
C       -2.90795793       4.17368086       3.54060097       0.00000000       0.00944576       0.01120588      -0.00437463
C       -4.09479991       6.32391211       3.52663279       0.00000000       0.00199078       0.00321796      -0.00667814
C       -5.31040876       8.47451060       3.49398108       0.00000000      -0.00145538      -0.00883391      -0.00508319
C        2.08151638      -0.07023749       3.66575036       0.00000000      -0.00480752      -0.00221184       0.00396128
C        0.80803080       2.03601622       3.79856028       0.00000000       0.00345233       0.00619043       0.00768854
C       -0.49326344       4.14060288       3.88930366       0.00000000      -0.00188048      -0.00270431      -0.00667144
C       -1.64311708       6.30832024       3.76686382       0.00000000       0.00373151       0.00375127       0.00437709
C       -2.84408397       8.46181118       3.65138020       0.00000000      -0.00050029      -0.00025919       0.00439251
C        4.54354087      -0.07865059       3.65899380       0.00000000       0.01260295      -0.00455952      -0.00371479
C        3.29843824       2.10491399       3.80488668       0.00000000       0.00622363       0.00491320       0.00167297
B        0.86991636       6.25179114       4.17400865       0.00000000      -0.02100328       0.00667909       0.00350900
C       -0.36478784       8.43393110       3.73374367       0.00000000       0.00184302      -0.00567532       0.00002531
C        7.00579740      -0.10706954       3.51904915       0.00000000       0.00545789      -0.00392002       0.00378471
C        5.75310034       2.06163374       3.52904492       0.00000000      -0.00159711      -0.00545484      -0.00376808
C        4.50792100       4.24081053       3.59107910       0.00000000       0.00304402      -0.00437108       0.00486203
O        3.43827633       6.40830056       3.11576601       0.00000000      -0.00152926       0.00096079      -0.00438682
C        2.10537000       8.40780675       3.52899583       0.00000000      -0.00038959       0.01163455       0.00478475
C        9.46235255      -0.10909052       3.41950644       0.00000000      -0.00072796      -0.00285902       0.00226470
C        8.21371531       2.03669414       3.42740792       0.00000000      -0.00510797      -0.00783884       0.00683798
C        6.97818377       4.19110185       3.43402481       0.00000000       0.00340449       0.00014401       0.00070312
C        5.79059747       6.34863745       3.40396385       0.00000000      -0.00156805       0.00562869       0.00637992
C        4.56611171       8.46708529       3.37916622       0.00000000      -0.00624803       0.00354210       0.01383765
C       -0.42375596       1.32447668       3.60053624       0.00000000       0.00248840       0.00365924      -0.01682869
C       -1.69664809       3.43984769       3.61589541       0.00000000      -0.00012400      -0.00408558       0.00795773
C       -2.88215747       5.60088204       3.60928770       0.00000000       0.00833616       0.01250309      -0.01031344
C       -4.07730483       7.75425465       3.55797062       0.00000000       0.00072137      -0.00296873       0.00676732
C       -5.31578398       9.90216043       3.55536177       0.00000000      -0.00869105      -0.00946093       0.01438456
C        2.06944694       1.35726678       3.78712763       0.00000000       0.00541447       0.00468439       0.00249673
C        0.71144695       3.41316741       4.03271702       0.00000000       0.00528107       0.01074789       0.00551416
C       -0.45791214       5.55576177       3.96554182       0.00000000      -0.00210619      -0.00510493      -0.00916404
C       -1.61257942       7.73600139       3.73752851       0.00000000      -0.00004743       0.00014972      -0.00886359
C       -2.85410538       9.89216516       3.66874185       0.00000000       0.00396620       0.00173679      -0.00903642
C        4.53243901       1.35450611       3.65225887       0.00000000       0.00372897      -0.00319262       0.00166145
C        3.33676552       3.52975303       3.92972319       0.00000000      -0.00343502       0.00834652       0.00777782
C        0.88498283       7.72071587       3.78759428       0.00000000       0.00100255       0.00147414      -0.00843322
C       -0.39006145       9.87281316       3.63063694       0.00000000       0.01130121      -0.00956770      -0.00365554
C        6.98810520       1.32641638       3.47071944       0.00000000      -0.00480547      -0.00783170       0.00041075
C        5.74587829       3.49344640       3.47766441       0.00000000       0.00126467      -0.00506421      -0.00824013
C        4.56927137       5.66923398       3.41568656       0.00000000       0.00382192      -0.00462524      -0.00532925
C        3.36510889       7.75483245       3.36906525       0.00000000      -0.00645158       0.00399292      -0.00429890
C        2.07635577       9.84735474       3.46519407       0.00000000       0.00198409       0.00499088       0.00038606
C        9.44614693       1.31760104       3.43441448       0.00000000      -0.00760922      -0.01069875       0.01448393
C        8.20548979       3.46510145       3.44390051       0.00000000       0.00812708       0.00034529       0.00004074
C        7.00622585       5.61347113       3.44927816       0.00000000      -0.00061953       0.00448475       0.00181939
C        5.80186390       7.76697065       3.40347722       0.00000000      -0.00430723       0.00409865      -0.00865494
C        4.53894759       9.88592432       3.42634433       0.00000000      -0.00471233       0.00055313      -0.00276349
Mo       1.94240890       4.64793547       5.04370724       0.00000000      -0.00230254      -0.00758388      -0.01946804
O       12.36781575       6.63283479      10.15321636       1.00000000      -0.01747657       0.02272637      -0.04114654
O       11.90872813       7.22375010       9.16776355       1.00000000       0.01269657      -0.01626388       0.05180059
