51
Lattice="12.336457 0.0 0.0 -6.168228499999997 10.683685154694365 0.0 0.0 0.0 15.0" Properties=species:S:1:pos:R:3:initial_magmoms:R:1:forces:R:3 energy=-446.4535226635809 free_energy=-446.4535226635809 stress="-0.00658181776752514 -6.212673736736773e-06 -5.464973486986346e-06 -6.212673736736773e-06 -0.006130295412644492 1.0902280677173679e-05 -5.464973486986346e-06 1.0902280677173679e-05 -1.0007103258575275e-05" pbc="T T T"
C        0.13823422      -0.00871238       3.39266426       0.00000000      -0.00663072      -0.00332845      -0.00778800
C       -1.10289946       2.11154518       3.34128174       0.00000000       0.00188028       0.00179313      -0.00681522
C       -2.34011390       4.24939976       3.25587812       0.00000000      -0.00541574       0.00186086       0.00258932
C       -3.56722770       6.39085439       3.26227928       0.00000000       0.00319954      -0.00099563       0.01257623
C       -4.80167152       8.53038571       3.36923023       0.00000000       0.00750989      -0.00100999       0.00631626
C        2.59858075      -0.02717050       3.43251749       0.00000000      -0.00690624      -0.00003141      -0.00198132
C        1.35786979       2.12597483       3.68916081       0.00000000       0.00086216      -0.00295725       0.00073021
C        0.07592505       4.24341722       3.66431817       0.00000000       0.01076579      -0.00352263       0.00166345
C       -1.11977092       6.39359798       3.36105935       0.00000000       0.00444800      -0.00276730      -0.00004398
C       -2.33644197       8.52786381       3.28426707       0.00000000      -0.00204267      -0.00119492      -0.00538994
C        5.07537069      -0.03821684       3.43118939       0.00000000       0.00214813      -0.00607576      -0.00714301
C        3.84443599       1.99166545       3.93991938       0.00000000      -0.00443764      -0.00106112      -0.00617782
C        1.26489493       6.41029080       3.92792317       0.00000000       0.00649237       0.00563370      -0.00284150
C        0.13353105       8.51417195       3.43870497       0.00000000      -0.00312978       0.00539298      -0.00608039
C        7.53551390      -0.02830661       3.37466194       0.00000000       0.00461010       0.00614767      -0.00066278
C        6.31809750       2.09859688       3.57425906       0.00000000      -0.00329930      -0.00523257      -0.00195165
C        5.24424649       4.25653574       4.14743033       0.00000000       0.00065118      -0.00634004      -0.00709704
P        3.81461106       6.43983462       4.80406393       0.00000000       0.00508908      -0.00618510       0.00689753
C        2.59251621       8.55301190       3.68019472       0.00000000      -0.00964130       0.00608702       0.01017249
C       10.00336613      -0.02075214       3.36809068       0.00000000      -0.00687998      -0.00109586      -0.00558833
C        8.76783909       2.10812557       3.28252160       0.00000000      -0.00132375       0.00201862       0.00114906
C        7.55438042       4.24786731       3.41216832       0.00000000       0.00413511       0.00680717       0.01620723
C        6.36096599       6.40725673       3.68416066       0.00000000       0.00083370       0.00803343      -0.00490345
C        5.09015515       8.55745223       3.64162800       0.00000000      -0.00410372       0.00223763       0.00256713
C        0.13347960       1.41165276       3.44400551       0.00000000       0.00099314      -0.00192758      -0.01517883
C       -1.11954102       3.53233404       3.36345769       0.00000000       0.00221977       0.00400429       0.00087460
C       -2.34036993       5.67624675       3.25369446       0.00000000      -0.00075641      -0.00046201       0.00893330
C       -3.56900701       7.81750169       3.27935356       0.00000000       0.00372478      -0.00419418       0.00200004
C       -4.80034964       9.95415712       3.37497911       0.00000000      -0.00409329      -0.00243091       0.00109985
C        2.59249700       1.37333360       3.68313728       0.00000000      -0.00673792      -0.00504104       0.01563224
C        1.26463236       3.51633932       3.92915439       0.00000000       0.01676234      -0.00440775       0.00497327
C        0.07590869       5.68335183       3.66343036       0.00000000       0.00837147      -0.00288877       0.00002461
C       -1.10309384       7.81435663       3.33774718       0.00000000      -0.00016283      -0.00034966      -0.00859854
C       -2.33349312       9.94681157       3.36832355       0.00000000      -0.00391964      -0.00067014      -0.00828971
C        5.09004105       1.36851742       3.64523938       0.00000000      -0.00643516      -0.00601854      -0.00766129
P        3.81671964       3.48664070       4.80885716       0.00000000      -0.00554222       0.00159842       0.00675439
C        1.35818144       7.80009683       3.68491680       0.00000000      -0.00713927       0.00729533       0.00450548
C        0.13733012       9.93472609       3.38996706       0.00000000       0.00779556       0.00368025      -0.00223692
C        7.53495133       1.39533427       3.37164888       0.00000000       0.00060682       0.00289182       0.00122996
C        6.36047608       3.51856893       3.68389551       0.00000000       0.00726927      -0.00563175       0.00925856
C        5.24303443       5.67017151       4.14461579       0.00000000       0.00926455      -0.00554447       0.00410178
C        3.84449546       7.93470409       3.93638601       0.00000000      -0.00690468       0.00088648      -0.00880857
C        2.59848341       9.95345479       3.43120868       0.00000000      -0.00479708       0.00121459      -0.00406371
C       10.00038578       1.39805836       3.28626713       0.00000000      -0.00186687      -0.00011157      -0.00210868
C        8.76973330       3.53447740       3.26575208       0.00000000      -0.00384370       0.00353310       0.00259935
C        7.55442338       5.67706877       3.41202531       0.00000000       0.00333654       0.00771684       0.01111018
C        6.31811261       7.82710085       3.57248921       0.00000000       0.00187016       0.00681974      -0.00620030
C        5.07609768       9.96454254       3.43058098       0.00000000      -0.00820936      -0.00114634      -0.00704474
Mo       2.10956684       4.96372612       5.16087140       0.00000000      -0.00037921      -0.00307760       0.00037925
O       -0.85149751       5.19286671      10.74516195       1.00000000       0.00174531      -0.00132033       0.00271960
O       -1.46875600       5.66028621       9.78098301       1.00000000      -0.00198657       0.00136757      -0.00240960
