52
Lattice="12.336457 0.0 0.0 -6.168228499999997 10.683685154694365 0.0 0.0 0.0 15.0" Properties=species:S:1:pos:R:3:forces:R:3 energy=-443.68916959191847 free_energy=-443.68916959191847 stress="-0.004353810846120177 -0.00232146360111545 -4.752229124175886e-05 -0.00232146360111545 -0.006293461227783771 4.3025834875224843e-05 -4.752229124175886e-05 4.3025834875224843e-05 1.656931926794039e-05" pbc="T T T"
C       -0.02004159      -0.00484926       3.71410735      -0.00119476       0.00732469       0.00754821
C       -1.27298113       2.12709704       3.93754465       0.00209601      -0.01048989       0.00367085
C       -2.50133838       4.27429704       3.85028347       0.00083128       0.00218467       0.00423182
C       -3.69742888       6.41658697       3.65814985       0.00111828       0.00108563      -0.00054504
C       -4.93172886       8.55526925       3.60361686       0.00065493       0.00175942      -0.00601773
C        2.45499149      -0.02143185       3.70390401      -0.00215353       0.00667014       0.00229280
C        1.21344140       2.05272059       4.13151563       0.00816330       0.00179663       0.01482838
C       -0.15987302       4.26853457       4.53732948      -0.00842765      -0.00240483       0.00099799
C       -1.27160576       6.42157934       4.10025477      -0.00486694       0.00014690      -0.00700442
C       -2.46029455       8.54080350       3.76655752       0.00270962      -0.00292784      -0.00083817
C        4.91679118       0.01144496       3.64379205      -0.00140214       0.00396870       0.00255932
C        3.64478401       2.10679271       3.52148426      -0.00464123       0.00834366      -0.00126403
S        1.31970754       6.44587600       5.00654686       0.00684082      -0.00478085      -0.01083279
C       -0.01274880       8.56763883       3.94766780      -0.00284318      -0.00452219      -0.00191298
C        7.37799527       0.01675871       3.62953602       0.00039842      -0.00734962      -0.00014094
C        6.13691022       2.15300784       3.43066918      -0.00004940       0.00060670       0.00568732
C        4.96902908       4.32635560       3.22252045      -0.00017367       0.00100560       0.00431991
C        3.75240334       6.45555366       3.64083049       0.00366421       0.00630363      -0.00213721
C        2.45303779       8.57912312       3.80904791      -0.00977040       0.00236290       0.00172848
C        9.85062627       0.01244182       3.64456687      -0.00182082      -0.00289625      -0.00918601
C        8.61077639       2.14573588       3.61452605       0.00054548       0.00342946      -0.00035279
C        7.39766039       4.28244979       3.48381791       0.00165528       0.00433372       0.00639237
C        6.20810358       6.44886522       3.43680112       0.00530899      -0.00220104       0.00224198
C        4.92571876       8.56015778       3.58036835      -0.00386110       0.00230243      -0.00216851
C       -0.03685475       1.40438821       3.93280686       0.00809266       0.00548437      -0.00524372
C       -1.30473853       3.54352593       4.10285820      -0.00320630      -0.00928354       0.00343514
C       -2.48724874       5.70009536       3.85778501      -0.00229002       0.00275662      -0.00214467
C       -3.69798376       7.83802218       3.67014604       0.00246991      -0.00107418      -0.00528148
C       -4.94921574       9.96762321       3.67473609      -0.00308547       0.00466466       0.00080186
C        2.43409788       1.39671101       3.79633673       0.00033237       0.00833584       0.00343940
P        1.24751795       3.42345570       5.25093014       0.00827878      -0.01326866       0.00073178
C       -0.14360461       5.66854704       4.49859956      -0.00714327      -0.00155323      -0.00699140
C       -1.23638553       7.83847342       3.96381448       0.00034076      -0.00348925      -0.00691668
C       -2.47289457       9.96639571       3.68984848      -0.00101822       0.00125262       0.01021625
C        4.90366499       1.44063492       3.51112408      -0.00363712       0.00811325      -0.00035655
S        3.48510099       3.60100637       2.58327713      -0.00443235      -0.00072913       0.01110726
C        1.23997615       7.93438358       4.13893967      -0.00643409      -0.00333580      -0.00161784
C       -0.01646181       9.98671141       3.71581100      -0.00203393      -0.00350424      -0.00024495
C        7.37298533       1.44145648       3.53304811       0.00238314      -0.00518194       0.00198855
C        6.16826829       3.56568106       3.35159022       0.00143631       0.00088629       0.01166192
C        4.96425238       5.75500940       3.41590304       0.00136047       0.00334037      -0.00133816
C        3.68215532       7.83998394       3.68185600      -0.00948729       0.00618334      -0.00693329
C        2.44639384       9.99320416       3.65979863      -0.00070195      -0.00322320      -0.00016476
C        9.84544346       1.43213507       3.71488670      -0.00160739      -0.00419593      -0.00105592
C        8.61766568       3.56732644       3.63190287       0.00354083       0.00782869      -0.00498238
C        7.41517845       5.71177922       3.50013143       0.00509445       0.00131354      -0.00211286
C        6.17176214       7.85922377       3.52446605      -0.00006131      -0.00076234      -0.00124709
C        4.91678901       9.97812601       3.63499643      -0.00150401       0.00352704      -0.00281845
Mo       3.17642816       4.69379895       4.56874504       0.00139791      -0.01227186      -0.01270263
O        2.69130820       5.11836202       7.34795032       0.00431719      -0.00152007       0.00903724
O        3.36188253       4.39508334       8.31437460       0.00831283       0.00264016      -0.00584432
H        4.30473884       4.58408853       8.11794474       0.00650330      -0.00898578       0.00147897
