52
Lattice="12.336457 0.0 0.0 -6.168228499999997 10.683685154694365 0.0 0.0 0.0 15.0" Properties=species:S:1:pos:R:3:forces:R:3 energy=-443.74658441386106 free_energy=-443.74658441386106 stress="-0.0064615217181915405 0.0016556053949192142 -8.145778383372312e-06 0.0016556053949192142 -0.003195128290546916 -3.978643559633162e-05 -8.145778383372312e-06 -3.978643559633162e-05 -1.6922955745329367e-05" pbc="T T T"
C        0.08156167      -0.00295772       3.89545384       0.00365196       0.00073043      -0.00144474
C       -1.15473030       2.12230230       3.67984628       0.00256029      -0.00192773      -0.00140836
C       -2.39666944       4.26185058       3.78247807       0.00323768      -0.00021280       0.00491806
C       -3.62071431       6.40404703       3.95999923       0.00032712      -0.00619581       0.00218196
C       -4.85727768       8.53892368       4.06132222      -0.00165136      -0.00370059       0.00524824
C        2.54455208      -0.03020971       3.73706980      -0.00028277       0.00152842       0.00202753
C        1.31705387       2.09834082       3.39414066      -0.00707250      -0.00342379      -0.00439258
C       -0.03616626       4.28613752       3.23990415      -0.00195068       0.00134871       0.00499280
C       -1.19853552       6.42102861       3.65011113      -0.00173154      -0.00222669       0.00265972
C       -2.39447074       8.53814850       3.83423970       0.00301329       0.00285638       0.00194807
C        5.02121699      -0.02632864       3.69413342       0.00497230       0.00052190       0.00532313
C        3.78892450       2.04298298       3.35538216       0.00061142      -0.00410755       0.00122217
C        1.26259171       6.38532591       3.66886475      -0.00367270       0.00946593       0.00077388
C        0.08202055       8.52540168       3.76147379       0.00049492      -0.00251467      -0.00364195
C        7.48579694      -0.02017468       3.79888127      -0.00830279       0.00181018      -0.00396248
C        6.25885363       2.11948654       3.68003697      -0.00085687       0.00507622      -0.00461768
C        5.11297053       4.30545198       3.79425350      -0.00257379      -0.00029621      -0.00007400
P        3.58402630       6.22717593       4.98377871       0.00426759      -0.00044805      -0.00033758
C        2.53947743       8.54012450       4.03523365       0.00154960       0.00205389       0.00323033
C        9.95206287      -0.01347622       3.93489239      -0.00269427      -0.00936133      -0.00073151
C        8.71949427       2.11912445       3.82561683       0.00565985      -0.00185323      -0.00251573
C        7.50631292       4.25920982       3.94450857      -0.00085255      -0.00315940      -0.00154585
C        6.28274819       6.40099159       4.24067223       0.00186758       0.00278414      -0.00149245
C        5.01332526       8.54680459       4.24553875      -0.00348244       0.00484169       0.00274100
C        0.08090166       1.41587109       3.66740692      -0.00056693      -0.00071444      -0.00661464
C       -1.19486812       3.53269762       3.58808730       0.00152206      -0.00099780       0.00052964
C       -2.40403656       5.69351996       3.79162216       0.00080400      -0.00311822       0.00107746
C       -3.62385630       7.82914034       3.96235362       0.00159288      -0.00351163       0.00231559
C       -4.85508611       9.95949209       3.91427594       0.00023359      -0.00166157       0.00398067
C        2.55494023       1.38162114       3.47076755      -0.00250302       0.00017875      -0.00114016
S        1.13738879       3.44355627       2.19776455      -0.00893948      -0.01116023      -0.00397141
C        0.02773837       5.71542837       3.47399796       0.00015665       0.00228440       0.00875940
C       -1.16404221       7.83301521       3.74372865       0.00051270      -0.00337747      -0.00030753
C       -2.38678280       9.95521752       3.76479381       0.00347655       0.00523052      -0.00235580
C        5.02883290       1.40043039       3.57761421       0.00331086      -0.00112877       0.00101927
S        3.77996157       3.70640429       2.86591237       0.00120212       0.00711221      -0.00669626
C        1.31857066       7.79645432       3.82592573       0.00251519       0.00699486      -0.00068758
C        0.08619190       9.94690643       3.75868897      -0.00148220      -0.00395806       0.00122941
C        7.48187299       1.40666752       3.77475526      -0.00186379       0.00492404      -0.00775950
C        6.28827694       3.53478081       3.80646731      -0.00227712       0.00164971      -0.00407463
C        5.08616049       5.62899982       4.27259416       0.00552400       0.00344236      -0.00856949
C        3.75346023       7.88621125       4.36670669       0.00016182       0.00047405       0.00508037
C        2.54678554       9.96012611       3.91927191      -0.00830966      -0.00175891      -0.00468012
C        9.95340594       1.40848261       3.82410918       0.00580337      -0.00933180       0.00096999
C        8.72299903       3.54179844       3.86996364       0.00308273      -0.00000914      -0.00211934
C        7.50101784       5.68505636       4.06411922       0.00090244      -0.00443328       0.00439621
C        6.25498118       7.83005804       4.23849089      -0.00555537       0.00315849       0.00070763
C        5.01721319       9.96668436       4.03657024       0.00280368       0.00131696       0.00256486
Mo       1.98110285       4.52988231       4.15870788       0.00055817      -0.00249810       0.00141677
O        0.49789961       4.85448769       6.52600098       0.00463633      -0.00073376      -0.00639817
O        1.28900583       5.33825141       7.54880173       0.00363768       0.01598860       0.01054792
H        1.79069036       4.54003749       7.81886878      -0.00802858       0.00204816      -0.00032252
