51
Lattice="12.336457 0.0 0.0 -6.168228499999997 10.683685154694365 0.0 0.0 0.0 15.0" Properties=species:S:1:pos:R:3:initial_magmoms:R:1:forces:R:3 energy=-440.06040735166863 free_energy=-440.06040735166863 stress="-0.006796836324699255 0.0012744835941829236 4.6265476890075e-06 0.0012744835941829236 -0.004306063445559447 8.272933293504047e-06 4.6265476890075e-06 8.272933293504047e-06 4.644685186042542e-08" pbc="T T T"
C        0.08623439       0.01529032       3.67856235       0.00000000      -0.00653642      -0.01360725       0.00469926
C       -1.14990150       2.14614907       3.48263229       0.00000000       0.00508469      -0.00642088       0.00202204
C       -2.38786746       4.28639463       3.61933943       0.00000000       0.00216495       0.00428858       0.00328195
C       -3.61194885       6.42914863       3.78464838       0.00000000       0.00549323       0.00120878       0.00277335
C       -4.85049606       8.56281234       3.86961075       0.00000000       0.00695095       0.00288577      -0.00507529
C        2.54831175      -0.01061198       3.50508324       0.00000000       0.00122377       0.00299431       0.00583225
C        1.30976476       2.09329951       3.12316710       0.00000000       0.00431264       0.00312542      -0.00023609
C       -0.01488118       4.31319549       3.12674334       0.00000000       0.00018035       0.00498131       0.00501867
C       -1.18646253       6.44623744       3.50839306       0.00000000       0.00989415       0.00294479       0.00509795
C       -2.38763425       8.56477814       3.64600813       0.00000000      -0.00080896      -0.00222121       0.00001353
C        5.02446579       0.00299683       3.47625049       0.00000000       0.00095196       0.00331040       0.00458199
C        3.78851995       2.06848108       3.12320114       0.00000000       0.00343199       0.01009028       0.00048478
C        1.27370837       6.42688255       3.52004597       0.00000000       0.00870571      -0.01395265      -0.00398392
C        0.08762205       8.55823811       3.58402879       0.00000000      -0.00747327      -0.00560010      -0.00671260
C        7.48916453       0.01175475       3.59556720       0.00000000       0.00430189       0.00282361      -0.00152913
C        6.26145403       2.14980876       3.46022832       0.00000000      -0.00860870       0.00060017      -0.00169376
C        5.11973454       4.33704873       3.58474454       0.00000000      -0.00308276       0.00113068       0.00368496
P        3.60321549       6.26410554       4.79703966       0.00000000      -0.00236544      -0.00568090       0.00306720
C        2.54661144       8.57758637       3.86075311       0.00000000      -0.00527735      -0.00387031       0.00733047
C        9.95776905       0.01455061       3.74078241       0.00000000      -0.00278785       0.01038212      -0.01224214
C        8.72401361       2.14670007       3.62262399       0.00000000      -0.00648151       0.00137349       0.00539706
C        7.51235648       4.28634445       3.74429689       0.00000000      -0.00416839      -0.00972229       0.00004224
C        6.29098361       6.42780811       4.05114200       0.00000000       0.00149452       0.00457165      -0.00077431
C        5.02088842       8.57563093       4.06366359       0.00000000      -0.00143099       0.00562541      -0.00654585
C        0.08264698       1.43064328       3.43360403       0.00000000       0.00462673      -0.01568449       0.00570515
C       -1.18252686       3.55795575       3.43680075       0.00000000      -0.00141323      -0.00168954      -0.00904783
C       -2.39385734       5.71768015       3.63423838       0.00000000       0.01042049       0.00835150       0.00321213
C       -3.61614227       7.85433658       3.77934834       0.00000000       0.00363933       0.00014014      -0.00328606
C       -4.84965223       9.98038588       3.70015563       0.00000000      -0.00029873      -0.00350685      -0.00635742
C        2.55430424       1.39712476       3.21841499       0.00000000       0.00450245       0.00888401       0.00591676
S        1.12471524       3.49002255       2.02190292       0.00000000      -0.00381099       0.00700337      -0.00725361
C        0.03909204       5.74688549       3.34558292       0.00000000       0.00158208       0.00128055      -0.00657103
C       -1.15607575       7.86138090       3.57656917       0.00000000      -0.00440791      -0.00227082       0.00195254
C       -2.38149825       9.98063335       3.54910218       0.00000000       0.00081316      -0.00054068       0.01047878
C        5.02937786       1.43004775       3.35093995       0.00000000      -0.00327183       0.00540778       0.00291744
S        3.77097394       3.74453479       2.67797518       0.00000000       0.00522295      -0.00744790       0.00309745
C        1.32584366       7.83400065       3.65991624       0.00000000      -0.00632653      -0.01201784      -0.00486892
C        0.08991305       9.97874151       3.55661281       0.00000000       0.00173295      -0.00035626       0.00899379
C        7.48491000       1.43713012       3.56158359       0.00000000      -0.00710953       0.00341504      -0.00072545
C        6.29304073       3.56484696       3.59190056       0.00000000      -0.00674652      -0.00463039      -0.00221308
C        5.09553390       5.65745560       4.07307920       0.00000000      -0.00171460       0.00056311       0.00449322
C        3.76082161       7.92315255       4.19202915       0.00000000       0.00131150      -0.00389495      -0.00819374
C        2.55115215       9.99331176       3.73005890       0.00000000       0.00424732       0.00291833      -0.00108119
C        9.95888313       1.43520453       3.62510908       0.00000000      -0.00215354       0.00772255      -0.00102551
C        8.72912221       3.56791960       3.67801134       0.00000000      -0.00073082      -0.00161646      -0.00055565
C        7.50879260       5.71094687       3.87572317       0.00000000       0.00244098      -0.00413169       0.00254001
C        6.26199499       7.85643870       4.05425738       0.00000000       0.00463067       0.00929149      -0.00573096
C        5.02314857       9.99249580       3.84220272       0.00000000      -0.01200368       0.00187987      -0.00483314
Mo       2.00446767       4.58050724       3.98259788       0.00000000      -0.00019571      -0.00029994      -0.00289136
O        0.86600910       4.36498774       9.71007894       1.00000000       0.00241038      -0.00014625       0.00009823
O       -0.32496071       4.41811327      10.03860971       1.00000000      -0.00256654       0.00011513       0.00069482
