51
Lattice="12.336457 0.0 0.0 -6.168228499999997 10.683685154694365 0.0 0.0 0.0 15.0" Properties=species:S:1:pos:R:3:initial_magmoms:R:1:forces:R:3 energy=-446.3306399239918 free_energy=-446.3306399239918 stress="-0.006528734069566368 0.0006913834739306388 -1.0298226199566658e-05 0.0006913834739306388 -0.004216627531496181 1.75154097383559e-05 -1.0298226199566658e-05 1.75154097383559e-05 3.3086328351639637e-06" pbc="T T T"
C       -0.02227421       0.19045115       3.45897272       0.00000000      -0.00269425      -0.01075290      -0.00284514
C       -1.26187970       2.30632377       3.34155706       0.00000000      -0.00008144      -0.00244075       0.00339593
C       -2.49402897       4.45068602       3.23948813       0.00000000      -0.00950445       0.00003096       0.00930438
C       -3.72022797       6.59585543       3.27027791       0.00000000       0.00198373       0.00467402      -0.00178012
C       -4.96002309       8.73546435       3.43527310       0.00000000       0.00562348       0.00345034      -0.00958208
C        2.44094744       0.19684775       3.51695091       0.00000000       0.00542167      -0.00131553      -0.00141778
C        1.19246815       2.32541527       3.74848434       0.00000000      -0.00277922      -0.00470982       0.00841041
C       -0.10870364       4.41087710       3.82784895       0.00000000      -0.00452823       0.00387924      -0.00023416
C       -1.30435939       6.59219979       3.62855861       0.00000000       0.00268201       0.00346044       0.00308104
C       -2.49506516       8.73646120       3.45800759       0.00000000      -0.00685269      -0.00919116       0.00126492
C        4.90713814       0.18674223       3.43586971       0.00000000      -0.00204379      -0.00349138       0.01038883
C        3.69676361       2.32004582       3.70572897       0.00000000       0.00595312       0.00578234       0.00115488
P        1.01234644       6.60319678       5.06615365       0.00000000       0.00323904      -0.01446349      -0.00585246
C       -0.04649306       8.75350788       3.75724559       0.00000000      -0.00565119       0.00237086       0.00126666
C        7.37602417       0.17581237       3.39379992       0.00000000       0.00039244       0.00729117       0.00469933
C        6.15355581       2.29511277       3.27158833       0.00000000       0.00714871       0.00485158      -0.00284374
C        4.99279908       4.39339908       3.64776226       0.00000000      -0.00655094      -0.00330774      -0.00450399
P        3.71006716       6.49015538       4.61459131       0.00000000       0.01769855      -0.00161426       0.00443975
C        2.42725796       8.79527869       3.93036686       0.00000000       0.00048798      -0.00441964       0.00259892
C        9.84469368       0.17689517       3.40700355       0.00000000      -0.00998390       0.00854495       0.00313974
C        8.61580526       2.30263054       3.15933559       0.00000000       0.00309824      -0.00503015      -0.00025754
C        7.39437857       4.44720795       3.17465435       0.00000000      -0.00080089      -0.00061549       0.00156033
C        6.18908240       6.59256229       3.49078592       0.00000000       0.00337031       0.00059727      -0.00432706
C        4.92445312       8.74679861       3.69121706       0.00000000       0.00563020       0.00741872      -0.00792153
C       -0.03059540       1.60769320       3.48483514       0.00000000      -0.00446358      -0.01258471       0.00954145
C       -1.28562118       3.72428192       3.39850974       0.00000000      -0.00102197       0.00350695      -0.00745092
C       -2.49990362       5.87769535       3.32516293       0.00000000       0.00057286       0.00424830      -0.00332458
C       -3.72645397       8.02301742       3.36963978       0.00000000      -0.00212826      -0.00138635       0.00898746
C       -4.95652216      10.16360130       3.47326897       0.00000000       0.00585182      -0.00270888      -0.00220925
C        2.44251878       1.61505011       3.68757658       0.00000000       0.00547265       0.00634283      -0.00756158
C        1.08699540       3.69176024       4.08396176       0.00000000      -0.00192242       0.00099904      -0.00113065
C       -0.18099996       5.82413864       4.02002945       0.00000000      -0.00043381       0.00616226       0.00462370
C       -1.27631379       8.02482881       3.63184677       0.00000000      -0.00417184      -0.00053442      -0.00468965
C       -2.49821036      10.16441365       3.46755167       0.00000000      -0.00213981      -0.01081758       0.01258875
C        4.91887599       1.60166318       3.43475643       0.00000000       0.00515162       0.00072278      -0.01194741
C        3.80742940       3.69465508       3.99189102       0.00000000      -0.00312505       0.00165249       0.00994123
C        1.17238412       8.13666568       4.15851611       0.00000000      -0.00700909      -0.00432869       0.00429692
C       -0.03053851      10.15789063       3.49256573       0.00000000       0.00057168       0.00379526      -0.00492413
C        7.38406865       1.58615492       3.21897595       0.00000000       0.00600358       0.00504019       0.00971975
C        6.18199592       3.71154172       3.28077153       0.00000000      -0.00677500       0.00453990      -0.01187594
C        5.04547897       5.81074409       3.76843386       0.00000000      -0.00149362       0.00047770      -0.00771224
C        3.68748901       8.12010482       4.04095167       0.00000000       0.01034651      -0.00770851      -0.00026544
C        2.43884040      10.16414246       3.54095362       0.00000000      -0.00483014       0.00204382       0.00029476
C        9.84502983       1.59069039       3.25120345       0.00000000      -0.00115821       0.00408094       0.01108932
C        8.61959010       3.73322073       3.12757565       0.00000000      -0.00463167      -0.00859786       0.00993715
C        7.39685147       5.87641725       3.26006944       0.00000000       0.00387003       0.00195720      -0.01683158
C        6.15039089       8.01950730       3.54975054       0.00000000       0.00889477       0.00744308      -0.00407655
C        4.91457395      10.15870485       3.49522489       0.00000000      -0.01005663       0.00748504      -0.00150643
Mo       2.48008523       4.68999194       5.26810960       0.00000000      -0.00265099      -0.00272915      -0.00881786
O        3.19443285       0.06553854      10.54819512       1.00000000       0.00164515      -0.00316239       0.00911843
O        2.98668923       0.46492030       9.39658857       1.00000000      -0.00162707       0.00306118      -0.00895422
