51
Lattice="12.336457 0.0 0.0 -6.168228499999997 10.683685154694365 0.0 0.0 0.0 15.0" Properties=species:S:1:pos:R:3:initial_magmoms:R:1:forces:R:3 energy=-439.3361166617488 free_energy=-439.3361166617488 stress="-0.002940384060076688 0.00039995416950528036 -7.493278602207464e-06 0.00039995416950528036 -0.005227242406574204 6.892308005629704e-06 -7.493278602207464e-06 6.892308005629704e-06 -1.4484068145216899e-05" pbc="T T T"
C        0.01372926      -0.10646590       3.69965902       0.00000000       0.00119929       0.00304953       0.00022444
C       -1.21963294       2.03978065       3.72150629       0.00000000       0.00268859       0.00408570      -0.00162785
C       -2.48009623       4.17157440       3.96428681       0.00000000       0.00138349      -0.00084437      -0.01088513
C       -3.70720335       6.30469697       3.95082218       0.00000000      -0.00101725      -0.00177670      -0.00590812
C       -4.93622961       8.43445890       3.77894776       0.00000000       0.00357547      -0.00723448      -0.00405965
C        2.48076454      -0.13139788       3.68005598       0.00000000      -0.00502004      -0.00199107      -0.00895933
C        1.24970969       1.95223960       3.32719400       0.00000000       0.00038841       0.00212027      -0.00856003
C       -0.08744179       4.22958691       3.65271426       0.00000000       0.00519776       0.00248222       0.00834497
C       -1.24974233       6.31921201       4.03767562       0.00000000      -0.00607162      -0.00575967      -0.00312254
C       -2.46797223       8.43801672       3.94429301       0.00000000       0.00726532      -0.00112532      -0.00193790
C        4.94944826      -0.12913013       3.73250865       0.00000000       0.00012820      -0.00334962       0.01038090
C        3.73727564       1.90452993       3.12127330       0.00000000      -0.00391990      -0.00206186      -0.01010932
C        1.24281812       6.28692577       3.78270779       0.00000000      -0.00161107      -0.00076547      -0.00877491
C        0.01342611       8.42518231       3.88737400       0.00000000       0.00226318      -0.00353237      -0.00719648
C        7.41337641      -0.11544567       3.78483696       0.00000000       0.00293297       0.00136004      -0.00085817
C        6.18616282       2.01481460       3.57047231       0.00000000      -0.00838449      -0.00152728       0.00087345
C        5.07517130       4.16078203       3.05677336       0.00000000       0.00107152       0.00708882       0.00727800
S        3.76447510       6.44182321       2.16554490       0.00000000      -0.00532458       0.00333473       0.00080580
C        2.47840788       8.44263439       3.58669390       0.00000000       0.00028853      -0.00440195       0.00567886
C        9.88016066      -0.10209822       3.73363253       0.00000000      -0.00102119       0.00185616       0.00031771
C        8.64334763       2.03043762       3.82936408       0.00000000      -0.00171317       0.00533171       0.00507858
C        7.40503194       4.16182663       3.77560488       0.00000000       0.00112524      -0.00114593      -0.00584371
C        6.21104436       6.32130578       3.49786337       0.00000000       0.00099722      -0.00093618       0.00321261
C        4.95067149       8.45546314       3.51142410       0.00000000       0.00136179       0.00284488       0.00990469
C        0.01539661       1.32420563       3.60724791       0.00000000       0.00295336       0.00356775       0.00219975
C       -1.24874289       3.45860978       3.81695917       0.00000000       0.00285419       0.00377434      -0.00086027
C       -2.47341320       5.59589966       4.02526189       0.00000000      -0.00514740      -0.00475567      -0.00443935
C       -3.70279355       7.72636962       3.91450624       0.00000000       0.00626492      -0.00158748       0.00754249
C       -4.92678567       9.86024431       3.74171365       0.00000000      -0.00317552      -0.00565479       0.00010791
C        2.48919782       1.27222981       3.36821140       0.00000000      -0.00315612       0.00145992      -0.00353681
S        1.23948192       3.58467379       2.78320548       0.00000000      -0.00247577      -0.00126793      -0.00425945
C       -0.00048898       5.62169986       3.88170175       0.00000000      -0.00148380       0.00177478       0.00262052
C       -1.22976061       7.73413167       3.99603586       0.00000000       0.00312883      -0.00654838      -0.00480349
C       -2.45673966       9.85090179       3.80064742       0.00000000      -0.00117097       0.00033960       0.00356012
C        4.95588440       1.28449928       3.48246557       0.00000000      -0.00853399      -0.00400619       0.00478233
S        3.86506188       3.32397560       2.08441138       0.00000000       0.00851078      -0.00074171       0.00503806
C        1.25693265       7.68432613       3.75389600       0.00000000      -0.00077392      -0.00254804      -0.00889308
C        0.01624727       9.84443873       3.81789751       0.00000000       0.00483857      -0.00182384       0.00571731
C        7.40812853       1.31202218       3.75450443       0.00000000      -0.00460049       0.00476913       0.01129343
C        6.21089737       3.42920036       3.51191938       0.00000000       0.00211475      -0.00069363      -0.00699371
C        5.07870890       5.59840189       3.03128770       0.00000000      -0.00196988       0.00515853       0.00124878
C        3.70599129       7.82310857       3.24739978       0.00000000       0.00281812       0.00031761       0.00801418
C        2.47980721       9.86586710       3.73390157       0.00000000       0.00053092      -0.00433776       0.00496576
C        9.88751148       1.32678589       3.79129391       0.00000000       0.00091188       0.00440854       0.00422148
C        8.63265501       3.45190427       3.89841776       0.00000000       0.00129828       0.00355557      -0.01082083
C        7.40658365       5.59275004       3.77907867       0.00000000       0.00029291      -0.00173471      -0.00220510
C        6.17903120       7.73399096       3.57891688       0.00000000       0.00127795      -0.00296959       0.00500372
C        4.94445893       9.87207051       3.68255300       0.00000000       0.00050797       0.00503973       0.00282345
Mo       2.98416076       4.93608902       3.68393578       0.00000000      -0.00466614       0.00646937      -0.00587342
O        2.75824772       7.33410050       8.94066505       1.00000000      -0.01223533       0.00613369       0.01390563
O        1.71422304       7.75242016       9.45533992       1.00000000       0.01330222      -0.00520068      -0.00461632
