52
Lattice="12.336457 0.0 0.0 -6.168228499999997 10.683685154694365 0.0 0.0 0.0 15.0" Properties=species:S:1:pos:R:3:forces:R:3 energy=-449.402292953463 free_energy=-449.402292953463 stress="-0.005931728601156277 3.058543227812236e-05 7.457070707694759e-06 3.058543227812236e-05 -0.0031168485628972295 1.3016444174727893e-05 7.457070707694759e-06 1.3016444174727893e-05 -5.9045061569724384e-05" pbc="T T T"
C        0.00530597       0.00487731       3.58186219       0.00330143      -0.00354491      -0.00653533
C       -1.23984906       2.11467989       3.44676313       0.00218135       0.00150305      -0.01854436
C       -2.47229002       4.26274299       3.32605639      -0.00693945      -0.00052433       0.00424347
C       -3.69632897       6.41192582       3.37136521      -0.00195384       0.00058847       0.00890490
C       -4.92763191       8.55417012       3.56340984       0.00141923      -0.00086130      -0.01008377
C        2.47043682       0.02121291       3.66239574       0.00293387      -0.00363822       0.00322577
C        1.21246912       2.14701934       3.89448855       0.00438282       0.00313782      -0.00490342
C       -0.07974564       4.21425568       3.90234058       0.00032421      -0.00245600       0.00538476
C       -1.27681612       6.40532357       3.69811396       0.00160716      -0.00212745      -0.01404027
C       -2.46623395       8.55444422       3.57333614      -0.00057352      -0.00953074      -0.00189499
C        4.93637612       0.00492955       3.58463399      -0.00358388      -0.00791071      -0.00433837
C        3.72799436       2.14766395       3.88152505       0.00036298       0.00151874       0.00766029
P        1.08359538       6.37771977       5.05151239       0.00746357       0.00253419       0.00741463
C       -0.01573503       8.56263775       3.85074314       0.00095969       0.00576805       0.00824447
C        7.40570878      -0.01333117       3.52296079       0.00701946       0.00207689      -0.00035480
C        6.18040800       2.11454371       3.42920405      -0.00022173      -0.00159764      -0.01004128
C        5.01688619       4.21490747       3.86180456       0.00496389      -0.00431758       0.00707994
P        3.85904752       6.37151117       5.01384539      -0.00735649       0.00064949       0.00298291
C        2.47071673       8.59750286       4.04183337      -0.00415928      -0.00129429      -0.00054654
C        9.87154492      -0.01385191       3.52072977      -0.00169803       0.00834451      -0.00752899
C        8.63936520       2.11473892       3.27920415      -0.00519590       0.00248311      -0.00063836
C        7.41400785       4.26256791       3.30513814       0.00549330       0.00335142       0.00761902
C        6.21705026       6.40567447       3.66282698      -0.00082495       0.00020774      -0.00697592
C        4.95798717       8.56195768       3.83153655      -0.00661930       0.00432466       0.00911889
C       -0.00690502       1.42136777       3.60968058       0.00318682      -0.00177489      -0.00500560
C       -1.26309504       3.53252081       3.48115399      -0.00143959       0.00112000      -0.00786670
C       -2.47709378       5.69164407       3.40691444      -0.00518604      -0.00101719      -0.00054504
C       -3.69656837       7.83986485       3.48403458      -0.00123483      -0.00311400      -0.00146141
C       -4.92570321       9.98294511       3.60399592       0.00506269      -0.00248366       0.00284919
C        2.47023816       1.43934439       3.84546732       0.00195201      -0.00100049       0.00539771
C        1.09000373       3.50216242       4.22975147       0.01346966       0.00591360       0.00812376
C       -0.15237176       5.63232453       4.06324008       0.00151095      -0.00149409      -0.00278612
C       -1.24581270       7.83873703       3.72146217       0.00402629      -0.00077656      -0.00718700
C       -2.46918310       9.98335489       3.60941817      -0.00311003      -0.01173171      -0.00721439
C        4.94792116       1.42152942       3.59952399      -0.00351066      -0.00438216      -0.01203959
C        3.85114884       3.50464172       4.20723870      -0.00890082       0.00796907      -0.00366061
C        1.21061904       7.93549513       4.22576393      -0.00245613       0.00087163       0.00700998
C       -0.00157332       9.97154422       3.62010158       0.00454678       0.00373626       0.00105912
C        7.41005301       1.40020492       3.35957009      -0.00104488      -0.00097094      -0.01899017
C        6.20215670       3.53269629       3.44745961       0.00835707      -0.00043124       0.00823176
C        5.08838910       5.63325781       4.01595708       0.00365384      -0.00378003       0.00654803
C        3.73234782       7.93424589       4.20698748      -0.00848756       0.00197307       0.01141617
C        2.47025403       9.97022259       3.65502642       0.00393655       0.00193587       0.00301368
C        9.86804705       1.39992350       3.36262311      -0.00397644       0.00886416       0.00206035
C        8.63965229       3.54612159       3.23801114      -0.00321418      -0.00077844       0.00779180
C        7.41987224       5.69165617       3.38554039       0.00274552       0.00199734       0.00230315
C        6.18741706       7.83822451       3.69837815      -0.00364665       0.00342982      -0.00846628
C        4.94314888       9.97157558       3.61134431      -0.00356246       0.00469975       0.00407219
Mo       2.47896536       4.58264241       5.54765211      -0.00499456      -0.00349426       0.00916912
O        2.48690034       4.79851163       7.30110337       0.00119351       0.00319757      -0.00103414
O        2.39544422       4.98411944       8.95936306       0.00473039       0.00689767       0.00290063
H        3.03805451       4.26645963       9.13202206      -0.00689383      -0.01406111       0.00885776
