52
Lattice="12.336457 0.0 0.0 -6.168228499999997 10.683685154694365 0.0 0.0 0.0 15.0" Properties=species:S:1:pos:R:3:initial_magmoms:R:1:forces:R:3 energy=-460.1128571883043 free_energy=-460.1128571883043 stress="-0.005977106601222143 0.004475667943594637 7.364777541544596e-05 0.004475667943594637 -0.007100641911342699 -0.00013405318905922953 7.364777541544596e-05 -0.00013405318905922953 3.726045251046568e-05" pbc="T T T"
C        0.02328213      -0.15458349       3.73653761       0.00000000       0.01490154       0.00570747       0.02141632
C       -1.18510383       1.99802380       3.79379226       0.00000000       0.00435028       0.00774024       0.01535957
C       -2.41056171       4.12671673       3.82106873       0.00000000      -0.01305239       0.00709356       0.01352560
C       -3.66863786       6.25660420       3.76837899       0.00000000      -0.01064215      -0.00072675       0.02228940
C       -4.91770841       8.38964431       3.72732477       0.00000000      -0.00206218      -0.00406444      -0.00235138
C        2.48411447      -0.16270196       3.65975729       0.00000000      -0.01503299       0.00752317       0.01531431
C        1.27062743       1.98947996       3.69689180       0.00000000      -0.00358405      -0.01658939       0.01489577
C        0.06467625       4.16212430       3.87166896       0.00000000      -0.01700181      -0.00488323      -0.03121244
C       -1.21111618       6.28003134       3.83717981       0.00000000      -0.02332478       0.00671996       0.00333947
C       -2.45908488       8.39757743       3.71533591       0.00000000      -0.00566410       0.00293817      -0.00443118
C        4.95573282      -0.15666126       3.64957871       0.00000000       0.00777469      -0.03037794      -0.00993295
C        3.73897857       1.93810019       3.59915070       0.00000000      -0.00266773       0.01074433      -0.00696957
C        2.54843553       4.07934343       3.61301585       0.00000000      -0.01963606      -0.01185705       0.05917066
N        1.17169361       6.37127000       4.04623289       0.00000000       0.03477996      -0.01259253       0.04308968
C       -0.01551774       8.41975668       3.72280585       0.00000000      -0.00085127      -0.02410712       0.04610052
C        7.42710304      -0.14568971       3.71572617       0.00000000      -0.00764118      -0.02733326       0.00038922
C        6.21845334       1.95959888       3.68220195       0.00000000       0.01705634      -0.01977586      -0.01934427
C        5.00895746       4.03843783       3.57909619       0.00000000       0.01843827      -0.01170511      -0.04935379
P        3.72900434       6.20739459       2.50081719       0.00000000       0.04592341       0.04519065      -0.02034490
C        2.43579865       8.42254609       3.74609030       0.00000000      -0.00364597      -0.01525872      -0.01160006
C        9.89808128      -0.14761709       3.76525275       0.00000000      -0.01495869       0.00603495       0.00510489
C        8.68574675       1.98312586       3.76801616       0.00000000      -0.00377031       0.02160270       0.01507711
C        7.46172474       4.10700449       3.74822514       0.00000000      -0.00109058       0.00169179      -0.04034864
C        6.21743349       6.25141117       3.68644307       0.00000000       0.01013472       0.00331123      -0.02139772
C        4.95473357       8.38539199       3.71827176       0.00000000       0.01320129       0.01580455      -0.04853848
C        0.03918033       1.27731175       3.74930775       0.00000000      -0.00425042      -0.00172527      -0.01803417
C       -1.16925037       3.43108474       3.83559236       0.00000000      -0.00588320       0.00303266       0.00647856
C       -2.42915489       5.55144350       3.80643635       0.00000000      -0.02260096       0.00051537       0.04694343
C       -3.68733457       7.68042539       3.74218453       0.00000000      -0.00891861      -0.00485546      -0.02148748
C       -4.91750399       9.81083023       3.70510242       0.00000000      -0.00111877       0.00085237       0.02456728
C        2.49191247       1.25768946       3.63572282       0.00000000       0.00271391       0.00619904       0.03002858
C        1.29846411       3.43682610       3.73693177       0.00000000      -0.01842026      -0.03860036       0.06106854
C        0.03315519       5.60149858       3.94555269       0.00000000      -0.01285186       0.00933702      -0.07652110
C       -1.23130848       7.69537503       3.75356398       0.00000000      -0.00550207       0.00438006       0.02040794
C       -2.45181842       9.81764655       3.66208875       0.00000000      -0.01024790      -0.00684693       0.01433694
C        4.97368615       1.25283562       3.63675999       0.00000000       0.01459521      -0.01486537      -0.01406327
C        3.76711356       3.35163388       3.57619119       0.00000000       0.01565191      -0.00261046      -0.03390826
C        1.19287852       7.72862265       3.81638361       0.00000000       0.02374527      -0.01124412      -0.01312727
C        0.01709002       9.83402304       3.67716910       0.00000000       0.00013728      -0.03307863       0.02915673
C        7.44707367       1.26637144       3.72405490       0.00000000       0.00997947      -0.02771237      -0.00575786
C        6.23916703       3.37347708       3.67691335       0.00000000       0.02133133      -0.01501651      -0.00898186
C        4.98748002       5.48409475       3.56296723       0.00000000      -0.00064765       0.03511471      -0.01949932
C        3.67444760       7.67475737       3.63496960       0.00000000      -0.00971321      -0.00298016       0.06124254
C        2.48270084       9.83263621       3.75322067       0.00000000       0.00251814      -0.01551083      -0.00770513
C        9.91707496       1.27628321       3.78181540       0.00000000      -0.01035825       0.01454226      -0.01532835
C        8.69331289       3.40562828       3.78708091       0.00000000      -0.00592687       0.02382486      -0.00015534
C        7.44234880       5.53825216       3.74767446       0.00000000      -0.00368590      -0.00335491       0.00587699
C        6.17871496       7.66748908       3.71769311       0.00000000       0.00373409      -0.00666663      -0.02988925
C        4.95849914       9.81051936       3.75648011       0.00000000       0.00161572       0.01232471       0.02369781
Mo       3.04205192       5.81094468       4.64288101       0.00000000       0.04738243       0.00891705      -0.05866293
O        1.37349707       9.57715089       6.55144450       1.00000000      -0.04385887       0.03044822       0.07303891
O        2.58265221       9.54475534       6.76960495       1.00000000      -0.00135426       0.07274834      -0.08296981
