53
Lattice="12.336457 0.0 0.0 -6.168228499999997 10.683685154694365 0.0 0.0 0.0 15.0" Properties=species:S:1:pos:R:3:forces:R:3 energy=-463.372479519081 free_energy=-463.372479519081 stress="-0.00487254420891653 0.004096147764396778 -6.416448066615903e-06 0.004096147764396778 -0.0064838574769165245 7.913889012394685e-07 -6.416448066615903e-06 7.913889012394685e-07 1.589488321000462e-05" pbc="T T T"
C       -0.03377919       0.07829723       3.79050309       0.00196343      -0.00725557      -0.00799053
C       -1.24304944       2.22996069       3.84633974      -0.00117325      -0.00410367       0.00051311
C       -2.47350208       4.35539839       3.86488633       0.00482230      -0.00194139      -0.00916590
C       -3.73207704       6.48213020       3.80189652       0.00093470       0.00193627      -0.00613134
C       -4.98001810       8.61587985       3.75711921      -0.00190290       0.00564540      -0.00972761
C        2.42362596       0.06484275       3.69352561       0.01071676       0.00319166      -0.00062497
C        1.21374226       2.21920468       3.73601865      -0.00578003      -0.00412384      -0.00696909
C        0.00787288       4.38937175       3.95992665      -0.00908082      -0.00190329      -0.00463618
C       -1.27368252       6.50470060       3.95896718       0.00297545       0.00447580       0.00081761
C       -2.52048631       8.62358185       3.80021277      -0.00222151      -0.00912118       0.00001686
C        4.89588926       0.06545889       3.67069065       0.00015343      -0.00073724       0.01076239
C        3.67837486       2.16280165       3.51458808       0.01389928      -0.00215131       0.00669578
C        2.49190078       4.29770516       3.63050198      -0.00202392      -0.00941111      -0.00284035
N        1.09988895       6.59544602       4.29211055      -0.00908369      -0.00275576       0.00241313
C       -0.07407400       8.63961250       3.87985001      -0.00074118       0.00828555       0.01182750
C        7.36484611       0.08032501       3.77492833      -0.00512093      -0.00188271       0.00819913
C        6.16088454       2.18285521       3.58796348       0.00323163       0.00247705      -0.00160093
C        4.95098380       4.27024354       3.45185970      -0.00220010      -0.00092179       0.00178022
P        3.56235465       6.46290704       2.65969059       0.00551095      -0.00968900      -0.00022981
C        2.38043161       8.64640728       3.90187475       0.00005217       0.00682161       0.00639854
C        9.84042363       0.08502818       3.83702390       0.00051812       0.01068354      -0.00577776
C        8.62529134       2.21262573       3.76459529      -0.01266929      -0.00312972       0.00605929
C        7.40176419       4.33324651       3.66579101       0.00213400       0.00211120       0.00404663
C        6.15504261       6.47755013       3.64634029      -0.00462957       0.00017164       0.00345684
C        4.89103821       8.61948039       3.77426634       0.00318835       0.00138969       0.00050200
C       -0.01846139       1.50907336       3.80000102      -0.00163391      -0.00891006       0.01030164
C       -1.22802816       3.66270105       3.89883738      -0.00062206      -0.00623220       0.00996193
C       -2.49335648       5.77775784       3.87989592       0.00615485       0.00272986      -0.00556775
C       -3.74930766       7.90630255       3.79074853      -0.00727872      -0.00040505      -0.00558745
C       -4.97769001      10.03956639       3.75254866       0.00860659       0.00432625      -0.00370176
C        2.43361001       1.48530675       3.63424442       0.00705665       0.00440758      -0.00481401
C        1.24191167       3.66270917       3.79973985      -0.01043019      -0.00176017      -0.00991912
C       -0.02669534       5.82874179       4.08612518      -0.00559215      -0.00336836      -0.00688759
C       -1.29397033       7.92008036       3.89109126       0.00472868       0.00169327      -0.01917399
C       -2.51277267      10.04242412       3.71233130       0.00367585      -0.00960535      -0.00708307
C        4.91441729       1.47302904       3.56623734       0.01124055      -0.00037424       0.00582174
C        3.70419764       3.57855955       3.47634205       0.00240652      -0.00363872       0.00988961
C        1.13403591       7.94167312       4.01160001      -0.00409679      -0.00031203       0.00723895
C       -0.04349887      10.05412078       3.76488612      -0.00268086       0.00376013       0.00443255
C        7.38753976       1.49362124       3.70374794      -0.00875824      -0.00479485       0.00917068
C        6.18268826       3.59861563       3.53841212      -0.00011805       0.00303602       0.01034642
C        4.92848131       5.71066040       3.53821076      -0.00703401      -0.00012418       0.00095206
C        3.61834476       7.91830618       3.79038359       0.00217130       0.00760354      -0.00521073
C        2.42333898      10.06166336       3.85232091       0.00002343       0.00904433       0.00163917
C        9.85739622       1.50926110       3.82476989      -0.00686220       0.00906931       0.00023362
C        8.63250446       3.63558741       3.76485634       0.00016403      -0.00373821       0.00012669
C        7.38151466       5.76391697       3.70866481      -0.00029744       0.00304966      -0.01902136
C        6.11907824       7.89413597       3.72068067       0.00115603       0.00001136      -0.00148402
C        4.89984597      10.04754935       3.81980247       0.00020814       0.00034980       0.01322877
Mo       3.04465738       5.90582685       4.88775071       0.00976870       0.00901984       0.01329272
O        3.46297847       4.99786829       6.33576052       0.00031075       0.00433840      -0.01894563
O        3.85123306       4.07177437       7.66665854      -0.00195799       0.00463379       0.00460704
H        3.56835757       4.76433548       8.30224593       0.00621718      -0.01187154      -0.00164167
