52
Lattice="12.336457 0.0 0.0 -6.168228499999997 10.683685154694365 0.0 0.0 0.0 15.0" Properties=species:S:1:pos:R:3:forces:R:3 energy=-445.6031014174076 free_energy=-445.6031014174076 stress="-0.002308485244944012 0.0024324169334643962 2.6257951690638523e-05 0.0024324169334643962 0.0006684006750953249 2.761208358457474e-05 2.6257951690638523e-05 2.761208358457474e-05 -1.6217396226014354e-05" pbc="T T T"
C       -0.00306449       0.11630216       3.85557277      -0.00301298      -0.00525774      -0.00818444
C       -1.23972245       2.24638750       3.62431763       0.00485705       0.00487280      -0.00599685
C       -2.52076955       4.37720336       3.71104651      -0.00369502       0.00622100      -0.00008861
C       -3.76020440       6.51485762       3.93277296       0.00301189      -0.00849194      -0.00210302
C       -4.96123733       8.65248572       4.00550830      -0.00102372       0.00131195      -0.00538453
C        2.45884799       0.12613351       3.94832844      -0.00038608       0.00493927      -0.00266054
C        1.25747606       2.20056933       3.47937371      -0.00760970      -0.00231418       0.00387930
C       -0.17211046       4.41471803       3.07019847       0.00623758      -0.00072809       0.00370825
C       -1.34801943       6.55197636       3.54129558       0.00385978       0.00254006      -0.00161050
C       -2.50386359       8.65670165       3.93679455      -0.00100499      -0.00638986      -0.00323790
C        4.92419366       0.08320619       3.99831080       0.00617362      -0.00424487      -0.00532885
C        3.74278427       2.21634045       3.89065410       0.00383820      -0.00618366       0.01305509
S        1.09537352       6.77480967       2.18363917      -0.00084453       0.00552573      -0.00789008
C       -0.03585633       8.62956604       3.82923701       0.00312785      -0.00167060      -0.00256190
C        7.39660622       0.08781670       3.95558522      -0.00645487       0.00080834      -0.00250552
C        6.16917009       2.22106201       4.02523774       0.00827807       0.01065216      -0.00287335
C        4.92421683       4.32024512       4.03316035      -0.00498437       0.00266345      -0.00642447
C        3.66123474       6.50104840       4.02678638       0.00862075       0.00630011      -0.00884107
C        2.47618903       8.64602912       3.84847334      -0.00096906      -0.00356871      -0.00730290
C        9.86996253       0.10463732       3.87972448      -0.00879148      -0.00802563      -0.00540476
C        8.62844016       2.23446990       3.89418096       0.00840255      -0.00054524      -0.00301207
C        7.36963984       4.36887522       3.99574621      -0.00374147      -0.00063941      -0.00449386
C        6.11276603       6.48935816       4.04799720       0.00846761      -0.00035118      -0.00759434
C        4.93112859       8.65154572       3.97295259       0.00152511       0.00469169       0.00334597
C        0.01077631       1.54517506       3.64455529      -0.00093266      -0.00515617       0.00912960
C       -1.29876916       3.66173420       3.47652507      -0.00070557       0.00664674      -0.00108550
C       -2.54372420       5.80558189       3.74513354       0.00744653       0.00239697       0.01152345
C       -3.73887754       7.94042562       3.97150148      -0.00371727      -0.00919682       0.00218963
C       -4.94750777      10.08623592       3.94788382      -0.00022010       0.00370323       0.01122866
C        2.48427357       1.55513603       3.80207123      -0.00213771       0.00461211       0.00054910
S        1.35930378       3.74051739       2.65995345      -0.00535690       0.00989087       0.00442903
C       -0.23083644       5.85110419       3.01427280       0.00056366      -0.00176157       0.00899715
C       -1.27491466       7.95051678       3.76602336       0.00430982      -0.00025598      -0.00779059
C       -2.48578736      10.08026490       3.99197142       0.00068124      -0.00126333       0.00018268
C        4.93756057       1.51138843       3.99777369       0.01043296      -0.00012639       0.00790907
O        3.77699616       3.57445224       4.03854256      -0.00393572      -0.00448056      -0.00025520
C        1.22684597       7.91176627       3.67360752      -0.00157554       0.00879430      -0.00029215
C       -0.00913191      10.04872301       3.96341301       0.00201454      -0.00472340      -0.00715072
C        7.39539127       1.51577552       3.97858187       0.00550838       0.00454767      -0.00073701
C        6.14923946       3.63930217       4.04041186      -0.00465498       0.00974058       0.00975482
C        4.85606332       5.75392559       4.05420614       0.00677502       0.00345826       0.00365026
C        3.69389835       7.91426685       3.94505507       0.00424683       0.00135507       0.00080089
C        2.46598078      10.06988761       3.90612092      -0.01184007      -0.00654188       0.00348866
C        9.87392605       1.53185808       3.80862344       0.00982320      -0.00326938       0.00869717
C        8.60431719       3.65867878       3.88617994      -0.00332844       0.00100751      -0.00077600
C        7.34531001       5.79211900       4.00859990       0.00427523      -0.00573888      -0.00180356
C        6.14100709       7.92426179       4.02084785       0.00071490       0.00294704       0.00595867
C        4.93109988      10.07768114       3.90466527      -0.00551597      -0.00002453      -0.00535228
Mo       1.65692023       5.76709382       4.19145098      -0.01670668      -0.00911889      -0.00180752
O        2.77919079       4.61814469       6.21208016      -0.00247603      -0.00004388       0.00518272
O        2.38484349       3.28756222       6.27143899      -0.01052244      -0.00207424      -0.01977133
H        2.68441487       3.03758394       7.16981917      -0.00704801      -0.00743989       0.02266123
