51
Lattice="12.336457 0.0 0.0 -6.168228499999997 10.683685154694365 0.0 0.0 0.0 15.0" Properties=species:S:1:pos:R:3:initial_magmoms:R:1:forces:R:3 energy=-440.42081257792483 free_energy=-440.42081257792483 stress="-0.005774839483020328 -0.00039732780220978205 3.429140428442278e-06 -0.00039732780220978205 -0.0016129442554673728 -1.3985390502782492e-05 3.429140428442278e-06 -1.3985390502782492e-05 -8.612331807204322e-06" pbc="T T T"
C       -0.03712671      -0.01951118       3.67563480       0.00000000       0.00326872       0.00298945      -0.01403032
C       -1.27826596       2.11913833       3.71937393       0.00000000      -0.00275969      -0.00675149       0.00028418
C       -2.54498303       4.25028879       3.98692306       0.00000000       0.00858356       0.00196206      -0.00448450
C       -3.75645460       6.39279324       3.99948587       0.00000000      -0.00714611       0.00686370      -0.00747600
C       -4.97381673       8.53399617       3.82690183       0.00000000      -0.00179822       0.00499296       0.00258083
C        2.43578008      -0.03922707       3.60613002       0.00000000      -0.00228708       0.00510272      -0.00306715
C        1.19796638       2.05221879       3.35495153       0.00000000       0.00223740      -0.00752175      -0.00861004
C       -0.15062071       4.31695949       3.83012197       0.00000000      -0.00369296       0.00162240      -0.00321700
C       -1.32615508       6.41014369       4.11072515       0.00000000      -0.00398564      -0.00324339      -0.00285724
C       -2.51571655       8.53178416       3.91426529       0.00000000       0.00513363       0.00342379      -0.00121906
C        4.90337550      -0.04215435       3.67007053       0.00000000      -0.00339801      -0.00097084      -0.00526316
C        3.69051711       2.02108021       3.11397588       0.00000000       0.00632956       0.00786359       0.00106094
C        1.15164448       6.37145057       4.12939218       0.00000000       0.00065804      -0.00135887      -0.00156497
C       -0.03721317       8.50966720       3.94027174       0.00000000      -0.00102967      -0.00413907      -0.00964908
C        7.36965649      -0.04646878       3.76566474       0.00000000       0.00076998      -0.00209397      -0.00519262
C        6.13251556       2.11089444       3.58559524       0.00000000      -0.00510092       0.00063190       0.00518001
C        4.93849727       4.30445790       3.46349632       0.00000000       0.00511527       0.00540639       0.00066022
O        3.76420399       6.44488080       3.35758609       0.00000000      -0.00846745      -0.00830268       0.00344527
C        2.45363513       8.47447649       3.80567261       0.00000000      -0.00368617      -0.00350286      -0.01842607
C        9.82730910      -0.03692061       3.74184038       0.00000000       0.00303583       0.00020748       0.00227588
C        8.58887483       2.10618585       3.80999123       0.00000000      -0.00406137       0.00288831      -0.00657582
C        7.34296747       4.24690926       3.85819402       0.00000000       0.00540255      -0.00691148       0.00405607
C        6.15298493       6.41520377       3.80706482       0.00000000       0.00294493      -0.00173269      -0.01178990
C        4.90248624       8.52483848       3.71780662       0.00000000      -0.00017049       0.00256612       0.00202702
C       -0.03948795       1.41178836       3.58916178       0.00000000       0.00115541      -0.00185873       0.00285319
C       -1.31424668       3.53625757       3.86577709       0.00000000       0.00376371      -0.00624193      -0.00338228
C       -2.53704984       5.67650910       4.06056210       0.00000000      -0.00710011       0.00363316       0.00508742
C       -3.74521801       7.81895824       3.93133388       0.00000000       0.00047234       0.01007311       0.00735133
C       -4.97060907       9.95618705       3.70833598       0.00000000      -0.00071305       0.00569428       0.01503382
C        2.44235371       1.36778454       3.33287586       0.00000000       0.00531913       0.00309887      -0.01164834
S        1.22180191       3.73384418       2.99655499       0.00000000      -0.00741149      -0.00136222      -0.00292172
C       -0.08751805       5.70746211       4.08423158       0.00000000      -0.00126516      -0.00082385       0.00366887
C       -1.28771546       7.82545097       4.01900090       0.00000000       0.00128213      -0.00369978       0.00441347
C       -2.50232237       9.94077167       3.72959030       0.00000000      -0.00398389       0.00559624       0.01572133
C        4.90560677       1.37955617       3.44741635       0.00000000      -0.00086933       0.00051020       0.00487377
S        3.78669524       3.59407210       2.32746758       0.00000000       0.00423704      -0.01093262      -0.00254331
C        1.20442006       7.75001405       3.97342544       0.00000000      -0.00206553      -0.00444017      -0.00310605
C       -0.03222756       9.92621723       3.79564855       0.00000000      -0.00236991      -0.00057438       0.01103768
C        7.35715274       1.38921287       3.72920512       0.00000000      -0.00481290       0.00069156      -0.00429591
C        6.13410646       3.53068611       3.65241166       0.00000000       0.00031968       0.00013629       0.00532420
C        4.97473967       5.72777535       3.58688729       0.00000000       0.00255159       0.00225517      -0.00129330
C        3.69286879       7.83912089       3.66843260       0.00000000      -0.00226953      -0.00034748      -0.00212403
C        2.43615571       9.91397464       3.77825922       0.00000000       0.00352614      -0.00184635       0.00885656
C        9.83248764       1.40013361       3.76607746       0.00000000      -0.00572671      -0.00125797       0.01228488
C        8.57416349       3.52917672       3.90453994       0.00000000       0.00992517       0.00083841       0.00653880
C        7.36181315       5.67400141       3.91356338       0.00000000      -0.00006716      -0.00533686      -0.00746731
C        6.14313638       7.83303883       3.79196283       0.00000000      -0.00068282      -0.00018925       0.00209095
C        4.89429320       9.95186879       3.72239283       0.00000000       0.00613280       0.00506545       0.00831422
Mo       2.85581522       4.96751945       4.50625442       0.00000000       0.00747089      -0.00748967       0.00371798
O        3.32805810       6.00581500       6.06202016       1.00000000       0.00041059       0.00355816       0.00497002
O        3.70164928       4.47400641       6.16445764       1.00000000      -0.00312473       0.00525859      -0.00150373
