52
Lattice="12.336457 0.0 0.0 -6.168228499999997 10.683685154694365 0.0 0.0 0.0 15.0" Properties=species:S:1:pos:R:3:forces:R:3 energy=-449.8651606232544 free_energy=-449.8651606232544 stress="-0.008293094938336949 0.0025994811399223366 2.305352902833968e-05 0.0025994811399223366 -0.006752974444894979 -1.2903171231950367e-05 2.305352902833968e-05 -1.2903171231950367e-05 1.1698359403465572e-05" pbc="T T T"
C        0.12687301       0.00794424       3.77339895       0.00455059      -0.00515877       0.00849680
C       -1.10625088       2.14174715       3.66374809       0.00610030      -0.00473098      -0.00637567
C       -2.34755836       4.27362617       3.82942338      -0.01345872       0.00119055       0.00576631
C       -3.58548915       6.41310323       3.96403154      -0.00438045      -0.00604229       0.00721166
C       -4.82195903       8.54820603       3.89468182      -0.01063035      -0.00653891      -0.01457955
C        2.59003302      -0.00110048       3.86846157       0.00147098       0.00781842       0.00564205
C        1.38489999       2.10520048       3.43315067       0.00868675      -0.00528009       0.00891986
C        0.02209930       4.31387187       3.22591596       0.00137503      -0.00609402       0.00075260
C       -1.17535449       6.44804667       3.66181136      -0.00045377      -0.00758427       0.00430897
C       -2.36056277       8.56049763       3.92838442      -0.00644040      -0.00305543       0.00106924
C        5.06388965      -0.00442747       4.00661980       0.00097498       0.00878194       0.00170170
C        3.84806161       2.11687251       3.90090594       0.00584138       0.00790775       0.00073226
C        1.23794236       6.47442761       3.39970900       0.00280092       0.00601230      -0.00317532
C        0.10460481       8.56277837       3.80483951       0.00503363       0.00736722      -0.00025347
C        7.53588799      -0.00673249       3.98544328       0.00367321       0.00576471       0.01282255
C        6.32256015       2.10929280       4.13742634       0.00013822       0.00603623      -0.00323851
C        5.12268379       4.22181619       4.01326648      -0.00507554      -0.00384899      -0.00167479
P        3.72739823       6.22636291       2.97313025      -0.00446309       0.00617172      -0.00121885
C        2.57888680       8.57191110       3.67334985       0.00480704      -0.00251508      -0.00964505
C       10.00185447       0.00377478       3.85055655      -0.00575822      -0.00750622       0.00548651
C        8.78256178       2.12865199       4.01507258       0.00189722       0.00432021      -0.00489879
C        7.55791884       4.26350280       4.11029834      -0.00951926      -0.00227499      -0.00192318
C        6.31185780       6.40385295       3.90823630       0.00359849      -0.00488213       0.01784731
C        5.05992647       8.54892028       3.71268538      -0.00156045       0.00739879       0.00322758
C        0.12820938       1.42604062       3.61595198       0.01012617      -0.00608696       0.00471575
C       -1.14416125       3.55759575       3.57388064      -0.00977971      -0.00038507      -0.00657093
C       -2.36872416       5.70560779       3.83267329      -0.00819475      -0.00368343       0.00546750
C       -3.58887231       7.84081591       3.94087255      -0.01122770      -0.00501711       0.00042250
C       -4.81267938       9.97357675       3.84577533       0.00107598      -0.00242423      -0.00907195
C        2.60767666       1.41326139       3.72901608       0.01411112       0.00800792      -0.00350601
P        1.27699779       3.45028486       2.21518491       0.00900846      -0.00649201      -0.00738265
C        0.02115040       5.75699072       3.39304492       0.00629105      -0.00234596       0.00341782
C       -1.13592638       7.85803799       3.81390045       0.00066746      -0.00278983      -0.00425817
C       -2.34893988       9.97810082       3.95513894      -0.00162008       0.00434941       0.00121241
C        5.08284348       1.40508209       4.04752804       0.00309177       0.00809276      -0.00359760
C        3.91134360       3.51176432       3.89797297      -0.00907524       0.00464842       0.00415718
C        1.33202025       7.85938129       3.61424901       0.00661060       0.00412203      -0.00072141
C        0.12539364       9.96962516       3.95875014       0.00380944       0.01007184       0.00746020
C        7.55270396       1.40747280       4.08422117       0.00209262       0.00913308       0.00031426
C        6.34739880       3.52802532       4.15643756      -0.00782042      -0.00022222      -0.00072508
C        5.13791575       5.62970414       3.81426872       0.00563974      -0.00478691      -0.00726082
C        3.81212614       7.89449451       3.52093829       0.00551085       0.00488799       0.00174727
C        2.59611243       9.97929081       3.86392973      -0.00517098      -0.00694581      -0.00362266
C       10.00852707       1.42655987       3.86508351       0.00334857      -0.00741708      -0.00089729
C        8.78333666       3.55493882       4.02338268      -0.01419911       0.00346368      -0.01138842
C        7.53931571       5.69027682       4.03205888       0.00319414      -0.00678319       0.00741861
C        6.28836059       7.83012749       3.81837500      -0.00764152      -0.00454668       0.00149780
C        5.06338414       9.97685816       3.79066367      -0.00009324       0.00155399      -0.01099387
Mo       2.17383141       4.70388232       3.87126706       0.00435657      -0.00824384      -0.00442476
O        0.50395657       4.03890048       6.17727281      -0.00126477       0.01902841       0.01900850
O        0.09546397       5.13118401       6.90061588       0.06188354      -0.01743453       0.01293583
H        0.84619193       5.27461854       7.51792447      -0.05393905       0.00498765      -0.03235624
