52
Lattice="12.336457 0.0 0.0 -6.168228499999997 10.683685154694365 0.0 0.0 0.0 15.0" Properties=species:S:1:pos:R:3:forces:R:3 energy=-444.45018323163913 free_energy=-444.45018323163913 stress="-0.005209694641313876 -0.004787254774909037 -2.2150719161818594e-05 -0.004787254774909037 -0.003996405872840146 1.9358737393973187e-05 -2.2150719161818594e-05 1.9358737393973187e-05 -2.146566811760402e-06" pbc="T T T"
C       -0.01000576       0.01904893       3.66580841      -0.00028312       0.00814882       0.00592073
C       -1.27706802       2.13876221       3.60243566      -0.00375959      -0.00816739      -0.00977554
C       -2.47981172       4.29426247       3.58391319       0.00780993       0.00374217       0.00675043
C       -3.67049780       6.44297039       3.61129831      -0.00092127      -0.00180881      -0.00293614
C       -4.91003400       8.58772349       3.67513502       0.00714888      -0.01078809       0.00383373
C        2.45002278       0.03432723       3.81232472      -0.00767347       0.00106664       0.00733017
C        1.14555706       2.12625639       3.86228510       0.00206453       0.00765125       0.00323323
C       -0.09147594       4.21233926       3.98383856       0.00242660      -0.00728016      -0.00248182
C       -1.22498394       6.40170409       3.93632331      -0.00597628       0.00983110       0.00607046
C       -2.44429717       8.56317946       3.84288110       0.00122272       0.00645863       0.00197906
C        4.91607668       0.03680368       3.78676225      -0.00010412      -0.00400879      -0.00308724
C        3.63917518       2.13358448       3.58968559       0.00280799      -0.00217028       0.00296295
S        1.26537758       6.34878401       4.98624666       0.00765971       0.00149523       0.01262478
C       -0.00072646       8.57719211       4.04996484      -0.00259738      -0.00132415      -0.00491313
C        7.37695463       0.03340007       3.72491239      -0.00093235      -0.00200212       0.00279884
C        6.12988059       2.17795201       3.50526208       0.00386355      -0.00166253      -0.00239800
C        4.97551318       4.36768151       3.42485275      -0.00714101       0.00219586       0.00891505
C        3.81614219       6.49997294       3.91818562      -0.00434874      -0.00553479      -0.00484033
C        2.46402020       8.59219697       3.97924091      -0.00476515       0.01369406       0.00110749
C        9.84474513       0.02069921       3.63896397       0.00808997      -0.00196809       0.00403546
C        8.60184390       2.16077138       3.51731081       0.00575406      -0.00140634       0.00606109
C        7.40631674       4.31066163       3.46063017      -0.00032285       0.00438466       0.00261943
C        6.23383884       6.48140415       3.54004358      -0.00207466       0.00222811       0.00372631
C        4.94608426       8.58850817       3.69845657      -0.00479533      -0.00361562      -0.00693233
C       -0.03917885       1.43957157       3.68279832       0.00306717       0.00773461       0.00003403
C       -1.27115048       3.55178481       3.65968587       0.00450152      -0.00764892      -0.00601817
C       -2.45097825       5.71230722       3.68193951      -0.00186633       0.00578180       0.00675887
C       -3.67698574       7.86474389       3.70860494       0.01108999      -0.00761339      -0.00275231
C       -4.93761447      10.00604513       3.73319087      -0.00335861      -0.00692289       0.00311427
C        2.40690393       1.46539656       3.81068589      -0.00164962       0.00250537      -0.00149107
O        1.03693979       3.44556691       4.25629022      -0.01015709      -0.01041079      -0.00651913
C       -0.07617589       5.60203444       4.19176886      -0.00610743      -0.00005650      -0.00637568
C       -1.21570303       7.83892037       3.97716105      -0.00364395       0.01006250      -0.00792826
C       -2.47268287      10.00172417       3.83480093      -0.00415848       0.00501341      -0.01032076
C        4.89146127       1.47063555       3.61886217       0.00266722      -0.00270656      -0.00846118
S        3.48468609       3.70228220       2.82812093      -0.00117230      -0.00716697       0.00062508
C        1.24845883       7.92912571       4.26897582      -0.00097292       0.00903082      -0.00367860
C       -0.01386346      10.00600047       3.85201982      -0.00309333      -0.00740401      -0.00574649
C        7.36282970       1.45775898       3.56429009       0.00593375      -0.00519004      -0.00126484
C        6.16527736       3.59605190       3.42924415      -0.00155378       0.00008446      -0.00150056
C        4.99872008       5.78601449       3.62962997      -0.00062298       0.00307548      -0.01057701
C        3.71215598       7.87941367       3.87507107      -0.00855322      -0.00182745       0.01099661
C        2.44495897      10.00521909       3.76001735       0.00400449       0.01068829      -0.00337903
C        9.83717372       1.44107084       3.55993052       0.00081999      -0.00675708      -0.00248310
C        8.62253333       3.58516261       3.49143369       0.00623561       0.00486260      -0.00046321
C        7.43824977       5.73946835       3.49983378      -0.00600694       0.00416244       0.00697589
C        6.19568987       7.89204938       3.61961012       0.00041540      -0.00102868       0.00486656
C        4.92266580      10.00147941       3.65672482       0.00313033      -0.00013506      -0.00606971
Mo       3.14733913       4.84860942       4.95699594      -0.00238088       0.00168381       0.00995751
O        3.23417578       4.54562869       6.69640624      -0.00358512       0.00686298       0.00255287
O        3.05077868       4.25382130       8.34144209       0.00478947      -0.00701263      -0.00424484
H        4.01660158       4.33907064       8.48370659       0.00907542      -0.00882698       0.00078759
