52
Lattice="12.336457 0.0 0.0 -6.168228499999997 10.683685154694365 0.0 0.0 0.0 15.0" Properties=species:S:1:pos:R:3:forces:R:3 energy=-449.4050162418997 free_energy=-449.4050162418997 stress="-0.005089038952141037 1.9769357905076358e-05 1.4550373820582041e-05 1.9769357905076358e-05 -0.004151644761524426 6.863483931794613e-07 1.4550373820582041e-05 6.863483931794613e-07 2.9486727438484915e-05" pbc="T T T"
C        0.00665608       0.01208401       3.51305602       0.00394590      -0.00334006       0.00307844
C       -1.23282783       2.12917675       3.45987784       0.00233034       0.00241494      -0.00230131
C       -2.46593413       4.26724530       3.37852959       0.00461613       0.00440748       0.00625489
C       -3.69501142       6.40893034       3.39154438      -0.00432539      -0.00073726      -0.00126163
C       -4.93164664       8.55011675       3.49094515      -0.00061656      -0.00112911       0.00262823
C        2.46624021      -0.00221679       3.56541412       0.00578099      -0.00130958      -0.00135179
C        1.22211673       2.15273549       3.86537824      -0.00745994       0.00268384      -0.00503783
C       -0.04386073       4.25617754       3.81320464      -0.00221552      -0.00360888      -0.00339564
C       -1.24397522       6.41121791       3.48938948       0.00111285      -0.00243973       0.00381379
C       -2.46763611       8.54840753       3.39783679       0.00033124      -0.00364306       0.01091404
C        4.94444263      -0.02037101       3.54661041       0.00260606       0.00352423       0.00381061
C        3.71848039       2.00748455       4.09609539      -0.00027452       0.00080011      -0.00763598
C        1.11433466       6.43268265       4.15007154      -0.00474915      -0.00294538       0.00705584
C        0.00210639       8.52922870       3.57832543      -0.00447261       0.00218051       0.01036252
C        7.40540998      -0.01359039       3.49859639      -0.00183953      -0.00156483       0.01194478
C        6.18920120       2.11535424       3.70065464      -0.00033951       0.00390350       0.00096249
C        5.11106570       4.27168382       4.28966850      -0.00396687       0.00148192      -0.00561213
P        3.73658834       6.50247080       5.04491382       0.00804893      -0.01349825       0.00408079
C        2.45927268       8.56618367       3.84666609       0.00441274      -0.00160418      -0.00695502
C        9.87031902      -0.00663356       3.48526871       0.00074860       0.00773130       0.00317426
C        8.63774897       2.12552339       3.40015577      -0.00012444       0.00002831      -0.00219754
C        7.42585971       4.26664970       3.54665599      -0.00263120      -0.00620416      -0.00052734
C        6.22945044       6.42425523       3.81923435      -0.00066113      -0.00046437      -0.00287440
C        4.96048698       8.57646632       3.77128732      -0.00380537       0.00292391      -0.00770132
C        0.00223767       1.43289688       3.57755481      -0.00361324      -0.00369632       0.00911721
C       -1.24378831       3.55091577       3.48851089       0.00091237       0.00008974       0.00612756
C       -2.46581364       5.69430691       3.37938287      -0.00076720       0.00536006       0.00171120
C       -3.69871439       7.83638568       3.40037523      -0.00292262      -0.00137048      -0.00144884
C       -4.93135635       9.97564694       3.49850299       0.00496251      -0.00244255       0.00995620
C        2.45994546       1.39615756       3.84557202      -0.00237154       0.00243445      -0.00372395
C        1.11450634       3.52935455       4.14922628      -0.00959948      -0.00084562       0.00015950
C       -0.04395374       5.70627777       3.81367895      -0.00132791      -0.00633306      -0.00359340
C       -1.23285773       7.83287147       3.46013952      -0.00088109      -0.00396089       0.00025947
C       -2.46647378       9.96823089       3.48514762       0.00613097      -0.00113306      -0.00008128
C        4.96032567       1.38503754       3.77086679       0.00250362       0.00475164      -0.00423286
P        3.73899345       3.45790426       5.05018033       0.01509238       0.00386805      -0.00558873
C        1.22152464       7.80946147       3.86729378      -0.00030954      -0.00154218      -0.01107406
C        0.00688976       9.94994035       3.51326948      -0.00258786       0.00269577       0.00052189
C        7.40497740       1.41175253       3.49094657      -0.00252428      -0.00065646       0.00090853
C        6.23007057       3.53726846       3.82002698      -0.00783132       0.00057562      -0.00519493
C        5.11043281       5.68931258       4.28852373       0.00073457      -0.00025589      -0.00942306
C        3.71798731       7.95462534       4.09495467       0.00259985      -0.00916105      -0.00363836
C        2.46636520       9.96423590       3.56618909       0.00244234       0.00311133      -0.00391951
C        9.86887456       1.41336030       3.39781251       0.00291841       0.00545258       0.01065041
C        8.64116071       3.55299157       3.39076534       0.00376806       0.00025439       0.00009961
C        7.42577860       5.69565939       3.54677102      -0.00107079      -0.00551266      -0.00134804
C        6.18910245       7.84606261       3.70067321      -0.00247458       0.00277373      -0.00042050
C        4.94461585       9.98186407       3.54729002       0.00013746       0.00543858       0.00060307
Mo       2.08804871       4.97965490       5.50749834       0.01275721       0.01174044       0.00195557
O        2.07998272       4.98667958       7.27593112      -0.00041206      -0.00200594      -0.01441497
O        1.80796826       4.99110139       8.92991400      -0.00566732       0.00074174      -0.00154632
H        2.76322474       4.98917454       9.14396218      -0.00705100       0.00003685       0.00634988
