52
Lattice="12.336457 0.0 0.0 -6.168228499999997 10.683685154694365 0.0 0.0 0.0 15.0" Properties=species:S:1:pos:R:3:forces:R:3 energy=-443.01945010333395 free_energy=-443.01945010333395 stress="-0.0024997363324564615 0.0002758521295035279 2.10684524772441e-05 0.0002758521295035279 -0.004615073897634443 2.173345885710258e-05 2.10684524772441e-05 2.173345885710258e-05 2.4843777036881134e-05" pbc="T T T"
C       -0.01551584      -0.11546766       3.89755868      -0.00620869       0.01011945      -0.00342854
C       -1.24728137       2.03285440       3.91806036      -0.00443093      -0.00542855       0.00698588
C       -2.50738662       4.16635619       4.14101983       0.00497219       0.00537923       0.00345394
C       -3.73384768       6.29913805       4.11945504      -0.00226437       0.00227915      -0.00166705
C       -4.96553379       8.42690049       3.96363960       0.01186472      -0.00212170      -0.00941841
C        2.45200152      -0.13783757       3.89048725      -0.00322873      -0.00190091       0.00061535
C        1.22047992       1.94358305       3.53381370       0.00541488       0.01773051      -0.00600498
C       -0.11202537       4.22216906       3.85150856      -0.00419076       0.00428586      -0.00359057
C       -1.27739413       6.31367052       4.22378738      -0.00370175       0.00060772      -0.00548410
C       -2.49428599       8.43214566       4.14049813       0.00191460       0.00499475       0.00211526
C        4.92104389      -0.13216616       3.94092556       0.01109365       0.00148665       0.00179723
C        3.70609031       1.90159641       3.32901179      -0.00516563       0.00800701       0.00167131
C        1.20924783       6.28554044       3.95353128       0.00714238      -0.00603724      -0.00029657
C       -0.01118942       8.42190148       4.07231862      -0.01234010      -0.01191789       0.00025335
C        7.38657374      -0.12011434       3.97490857       0.00317429      -0.00136716      -0.00254934
C        6.15747560       2.01186070       3.75686778      -0.00213781      -0.00322531       0.00122020
C        5.04908248       4.15965595       3.21654711      -0.00772846       0.00437525       0.00797298
S        3.74185813       6.43965551       2.29945365       0.01665481      -0.00862272       0.00497443
C        2.45502599       8.43654226       3.74840138      -0.00882802       0.00067723       0.00432390
C        9.85211458      -0.10799809       3.91598388      -0.00336342      -0.00035874       0.00480701
C        8.61535751       2.02536380       4.01123598      -0.00109298      -0.00310943       0.00610440
C        7.37952986       4.15850656       3.93019102      -0.00366738      -0.00719103       0.01010396
C        6.18909616       6.31837431       3.63977360       0.00351721       0.00393485       0.00026476
C        4.92183674       8.44877527       3.67042736      -0.00094718      -0.00338638       0.01395350
C       -0.01393460       1.31548791       3.81291171       0.00177946       0.01155315      -0.00990627
C       -1.27563173       3.45173781       4.01127533      -0.00085457      -0.00108393      -0.00393706
C       -2.50106397       5.59002100       4.20260188      -0.00120561       0.00652335      -0.00458753
C       -3.73039779       7.72034428       4.09938850       0.00959399       0.00011762       0.00108676
C       -4.95588426       9.85225811       3.94324107      -0.00491763      -0.00163798      -0.00664544
C        2.45979836       1.26589372       3.57812750      -0.00225662       0.00266607      -0.00256289
S        1.20674439       3.57141889       2.97144573      -0.00154532      -0.00545571       0.01336444
C       -0.02926343       5.61643623       4.06608088       0.00045564       0.00399691      -0.01106191
C       -1.25468928       7.72904918       4.18538132      -0.01144869      -0.00395073      -0.00416286
C       -2.48448854       9.84612053       4.01027638       0.00737236       0.00325706      -0.00988827
C        4.92653474       1.28183824       3.68654105      -0.00202487       0.00177835      -0.00840571
S        3.82613257       3.30775851       2.26789682       0.00992403       0.00884246      -0.01057105
C        1.23190537       7.68370477       3.92674105      -0.00892626      -0.00537949       0.00412686
C       -0.01082560       9.84159570       4.01429648       0.00541543      -0.01121207      -0.00059294
C        7.38034435       1.30783347       3.94272553       0.00065605      -0.00319727       0.00155660
C        6.18567792       3.42491121       3.67607779      -0.00641889      -0.00466948       0.00806610
C        5.05976084       5.59434728       3.16343824       0.00722280       0.00377413      -0.00267661
C        3.67971195       7.81954550       3.39127354      -0.00558816      -0.00500981       0.00731325
C        2.45231351       9.85893906       3.91159875      -0.00081348       0.00366944      -0.01276351
C        9.85943528       1.32013124       3.98130979      -0.00709065      -0.00411840      -0.00317382
C        8.60536569       3.44783349       4.06686074       0.00596158      -0.00085532       0.00373744
C        7.38110417       5.58943595       3.92784218      -0.00696711      -0.00273663       0.01546925
C        6.15034804       7.72836453       3.74210698       0.00903385       0.00413081      -0.00916580
C        4.91576189       9.86333363       3.85923581      -0.00648538       0.00065590       0.01788876
Mo       2.95786832       4.94915311       3.84153020       0.01314596       0.00505679      -0.00688979
O        3.92004616       6.54307965       6.08942028      -0.01876538      -0.01411765       0.01660362
O        2.95596772       7.24093653       6.77947089       0.04142263      -0.00996176      -0.00463166
H        2.70054901       6.59470994       7.47516146      -0.02312770       0.00815360      -0.01576788
