51
Lattice="12.336457 0.0 0.0 -6.168228499999997 10.683685154694365 0.0 0.0 0.0 15.0" Properties=species:S:1:pos:R:3:initial_magmoms:R:1:forces:R:3 energy=-446.3108210249868 free_energy=-446.3108210249868 stress="-0.003497113404574306 0.0015823535238897333 -4.938009640495748e-06 0.0015823535238897333 0.004736427266937347 -4.829607933695984e-06 -4.938009640495748e-06 -4.829607933695984e-06 2.4484534579674735e-05" pbc="T T T"
C       -0.02124257      -0.03507864       3.79089300       0.00000000       0.00390983      -0.00127377       0.00318962
C       -1.26413521       2.07645038       3.61573648       0.00000000      -0.00048793      -0.00547021      -0.00701560
C       -2.53695293       4.21235569       3.63344187       0.00000000       0.00411028       0.00052304      -0.00080373
C       -3.76189130       6.35518659       3.75791272       0.00000000      -0.00387802       0.00149097       0.00554258
C       -4.97550084       8.49526157       3.82647992       0.00000000       0.00124714       0.00521103      -0.00079325
C        2.44855236      -0.03929939       3.81355705       0.00000000       0.00038024       0.00230055       0.00379127
C        1.24572854       2.13478110       3.64273762       0.00000000      -0.00253209      -0.00071311      -0.00124173
C       -0.13399823       4.25589017       3.20889582       0.00000000      -0.00512556       0.00414916      -0.00260905
C       -1.33115953       6.38368913       3.55890116       0.00000000      -0.00095284      -0.00051212      -0.00378493
C       -2.50855678       8.50091102       3.76521401       0.00000000       0.00380658      -0.00506441       0.00226908
C        4.92222461      -0.07358692       3.80763388       0.00000000      -0.00846041       0.00176568       0.00374675
C        3.72295265       2.09548328       3.84987501       0.00000000       0.00181027      -0.00197830      -0.00648375
N        1.09817723       6.29305982       3.65046391       0.00000000      -0.00050649       0.00063207       0.00085093
C       -0.01791325       8.44296545       3.71820089       0.00000000       0.00165689       0.00458869       0.00364580
C        7.39004770      -0.10704374       3.78963026       0.00000000      -0.00351327      -0.00198052      -0.00418798
C        6.15579761       2.06151672       3.83584171       0.00000000       0.00030338       0.00273440       0.00562067
C        4.88460607       4.20732682       3.88935189       0.00000000      -0.00238574      -0.00110914       0.00540632
O        3.75631239       6.37778843       3.78267505       0.00000000      -0.00230556      -0.00357802       0.00217343
C        2.45091350       8.38635669       3.75316708       0.00000000       0.00358086      -0.00431873      -0.00048238
C        9.83774536      -0.09340037       3.76408116       0.00000000      -0.00062387      -0.00032423      -0.00926385
C        8.60606474       2.05574815       3.74951487       0.00000000      -0.00246675      -0.00190236       0.01124885
C        7.34867400       4.20415819       3.80886704       0.00000000       0.00457968      -0.00256272       0.00279112
C        6.12526905       6.34655597       3.85416940       0.00000000      -0.00169116       0.00269704      -0.00080459
C        4.90880214       8.47835031       3.79783932       0.00000000       0.00076653       0.00440680       0.00208069
C       -0.02034698       1.39775154       3.70336871       0.00000000      -0.00043312      -0.00485103      -0.00518245
C       -1.31513959       3.49599249       3.49149719       0.00000000       0.00466407      -0.00146994       0.01159208
C       -2.54271946       5.64429582       3.64232971       0.00000000      -0.00272665       0.00184415      -0.00492945
C       -3.74509711       7.78318416       3.78714304       0.00000000      -0.00037903       0.00161012       0.00280747
C       -4.96004450       9.92970712       3.81652856       0.00000000       0.00335731       0.00306083       0.00671267
C        2.47601150       1.39242226       3.77966784       0.00000000       0.00120088       0.00124249      -0.00635852
S        1.13055705       3.40912519       2.22639146       0.00000000       0.00179578      -0.00051249       0.00840968
C       -0.11013527       5.70673676       3.41424709       0.00000000      -0.00136465       0.00103621       0.00036845
C       -1.28499414       7.78633238       3.68286906       0.00000000       0.00596250      -0.00215879      -0.00030754
C       -2.49126132       9.92279406       3.80653958       0.00000000      -0.00401069      -0.00396299      -0.00060517
C        4.93665733       1.35389374       3.83975476       0.00000000       0.00079474       0.00146975      -0.00414132
N        3.71817731       3.46518577       3.94383195       0.00000000      -0.00382910      -0.00271644      -0.00600950
C        1.19295051       7.67739869       3.71614856       0.00000000       0.00078588       0.00091985       0.00074672
C       -0.01195042       9.87265688       3.78054638       0.00000000      -0.00737836       0.00538691      -0.00265837
C        7.38442670       1.33292156       3.80147418       0.00000000      -0.00374530      -0.00133869      -0.00980515
C        6.12513819       3.49050245       3.84718422       0.00000000       0.00102735       0.00207177       0.00633338
C        4.91179946       5.64042445       3.85289057       0.00000000      -0.00036241      -0.00147082      -0.00547844
C        3.71117657       7.75086568       3.75362907       0.00000000       0.00389750      -0.00285804       0.00271826
C        2.44569284       9.83419194       3.77079520       0.00000000      -0.00000637      -0.00373071       0.00303731
C        9.83926260       1.34338268       3.71471270       0.00000000      -0.00324824      -0.00127589       0.00050509
C        8.58362508       3.48625204       3.73960402       0.00000000       0.00541271      -0.00238591      -0.00207681
C        7.35086058       5.62967311       3.81963926       0.00000000      -0.00231729      -0.00137952      -0.00465344
C        6.13737039       7.77341013       3.83618805       0.00000000       0.00050495       0.00581468      -0.00056174
C        4.91024356       9.91269751       3.78885465       0.00000000       0.00229822       0.00394285      -0.00423704
Mo       1.78828360       4.29747892       4.21839263       0.00000000       0.00252755      -0.00203603       0.01657425
O        3.26043865       5.67759019       6.23900007       1.00000000       0.00235077       0.00765367      -0.00007668
O        2.78646107       6.82675096       6.18348042       1.00000000       0.00199902      -0.00361781      -0.01761001
