52
Lattice="12.336457 0.0 0.0 -6.168228499999997 10.683685154694365 0.0 0.0 0.0 15.0" Properties=species:S:1:pos:R:3:forces:R:3 energy=-450.1878723492989 free_energy=-450.1878723492989 stress="-0.0007272196556410963 0.0021947327751511902 -1.5865648713428496e-05 0.0021947327751511902 0.003849942833048048 -1.4692129285718717e-05 -1.5865648713428496e-05 -1.4692129285718717e-05 1.4468608489915086e-05" pbc="T T T"
C        0.13637939      -0.09535659       3.81250659      -0.00511948      -0.00738624       0.00377338
C       -1.08847757       2.03238095       3.61926924      -0.00251891       0.00387306      -0.00042312
C       -2.31864623       4.16927272       3.54647123      -0.00207470      -0.00701499       0.00088069
C       -3.56485298       6.30359184       3.70020844       0.00853902      -0.00102606      -0.00091933
C       -4.81779792       8.44040703       3.87074425       0.00165896       0.00931125       0.00750111
C        2.59626930      -0.06477402       3.90562312       0.00309560       0.00200548       0.00125784
C        1.35019464       2.08672088       3.96589328       0.00040071      -0.00330177       0.00127075
C        0.13292549       4.18268211       3.70787540      -0.00051204       0.00855788      -0.00696430
C       -1.10504423       6.31348117       3.59487978      -0.00066112       0.00008492       0.00398949
C       -2.34448150       8.45147545       3.72888988       0.00208356      -0.00123060       0.00159891
C        5.06319254      -0.09953250       3.76753153      -0.00586323      -0.00135052       0.00119866
C        3.87989880       2.05598399       4.12323757       0.00669195       0.00477181       0.00207497
O        1.26629179       6.35241815       3.58136773      -0.00628363      -0.00519050       0.00465466
C        0.11715453       8.43123148       3.65554596       0.00000426      -0.00054142      -0.00000234
C        7.53663439      -0.13053297       3.63096374      -0.00040674       0.00451880       0.00646547
C        6.32463412       2.00459478       3.74889084      -0.00573112      -0.00023114       0.00495963
C        5.15607399       4.08242244       4.20600987       0.00327373      -0.00379762       0.00151107
S        3.78943499       6.23552406       4.94919272       0.00603052       0.00506216      -0.00657686
C        2.56416214       8.39771782       3.81422701       0.00184056      -0.00535988       0.00681854
C       10.00123771      -0.12817475       3.68039415       0.00547311       0.00038214       0.00406537
C        8.78347244       2.01624660       3.57388718      -0.00505758      -0.00491495      -0.00320236
C        7.55981494       4.15225326       3.71088889      -0.00025046      -0.00399622       0.00350069
C        6.32617517       6.28101240       4.01548701      -0.00566264       0.00397164       0.00081534
C        5.04971722       8.42700417       3.98437291       0.00241756       0.00004464       0.00344919
C        0.14136835       1.33791397       3.76898679      -0.00500455      -0.00648327      -0.00424167
C       -1.08432058       3.46104488       3.56363081       0.00096785       0.00568892      -0.00278141
C       -2.33080493       5.59088637       3.59644504       0.00609342      -0.00755742      -0.01289955
C       -3.57929160       7.73175949       3.77023184       0.00205143       0.00381744      -0.00381515
C       -4.80321687       9.88287449       3.87230476       0.00142388       0.00562799       0.00237024
C        2.60410057       1.37842063       4.04118337       0.00721034       0.00272459      -0.00859518
N        1.27950034       3.46664105       4.05133464      -0.00147189       0.00419581       0.00213358
C        0.10371822       5.61551256       3.61592641      -0.00515761       0.00289967       0.00686125
C       -1.12216261       7.73620883       3.64505805       0.00176105      -0.00250990       0.00483274
C       -2.34651564       9.88680991       3.81170870      -0.00218451      -0.00350475      -0.00390818
C        5.08327100       1.32110507       3.85894838      -0.00199228      -0.00005002       0.00588810
N        3.99670020       3.38519897       4.44774594      -0.00022371       0.00584296      -0.00959169
C        1.31292455       7.72380728       3.69154220      -0.00049728      -0.00533829      -0.00007589
C        0.12877393       9.86114642       3.67380962      -0.00312427       0.00290340       0.00649947
C        7.54999514       1.29729847       3.62350760      -0.00725419       0.00336740      -0.00259368
C        6.34912289       3.41337758       3.83995240      -0.00082545      -0.00348529      -0.00092015
C        5.18989152       5.49331483       4.31441225       0.00210185      -0.00468184       0.01151543
C        3.79993195       7.76374919       4.15244824       0.00611127      -0.00458785      -0.00199571
C        2.59389867       9.82849358       3.67421063       0.00471563       0.00087339       0.00216758
C       10.01485422       1.30572281       3.59468728      -0.00046746       0.00090906      -0.00607091
C        8.78748313       3.44441552       3.57940790      -0.00390785      -0.00904992       0.00004150
C        7.55364187       5.57728052       3.78962712      -0.00051521       0.00242845      -0.00751970
C        6.29081382       7.71411844       3.98676696      -0.00149561       0.00698395      -0.00044559
C        5.06537705       9.85839413       3.80215384       0.00038293      -0.00651603       0.00039702
Mo       2.43195415       4.40927084       5.49392556      -0.00392998       0.00011835      -0.01860426
O        1.32421247       5.49378311       6.36140306       0.00877834       0.00097060      -0.00457378
O        0.16229562       6.82000894       6.43532454      -0.01570377       0.01366772      -0.00704595
H        0.02822798       6.59966491       7.38614471       0.01078978      -0.00649695       0.01127409
