52
Lattice="12.336457 0.0 0.0 -6.168228499999997 10.683685154694365 0.0 0.0 0.0 15.0" Properties=species:S:1:pos:R:3:forces:R:3 energy=-450.183710282133 free_energy=-450.183710282133 stress="-0.004564571575911165 0.0026505130707279567 -1.889586493251285e-05 0.0026505130707279567 -0.0019615942772802613 1.6103054398177116e-05 -1.889586493251285e-05 1.6103054398177116e-05 1.5165636721205572e-05" pbc="T T T"
C        0.12556874      -0.04999122       3.74637299       0.00543995      -0.00876771      -0.00090911
C       -1.10947480       2.06930519       3.75738091       0.00413409      -0.00056056       0.00956989
C       -2.34159532       4.20732974       3.71331172       0.00328629      -0.00144278      -0.00263604
C       -3.57710976       6.34758914       3.64968158       0.00007024      -0.00109092      -0.00768890
C       -4.82776773       8.48554049       3.65802085      -0.01295109       0.00078801       0.00652584
C        2.58241946      -0.02436600       3.77149908       0.01333730      -0.00178107      -0.00178744
C        1.34428400       2.12409910       3.95366765      -0.00984466       0.00130308       0.00050525
C        0.05767507       4.16422703       4.18701158      -0.00349922       0.00464066       0.00261962
C       -1.15332655       6.33876030       4.09699894       0.01427804      -0.00231528       0.00102928
C       -2.35677909       8.49101075       3.84349987       0.00498388       0.00291988       0.00884184
C        5.04884447      -0.05859571       3.73584705       0.00299183       0.00963107      -0.00384047
C        3.85271438       2.09649294       3.67846705      -0.00262720      -0.00673154       0.00548045
P        1.27703231       6.40584433       5.35998139      -0.00314922      -0.00343756      -0.00232660
C        0.09828915       8.51526197       4.11634606      -0.00327949       0.00827585       0.00263942
C        7.52141311      -0.06091782       3.76453803      -0.01186451       0.00385412       0.00871576
C        6.31464374       2.03971687       3.48294777       0.00015362      -0.00688586      -0.00339158
C        5.13510004       4.13449247       3.38287798       0.00076737       0.00390114      -0.00001168
S        3.55263341       6.19150267       3.13333224      -0.00161869       0.00231710       0.00921408
C        2.57391180       8.52239924       4.04558241       0.01146476      -0.00353556       0.00525636
C        9.99586890      -0.06226409       3.73364827       0.00159611      -0.00280686       0.00945119
C        8.77326949       2.06465825       3.57836100       0.00488362       0.00656024      -0.00382363
C        7.56104967       4.19920445       3.42808871      -0.01263490      -0.00140891       0.00577833
C        6.29891075       6.33389252       3.45011667      -0.00548376       0.00525190      -0.00465839
C        5.03845173       8.47041447       3.66694412       0.00054756      -0.00711502       0.00065609
C        0.12696379       1.37801592       3.81734083      -0.00149269      -0.00637757      -0.00023791
C       -1.13024992       3.47825222       3.85151350       0.00643707       0.00252096      -0.00701089
C       -2.35700201       5.63185648       3.79377769       0.00692152      -0.00397901       0.00786692
C       -3.58898767       7.77475028       3.71584217      -0.00486789       0.00651818      -0.01644083
C       -4.81460811       9.92461602       3.73402351       0.00979139      -0.00150466      -0.00560113
C        2.59123248       1.42165039       3.82446138      -0.00697285      -0.00227726      -0.00531059
N        1.26882084       3.48088277       4.23830573      -0.01104016       0.00225542       0.00530501
C       -0.01673245       5.55995334       4.44014849       0.00662066       0.00231644       0.00455939
C       -1.13991582       7.78122153       4.04853200       0.00655812      -0.00021913      -0.00000148
C       -2.35973490       9.92658969       3.78370771       0.01499108       0.00432150       0.00461269
C        5.06890808       1.35570252       3.59589722       0.00064244      -0.00083961      -0.00789943
N        3.94111563       3.47057901       3.60590130      -0.00644714       0.00128347      -0.00250948
C        1.33967956       7.89674723       4.40255188       0.00103430       0.00542031       0.00545420
C        0.11245914       9.92054653       3.84841539      -0.01147540       0.00659814      -0.00290305
C        7.53932970       1.34547310       3.58147741       0.00298964       0.00175784      -0.00017317
C        6.35300349       3.44856362       3.36866229      -0.00715433      -0.00654762      -0.00789066
C        5.12976903       5.54527998       3.36198318       0.00129023       0.00517083       0.00914529
C        3.77679321       7.81780000       3.73397371       0.00641786      -0.00471085      -0.00933509
C        2.58884260       9.93067054       3.84742515      -0.00555953      -0.00131700       0.00009673
C       10.00073763       1.35845507       3.66990200       0.00396826       0.00244405       0.00930302
C        8.78177440       3.48828150       3.54235867      -0.00381312       0.00570880      -0.00697027
C        7.54410598       5.62568710       3.48231591      -0.01061605      -0.00128390       0.00121717
C        6.27540043       7.76200685       3.56782267      -0.01139113      -0.00164749      -0.00437273
C        5.05703851       9.90910398       3.72666398       0.00255833      -0.00966925      -0.00385107
Mo       2.79704631       4.71108535       4.78345499      -0.00129647       0.00164011      -0.00545289
O        0.82484519       6.88153963       6.85807895       0.01161971      -0.00600816       0.00404812
O        0.39848945       5.64442577       7.67353193       0.01216630       0.00300776      -0.00757370
H        1.04825435       5.76213113       8.39483557      -0.01286209      -0.00614569      -0.00328372
