51
Lattice="12.336457 0.0 0.0 -6.168228499999997 10.683685154694365 0.0 0.0 0.0 15.0" Properties=species:S:1:pos:R:3:initial_magmoms:R:1:forces:R:3 energy=-445.21047808605357 free_energy=-445.21047808605357 stress="-0.003835119239037496 0.00010584424611547545 6.564646362720376e-06 0.00010584424611547545 -0.0027384288042054585 1.0245918255231478e-05 6.564646362720376e-06 1.0245918255231478e-05 2.6531156259714925e-06" pbc="T T T"
C       -0.03004572       0.08844103       3.55161727       0.00000000       0.00200759       0.00403549       0.00491489
C       -1.27724215       2.20690718       3.68709866       0.00000000       0.00276565       0.00429617      -0.00126612
C       -2.50771484       4.35526156       3.73050951       0.00000000      -0.00163021      -0.00597503      -0.00257763
C       -3.72259427       6.49525745       3.60836636       0.00000000       0.00338459       0.00011291      -0.00711488
C       -4.97093003       8.63237342       3.48760596       0.00000000      -0.00526157      -0.00186434       0.00299747
C        2.43359925       0.11902797       3.59898892       0.00000000       0.00276235       0.00135278      -0.00001381
C        1.17802351       2.24285463       3.71166614       0.00000000      -0.00429552       0.00652780       0.00077317
C       -0.08874129       4.29148818       3.99404760       0.00000000       0.00443711      -0.00249794      -0.00098555
C       -1.26289697       6.48628755       3.92370918       0.00000000       0.00250046       0.00223812      -0.00436041
C       -2.49838391       8.63548644       3.69674940       0.00000000      -0.00269598       0.00488902       0.00908446
C        4.89326309       0.09779684       3.63044867       0.00000000       0.00201463       0.00248642       0.00632471
C        3.68045091       2.26515932       3.55929596       0.00000000       0.00320795      -0.00641774       0.00622349
P        1.16528911       6.61676848       5.17384214       0.00000000      -0.00630443      -0.01299986      -0.00130162
C       -0.03875438       8.64976384       3.85835945       0.00000000      -0.00713346       0.00450381      -0.00175939
C        7.36636373       0.08884627       3.63800451       0.00000000      -0.00485526      -0.00783079       0.00411885
C        6.14480734       2.20777646       3.53348991       0.00000000       0.00514966      -0.00023271       0.00297615
C        4.95739187       4.30393653       3.33163718       0.00000000       0.00120195       0.00791908       0.00297525
S        3.53119565       6.44282463       2.44498256       0.00000000       0.00680549       0.00044271       0.01150284
C        2.43490673       8.64774530       3.65997611       0.00000000      -0.00261101      -0.00597458       0.01875349
C        9.83694995       0.08447963       3.55859568       0.00000000       0.00090715      -0.00480183      -0.00129012
C        8.60405470       2.21982407       3.60463706       0.00000000       0.00416031      -0.00811107       0.00421357
C        7.38812294       4.35461281       3.51398334       0.00000000      -0.00416923       0.00445672      -0.01088863
C        6.14799568       6.48498214       3.32137699       0.00000000      -0.00357518       0.00324339      -0.00800200
C        4.89797369       8.63101032       3.36649458       0.00000000      -0.00136415      -0.00173705      -0.00069961
C       -0.04048488       1.50853615       3.65172099       0.00000000      -0.00112178       0.00596834      -0.00073920
C       -1.29748371       3.61595615       3.81320676       0.00000000       0.00295098       0.00184751      -0.00649854
C       -2.49461997       5.78169428       3.75144244       0.00000000       0.00427783      -0.00347972      -0.00202622
C       -3.73106024       7.92178258       3.59511893       0.00000000      -0.00172087       0.00108959      -0.00335974
C       -4.96371870      10.06903317       3.54264356       0.00000000       0.00163689      -0.00055121       0.00106368
C        2.43290552       1.56000167       3.62599590       0.00000000      -0.00558692       0.00085672      -0.00307355
N        1.09740197       3.60271696       3.89360351       0.00000000       0.00443245       0.00736585       0.00098850
C       -0.05382294       5.72311630       4.14704279       0.00000000       0.00154258      -0.00301532      -0.00761988
C       -1.27012528       7.91991361       3.85918480       0.00000000      -0.00302036       0.00487270       0.00047743
C       -2.50678169      10.07101793       3.63910477       0.00000000       0.00440362       0.00332173      -0.00167075
C        4.90054608       1.52099047       3.55976309       0.00000000       0.00639365      -0.00249608      -0.00036876
N        3.75312681       3.64004494       3.44891938       0.00000000       0.01197579      -0.00731967      -0.00818801
C        1.21407624       7.98696857       4.01468032       0.00000000      -0.01051734       0.00118584       0.01369710
C       -0.03930344      10.06800727       3.69093919       0.00000000      -0.00620399      -0.00087003      -0.00450855
C        7.37238752       1.50590232       3.58615793       0.00000000       0.00321489      -0.00845504       0.00014460
C        6.17424963       3.61737441       3.45492046       0.00000000      -0.00113866       0.00406282      -0.00489328
C        4.97037163       5.71272590       3.15019797       0.00000000      -0.00530457       0.00868469      -0.00157049
C        3.63986475       7.98335762       3.29051412       0.00000000      -0.00168650       0.00346973      -0.00523032
C        2.43490233      10.07260962       3.61386697       0.00000000      -0.00319104      -0.00583094       0.00747806
C        9.83374522       1.50538630       3.61294364       0.00000000       0.00680407      -0.00314753      -0.00267940
C        8.60900769       3.64232979       3.61681213       0.00000000      -0.00404792      -0.00443422      -0.01530108
C        7.38611532       5.77935080       3.48268672       0.00000000      -0.00394385       0.00595237      -0.00307561
C        6.13557062       7.91528267       3.35249212       0.00000000      -0.00581496      -0.00319952       0.00857745
C        4.90225086      10.05770711       3.49763513       0.00000000       0.00259897      -0.00283453       0.01644794
Mo       2.37919658       5.13577398       3.93638043       0.00000000       0.00529330       0.00964072      -0.01549202
O        3.26140785       3.33649556       9.34663128       1.00000000       0.00098362      -0.00917404       0.00714929
O        3.34168264       2.23618194       9.90569247       1.00000000      -0.00061874       0.00842775      -0.00432723
