51
Lattice="12.336457 0.0 0.0 -6.168228499999997 10.683685154694365 0.0 0.0 0.0 15.0" Properties=species:S:1:pos:R:3:initial_magmoms:R:1:forces:R:3 energy=-445.94358844422425 free_energy=-445.94358844422425 stress="-0.0008594283385650336 0.0025948505014220615 3.713419598837776e-06 0.0025948505014220615 0.00302258437225792 -1.7935514739720132e-06 3.713419598837776e-06 -1.7935514739720132e-06 3.081262229028095e-05" pbc="T T T"
C        0.14824622       0.16246783       3.70552432       0.00000000      -0.00231427      -0.00050769      -0.00166096
C       -1.07037054       2.29321700       3.54913526       0.00000000       0.00002428       0.00123161       0.00085049
C       -2.29670531       4.42719953       3.46484367       0.00000000      -0.00003617      -0.00035434       0.00261168
C       -3.55162377       6.56163023       3.57953046       0.00000000       0.00042593      -0.00043936      -0.00213510
C       -4.80594314       8.69814726       3.73762619       0.00000000      -0.00335176       0.00110389      -0.00392423
C        2.60977110       0.18761579       3.74456949       0.00000000       0.00158560      -0.00117023      -0.00137913
C        1.36800951       2.33658587       3.86650747       0.00000000      -0.00151895      -0.00046264       0.00403565
C        0.15308547       4.44520805       3.69137663       0.00000000       0.00283741       0.00263113      -0.00119256
C       -1.08928426       6.57069770       3.52989410       0.00000000       0.00105721      -0.00089675       0.00198209
C       -2.33184314       8.70893089       3.58783682       0.00000000       0.00226877      -0.00358742      -0.00322813
C        5.07873202       0.15627708       3.58417406       0.00000000       0.00178050       0.00131097      -0.00193354
C        3.89653963       2.29689166       3.92567793       0.00000000      -0.00004878       0.00345929       0.00064864
O        1.28286413       6.61370891       3.46248775       0.00000000      -0.00060604       0.00098258       0.00145788
C        0.13451399       8.69173429       3.51503947       0.00000000       0.00041760       0.00186251      -0.00236234
C        7.55595665       0.12956413       3.47372030       0.00000000       0.00246355      -0.00077787       0.00041043
C        6.34209036       2.26365908       3.56377224       0.00000000      -0.00036234       0.00178283      -0.00080008
C        5.17916900       4.34628108       4.02497054       0.00000000      -0.00176944      -0.00142972       0.00287250
S        3.77560832       6.48202591       4.82905557       0.00000000      -0.00117836      -0.00223810       0.00022498
C        2.58154810       8.65728345       3.68578694       0.00000000      -0.00219624      -0.00164486       0.00420004
C       10.01964206       0.13377647       3.56482030       0.00000000       0.00183466      -0.00537971      -0.00213855
C        8.80413498       2.27607114       3.44057891       0.00000000       0.00041102      -0.00066920       0.00417883
C        7.57785948       4.41221368       3.56085877       0.00000000      -0.00211222       0.00151740       0.00405177
C        6.33572592       6.53935102       3.88254462       0.00000000      -0.00107238      -0.00088453       0.00017910
C        5.06196794       8.68418949       3.86398458       0.00000000       0.00109775       0.00078865       0.00224961
C        0.15514442       1.59511106       3.68699877       0.00000000      -0.00141476      -0.00043522      -0.00311912
C       -1.06253174       3.72351307       3.51828725       0.00000000       0.00185291       0.00253285       0.00468928
C       -2.31476876       5.84692689       3.50991845       0.00000000       0.00135754      -0.00073586       0.00053335
C       -3.56730465       7.98946913       3.63783483       0.00000000      -0.00129817      -0.00019508       0.00107508
C       -4.79118678      10.13905125       3.73530613       0.00000000      -0.00213922       0.00183106       0.00235263
C        2.62185146       1.62794437       3.88190351       0.00000000       0.00070740      -0.00015804      -0.00275579
N        1.30112717       3.71867974       4.00324748       0.00000000       0.00146927       0.00110987       0.00170972
C        0.12360758       5.87597716       3.60199688       0.00000000       0.00000591       0.00132631      -0.00172841
C       -1.10660683       7.99394316       3.52672260       0.00000000       0.00316260      -0.00177963       0.00096348
C       -2.33249928      10.14400825       3.64195280       0.00000000       0.00300146      -0.00263508      -0.00136886
C        5.09954592       1.57621269       3.66220903       0.00000000       0.00034236       0.00239005       0.00362417
N        4.01172011       3.63410099       4.25450896       0.00000000      -0.00280728       0.00223469       0.00076988
C        1.32988939       7.98622614       3.57204016       0.00000000      -0.00238487       0.00026766      -0.00275706
C        0.14737345      10.12193657       3.50972583       0.00000000       0.00182135       0.00177320      -0.00055044
C        7.56825860       1.55873111       3.46010975       0.00000000      -0.00021935       0.00010488       0.00344033
C        6.36462203       3.67481753       3.66148106       0.00000000      -0.00225063       0.00103308       0.00021758
C        5.19406903       5.75159289       4.17651314       0.00000000      -0.00173239      -0.00168361      -0.00469779
C        3.81024076       8.01500072       4.03592863       0.00000000       0.00128436       0.00534576      -0.00163418
C        2.61215264      10.08930126       3.53760155       0.00000000       0.00098556      -0.00384381      -0.00296407
C       10.03564113       1.56682337       3.49149878       0.00000000       0.00146524      -0.00295821       0.00311507
C        8.80708755       3.70324952       3.45526604       0.00000000      -0.00218282       0.00082344      -0.00003404
C        7.56397438       5.83674091       3.65289306       0.00000000      -0.00027136       0.00088051       0.00189061
C        6.30280503       7.97209411       3.85876899       0.00000000      -0.00134117      -0.00157039      -0.00763882
C        5.07857135      10.11675180       3.69234685       0.00000000       0.00158593      -0.00254049       0.00053782
Mo       2.57815861       4.53936833       5.33611227       0.00000000      -0.00148661       0.00214547       0.01672806
O       -1.29407671       1.02155355       7.81874815       1.00000000      -0.00096799       0.00275375      -0.01741974
O       -1.30759912       0.99118279       6.58471543       1.00000000       0.00181739      -0.00424557      -0.00417778
