51
Lattice="12.336457 0.0 0.0 -6.168228499999997 10.683685154694365 0.0 0.0 0.0 15.0" Properties=species:S:1:pos:R:3:initial_magmoms:R:1:forces:R:3 energy=-448.6683030895547 free_energy=-448.6683030895547 stress="-0.0020627301423706175 -0.004438128611693579 -9.258546488250854e-05 -0.004438128611693579 0.005153313014824538 -1.69999968719309e-05 -9.258546488250854e-05 -1.69999968719309e-05 0.00010222294323467152" pbc="T T T"
C        0.00567138      -0.01938528       3.83191060       0.00000000      -0.00497384      -0.00059434      -0.00137089
C       -1.25254511       2.09695168       3.77698296       0.00000000      -0.00978280       0.01107751       0.01469411
C       -2.45791311       4.24455143       3.61415956       0.00000000      -0.00897665       0.00842880       0.03345005
C       -3.65849210       6.39936702       3.57470610       0.00000000       0.01155701      -0.00199478      -0.00654611
C       -4.90200171       8.54510987       3.70214581       0.00000000       0.00488205      -0.00992185       0.00994783
C        2.47674139      -0.00292945       3.89580909       0.00000000      -0.00319266       0.01466649      -0.01665435
C        1.19007009       2.14174347       4.04931686       0.00000000      -0.00119670      -0.00298029      -0.01525144
C       -0.03823928       4.22100551       3.99352983       0.00000000       0.00117782       0.00195798       0.00778263
C       -1.21093608       6.38318765       3.73754333       0.00000000       0.00864007       0.00266932       0.03719033
C       -2.43610719       8.53326268       3.74466163       0.00000000       0.00129721      -0.00414860       0.00607116
C        4.94786313      -0.01582612       3.74265308       0.00000000      -0.00509703      -0.00085636      -0.01560572
C        3.66372699       2.09705639       3.67869388       0.00000000       0.01779266       0.01100156       0.02005724
N        1.16449444       6.35976690       4.16918983       0.00000000      -0.00933176       0.01641330       0.01321789
C        0.03621311       8.49026560       3.80191286       0.00000000      -0.01280490       0.01249370       0.02132549
C        7.41284684      -0.04920012       3.68318782       0.00000000       0.00551087      -0.01164084      -0.00551335
C        6.15666313       2.13259842       3.51270562       0.00000000      -0.00868895       0.01182788      -0.00726471
C        5.03371875       4.37833818       3.23758385       0.00000000      -0.00572324      -0.02373597      -0.00701775
O        3.83327508       6.44793683       3.33169477       0.00000000       0.00062797      -0.00284558      -0.01760665
C        2.49999331       8.43209915       3.77804513       0.00000000      -0.01969659      -0.00437028      -0.01117853
C        9.86239434      -0.05708959       3.71737043       0.00000000       0.01256340      -0.00659989       0.00315483
C        8.62907756       2.10477047       3.59272295       0.00000000      -0.01402634      -0.02576809      -0.01459237
C        7.42966317       4.26694288       3.44556290       0.00000000       0.00905120       0.00820699      -0.02337659
C        6.24430914       6.44445655       3.40326938       0.00000000      -0.00207660      -0.00334515      -0.02207257
C        4.96378098       8.52050618       3.66468501       0.00000000      -0.00971792      -0.00576893      -0.02589638
C       -0.01383030       1.40735704       3.89706679       0.00000000      -0.00998144       0.00377356      -0.00615724
C       -1.24710247       3.51720947       3.75579166       0.00000000      -0.00856327       0.01414085       0.03163877
C       -2.43818940       5.67091093       3.62199143       0.00000000       0.00605999       0.00661591       0.02039356
C       -3.66456444       7.82574484       3.67064310       0.00000000       0.01228962      -0.01007965       0.01110671
C       -4.91794037       9.96579448       3.83704486       0.00000000      -0.00019581       0.00083148       0.01178864
C        2.44828173       1.43169116       3.94620904       0.00000000       0.00309402       0.01291178      -0.03190173
N        1.09131205       3.50263940       4.27182424       0.00000000       0.00170234      -0.00198272      -0.01816023
C       -0.00829993       5.66931510       3.96314428       0.00000000       0.00707542      -0.00029437       0.01496195
C       -1.20527054       7.80677243       3.75140779       0.00000000      -0.00116826       0.00375201       0.02908388
C       -2.44996054       9.96593513       3.81027652       0.00000000      -0.00748353       0.00071549      -0.00487911
C        4.92367974       1.42532427       3.63332188       0.00000000       0.00862779       0.00365038       0.02436954
S        3.45789161       3.74872900       3.21502444       0.00000000       0.03096711      -0.00414141      -0.03363193
C        1.24592703       7.73193007       3.92442669       0.00000000      -0.01867963       0.01301823      -0.00059691
C        0.01931083       9.92983260       3.73666565       0.00000000      -0.00122522       0.00624222       0.00361577
C        7.38992362       1.39663232       3.58275008       0.00000000      -0.02672884      -0.01095982       0.03717346
C        6.18340205       3.56869922       3.38257498       0.00000000       0.00187433       0.01107814      -0.00253990
C        5.04764516       5.77855173       3.24306025       0.00000000       0.00961980      -0.02173633      -0.01768143
C        3.76676383       7.79564257       3.62442949       0.00000000      -0.01940602      -0.00862402      -0.00697128
C        2.47468874       9.88225612       3.71929178       0.00000000       0.01204038      -0.00879841       0.00684896
C        9.85666665       1.38081057       3.68947895       0.00000000      -0.00176374      -0.00757509       0.00270045
C        8.64633145       3.53371281       3.53988374       0.00000000      -0.00042743      -0.01384994      -0.00459542
C        7.45311543       5.69041188       3.46025447       0.00000000       0.00460935       0.00939767       0.00371413
C        6.21736252       7.84709146       3.58873077       0.00000000      -0.00716471       0.00021443      -0.01904217
C        4.93929965       9.94274874       3.74972048       0.00000000       0.00114380      -0.01073212       0.00983487
Mo       2.27822673       4.96902543       5.34271365       0.00000000      -0.05889941       0.02150144       0.10445069
O        3.90848860       5.36260668       5.80991221       1.00000000       0.01437448       0.03259790      -0.02684672
O        1.28454793       4.98517752       6.75428375       1.00000000       0.09039462      -0.03584018      -0.11562145
