52
Lattice="12.336457 0.0 0.0 -6.168228499999997 10.683685154694365 0.0 0.0 0.0 15.0" Properties=species:S:1:pos:R:3:forces:R:3 energy=-449.9138542166471 free_energy=-449.9138542166471 stress="-0.0035934704707337923 -0.0004255420778445179 1.5633090218921876e-05 -0.0004255420778445179 -0.0010276792125295307 -9.585717082405183e-06 1.5633090218921876e-05 -9.585717082405183e-06 2.469061061109339e-05" pbc="T T T"
C       -0.06891923      -0.08243196       3.85401802       0.00637878      -0.00490085      -0.00295779
C       -1.31174911       2.03628436       3.79735504      -0.00838653       0.00016931      -0.00741204
C       -2.53592771       4.17530124       3.77675162       0.00491606      -0.00481392       0.00861187
C       -3.76726646       6.31501136       3.80444567       0.00415027      -0.00771287       0.00293806
C       -5.00925522       8.45820144       3.89439484      -0.00173314      -0.01085612       0.00091698
C        2.38939908      -0.08705300       3.69546633       0.00182638       0.00138858       0.00546347
C        1.14020849       2.06917004       3.65406951      -0.00650988       0.00419040       0.00878314
C       -0.08614362       4.15957249       3.79670229       0.00403130      -0.00350152       0.00196310
C       -1.30702241       6.31624861       3.82951246       0.00082116      -0.00515011      -0.00292673
C       -2.54148430       8.44879433       3.79622162      -0.00223809       0.00596180       0.00319926
C        4.86606316      -0.11719567       3.65804883       0.00136823       0.00729228       0.00030157
C        3.62970021       1.95350535       3.21203153      -0.00197292      -0.00283013       0.00002113
N        1.10903571       6.30729580       3.91154585      -0.00351769      -0.00519327      -0.00302382
C       -0.06763244       8.42327863       3.87772582      -0.00465547       0.00001111       0.00243035
C        7.33118070      -0.11796661       3.79736831       0.00150314      -0.00301925       0.00256838
C        6.10548302       2.01837136       3.52493307      -0.00106564      -0.00112282       0.00759013
C        4.93663668       4.19480736       3.46767173       0.00939025       0.00844572       0.00677965
P        3.75523927       6.24004630       5.22982344      -0.00334735       0.00680121       0.00531835
C        2.38655001       8.43171930       4.15260643       0.00285712      -0.00089081      -0.00941142
C        9.79007441      -0.10179394       3.93180610       0.00530826       0.00389823      -0.00781074
C        8.56176318       2.03142647       3.74970413      -0.00545855       0.00152868       0.00402168
C        7.34930840       4.17249925       3.70800565      -0.00044893      -0.00124388       0.00010269
C        6.11742802       6.32255592       3.90102972       0.00156383       0.00567824       0.01419201
C        4.87245935       8.47708324       4.16910981      -0.00473117       0.00572809      -0.00078973
C       -0.07332361       1.34278907       3.76783591      -0.00755764      -0.00000298      -0.00291669
C       -1.31073697       3.45535038       3.78376372       0.00435866      -0.00221440      -0.00077518
C       -2.53469878       5.59958136       3.79563331       0.00525288      -0.00778802      -0.00157331
C       -3.77417101       7.74060942       3.83087463       0.00166888      -0.00605351      -0.00548854
C       -5.00523489       9.88846153       3.83212705       0.00541826      -0.01067878      -0.00821336
C        2.38601394       1.34794816       3.51935202      -0.00657646       0.00303037       0.00074682
N        1.09658354       3.44426509       3.76480947       0.00888064       0.00660473      -0.00429245
C       -0.07746597       5.61076537       3.84261157      -0.00217324      -0.00888416      -0.00007738
C       -1.30688878       7.73409023       3.83138086      -0.00530513      -0.00092072      -0.00046518
C       -2.54462151       9.87488792       3.71696266       0.00269952       0.00815455      -0.00754447
C        4.86766147       1.30089107       3.45896075      -0.00090873       0.00376867       0.01077489
S        3.74934816       3.48899921       2.32952374       0.00619303       0.00498742       0.01380280
C        1.14779731       7.68962175       4.00292971      -0.00185848      -0.00325028       0.00165030
C       -0.06671811       9.85004165       3.78599340      -0.00198177       0.00196298      -0.00215853
C        7.32699575       1.31189837       3.68817995      -0.00222317      -0.00262005       0.00312402
C        6.12935515       3.43901907       3.57172237       0.00274336      -0.00188863      -0.00468914
C        4.91061971       5.55512695       3.91910703       0.01035437       0.00616095       0.00607954
C        3.63538357       7.84519505       4.47029364      -0.00117864      -0.00139467      -0.01337283
C        2.38644548       9.86003853       3.95762488       0.00747641       0.00080571      -0.01201118
C        9.79270401       1.32119105       3.82738915      -0.00608988       0.00198882      -0.01715274
C        8.57153175       3.45703351       3.74093569       0.00102460       0.00013561      -0.00481329
C        7.34555630       5.60122971       3.78227610       0.00035320       0.00010055       0.00788299
C        6.10412682       7.75026391       4.02137086      -0.00885856       0.00339079      -0.00052706
C        4.86652696       9.89129728       3.98498727       0.00414578       0.00165439      -0.00771805
Mo       2.62123490       4.82610786       3.82579355      -0.01080695      -0.00459398       0.01077239
O        4.52055513       6.23989508       6.66196405      -0.00422143       0.00221489       0.00174871
O        3.75454788       7.11429618       7.68407986       0.00078145       0.01480562       0.00018958
H        3.67481930       6.42470809       8.37169962      -0.00166035      -0.00933393      -0.00385224
