51
Lattice="12.336457 0.0 0.0 -6.168228499999997 10.683685154694365 0.0 0.0 0.0 15.0" Properties=species:S:1:pos:R:3:initial_magmoms:R:1:forces:R:3 energy=-445.15006559345204 free_energy=-445.15006559345204 stress="-0.006079657440064327 0.004060463446575605 7.403805404324108e-06 0.004060463446575605 -0.003991501140368951 -3.8558568873690275e-06 7.403805404324108e-06 -3.8558568873690275e-06 1.0950699375916996e-07" pbc="T T T"
C        0.10559116       0.05038728       3.60690176       0.00000000      -0.00245367       0.00531912      -0.01342337
C       -1.11234337       2.19984510       3.56037246       0.00000000      -0.00235272      -0.00110739      -0.00046440
C       -2.36772784       4.33322862       3.78629963       0.00000000      -0.00385757      -0.00391935      -0.00157922
C       -3.63024526       6.46226465       3.84215598       0.00000000       0.01114149      -0.00104160       0.00501319
C       -4.85663568       8.59027262       3.71882445       0.00000000      -0.00432829       0.00429125      -0.00331216
C        2.56606282       0.05842933       3.70358994       0.00000000       0.00063417      -0.00945721       0.00710148
C        1.36190978       2.13540292       3.26327432       0.00000000       0.01067454       0.01212473       0.00279689
C        0.01202946       4.41782308       3.37238994       0.00000000       0.00128705      -0.00269255       0.00448592
C       -1.18237902       6.49782083       3.82222644       0.00000000      -0.00089156       0.00089877      -0.00556490
C       -2.39390396       8.60999999       3.87258078       0.00000000      -0.00626312       0.01165391      -0.00908803
C        5.03784834       0.04116461       3.80856843       0.00000000       0.00825097       0.01004755      -0.00078279
C        3.85171582       2.17840682       3.59011564       0.00000000      -0.00493070      -0.00279050       0.01345435
N        1.22358290       6.50869864       3.55513632       0.00000000      -0.00258580      -0.00774019       0.00073291
C        0.07878691       8.59754725       3.78740708       0.00000000      -0.00825805      -0.00805755      -0.01586160
C        7.51866019       0.02752859       3.78028296       0.00000000      -0.00636652       0.00371530      -0.00931196
C        6.30644293       2.15048232       3.76339602       0.00000000      -0.00289297      -0.00168527      -0.00069719
C        5.11940528       4.22812895       3.48885777       0.00000000       0.01186973      -0.00676097       0.00089123
P        3.97435861       6.51698356       2.11471033       0.00000000       0.00091070      -0.00287654       0.00357367
C        2.54675219       8.57984480       3.49635477       0.00000000       0.00368230      -0.00429299       0.00294327
C        9.97742867       0.04259529       3.64917117       0.00000000      -0.00228276      -0.00491386      -0.00846414
C        8.76324161       2.17756596       3.77459027       0.00000000      -0.00340266       0.00261007       0.00145911
C        7.52619300       4.30965997       3.76655004       0.00000000      -0.00420085       0.00053901       0.00702975
C        6.26212802       6.43999371       3.56260808       0.00000000       0.00805696       0.00795238      -0.00670507
C        5.02755612       8.59354909       3.47311106       0.00000000       0.00280976      -0.00005688      -0.00744356
C        0.11754716       1.48232427       3.48048176       0.00000000       0.00509900       0.00923906       0.00125831
C       -1.13644589       3.62972397       3.60063519       0.00000000      -0.00626963      -0.00009472      -0.00625293
C       -2.39478402       5.75758327       3.84786190       0.00000000       0.00935237      -0.00517580       0.00207761
C       -3.62755194       7.88790574       3.83273396       0.00000000      -0.00151205       0.00357883      -0.00366040
C       -4.83706208      10.02323571       3.68324010       0.00000000      -0.00480328      -0.00040259      -0.00428240
C        2.58804111       1.48699753       3.52747766       0.00000000      -0.00258288      -0.01046292       0.00895844
S        1.33217058       3.70617793       2.47246507       0.00000000      -0.00138502       0.00110986       0.00332830
C        0.02930450       5.81893615       3.60067281       0.00000000      -0.00298119      -0.00237104      -0.00187962
C       -1.16289293       7.90901680       3.86359869       0.00000000      -0.01287644       0.00153264      -0.00217792
C       -2.37728577      10.03053979       3.81565360       0.00000000       0.00975096       0.01098841       0.00479987
C        5.06356773       1.45722014       3.73209851       0.00000000      -0.00273745       0.00595727       0.00771997
N        3.94040808       3.54176653       3.55107508       0.00000000       0.01422852      -0.00150093       0.01154123
C        1.28938342       7.87695847       3.61685020       0.00000000      -0.00037524      -0.00745002      -0.00671461
C        0.10432737      10.01335069       3.81314892       0.00000000      -0.00157714      -0.00463323      -0.00452174
C        7.53363075       1.45014164       3.80008076       0.00000000      -0.00528451       0.00441558       0.00071139
C        6.32525666       3.56009321       3.68561036       0.00000000       0.00734856      -0.00888963       0.00502957
C        5.06014759       5.66346497       3.31035708       0.00000000       0.01232306      -0.00305493       0.01097115
C        3.78144616       7.92120598       3.22994208       0.00000000       0.00613109      -0.00362439      -0.00395394
C        2.57234168      10.00438852       3.66735598       0.00000000      -0.00521500       0.00002981      -0.00003816
C        9.99925774       1.47596233       3.68459488       0.00000000      -0.00312365      -0.00252552      -0.01085898
C        8.75464792       3.60336116       3.80455050       0.00000000      -0.00630757       0.00157107       0.00908037
C        7.48844681       5.73739817       3.74998724       0.00000000       0.00549770       0.00431973       0.01039661
C        6.25349200       7.86869085       3.56808113       0.00000000       0.00020525       0.00904948      -0.00387905
C        5.03683784      10.01668676       3.59706652       0.00000000      -0.00139918      -0.00286284       0.00275366
Mo       2.77454711       5.17678637       3.49807549       0.00000000      -0.01608287      -0.00032754      -0.00018429
O        0.11495744       3.62369988       9.26113191       1.00000000      -0.00303373      -0.00116210       0.00037943
O       -1.04435867       3.19705965       9.20293591       1.00000000       0.00335984       0.00098723       0.00261476
