52
Lattice="12.336457 0.0 0.0 -6.168228499999997 10.683685154694365 0.0 0.0 0.0 15.0" Properties=species:S:1:pos:R:3:forces:R:3 energy=-443.239066446155 free_energy=-443.239066446155 stress="-0.004290172913157277 -0.004174829189937602 4.569105749563999e-05 -0.004174829189937602 0.0024005297190341744 1.3807326230812121e-05 4.569105749563999e-05 1.3807326230812121e-05 -2.079403576422675e-05" pbc="T T T"
C        0.05047163      -0.01241671       3.82121073       0.00528634       0.00390255      -0.00547179
C       -1.21490395       2.11374156       3.89883250       0.00073614      -0.00950641      -0.00468485
C       -2.42055124       4.26170821       3.94273685      -0.00228641       0.00058766      -0.00244626
C       -3.61241658       6.40956044       3.87513560      -0.00280654      -0.00350811      -0.00466159
C       -4.85286686       8.55677499       3.82682124       0.00386934       0.00104882       0.00001734
C        2.52429738       0.00916396       3.76690463      -0.00742413       0.00488590      -0.00681368
C        1.23819125       2.09010211       3.75203321      -0.00051085      -0.00231567      -0.00228153
C       -0.00247486       4.24967937       4.00377989      -0.00219674      -0.00028145      -0.00247361
C       -1.16054393       6.39293778       3.94712504      -0.00746700       0.00337010      -0.00377832
C       -2.38196693       8.54050629       3.82353810      -0.00118905       0.00414452      -0.00124358
C        4.99474768      -0.00526573       3.65890892      -0.00301747      -0.00333551      -0.00053853
C        3.72542976       2.11446000       3.45835067      -0.00490947      -0.00089278       0.00058704
O        1.24755691       6.36357058       3.64356799       0.00411049       0.01001377      -0.01017919
C        0.08530553       8.49919046       3.72535815       0.00467387      -0.00532444       0.00608208
C        7.46089257      -0.03808328       3.66732802       0.00206139       0.00097976       0.00117225
C        6.21389009       2.14492228       3.56547730       0.00412451       0.00407106       0.01137475
C        5.09811210       4.38963456       3.43473216       0.00278657       0.00632936      -0.00452108
O        3.88665798       6.43850289       3.54851475       0.00800044       0.00260453       0.00204640
C        2.53914877       8.44356605       3.67277956      -0.00295373      -0.00668047       0.00669769
C        9.90757507      -0.04242653       3.75963507      -0.00287347      -0.00404896      -0.00143824
C        8.67229033       2.11726104       3.77184705       0.00782910       0.01073212      -0.00125021
C        7.47685242       4.27909780       3.74060354      -0.00125300       0.00048373       0.00220817
C        6.29068127       6.44957979       3.72427334       0.01062412       0.00029369       0.00625959
C        5.00361432       8.52590082       3.73265248      -0.00257489       0.00267286       0.00057401
C        0.03454800       1.41834073       3.84255578       0.00312315      -0.00251852      -0.00664958
C       -1.20953263       3.53319564       3.98967718      -0.00237185      -0.00564029      -0.00251467
C       -2.39278328       5.68098411       3.94129565      -0.00684029      -0.00094573      -0.00280293
C       -3.61659587       7.83709388       3.85367751       0.00259830      -0.00236508       0.00719716
C       -4.86991306       9.98353965       3.81924591       0.00125014       0.00198921      -0.00714992
C        2.48990101       1.44311324       3.66918050      -0.00601296      -0.00134412      -0.01356061
O        1.15831404       3.50677012       3.58139807       0.00468454      -0.01247444      -0.00093108
C        0.03907027       5.66910296       3.98151466      -0.00021502       0.00818491       0.00494795
C       -1.16116390       7.81343975       3.83282847       0.00004975       0.00361863      -0.00642475
C       -2.40156627       9.97556271       3.74985270      -0.00901211       0.00461148      -0.00857708
C        4.97074794       1.44090441       3.54276452      -0.00135853       0.00016320      -0.00226089
S        3.57514827       3.78065144       3.00803845       0.00209735       0.00370749       0.00058740
C        1.28769807       7.80248033       3.69887262       0.00276628      -0.00628430       0.01605474
C        0.06429958       9.94533648       3.67468177       0.00213354      -0.00619300      -0.00936422
C        7.43869555       1.41084015       3.66351462       0.01025090       0.00761687       0.00254388
C        6.24359782       3.58070098       3.57349965       0.00132225       0.00410222      -0.00004892
C        5.10117802       5.77673568       3.56821179       0.00877201       0.00428274       0.00680503
C        3.81783200       7.81054506       3.66144690      -0.00312727      -0.00163570       0.00807902
C        2.52138035       9.90414004       3.69586265      -0.00265275      -0.00768088       0.00055520
C        9.90438854       1.39739998       3.81904460      -0.00064313      -0.00232528      -0.00168380
C        8.68864257       3.54553523       3.82702986      -0.00065682       0.00850471       0.00502663
C        7.49857419       5.69940081       3.79012242       0.00226747      -0.00592946       0.00654017
C        6.26620002       7.85872310       3.77267972       0.00228882       0.00064513       0.00751579
C        4.98339006       9.95268575       3.78078902       0.00202193       0.00522908       0.00474652
Mo       1.99998034       4.84789208       4.94915806      -0.00873801      -0.01471268      -0.00567829
O        1.56989498       4.82739110       6.62524597      -0.00533427      -0.00438982       0.00168366
O        0.84141997       4.86583298       8.19035689      -0.00052673       0.00117571       0.00074923
H        1.72315862       4.76619483       8.61901929      -0.01077625       0.00038129       0.00937748
