52
Lattice="12.336457 0.0 0.0 -6.168228499999997 10.683685154694365 0.0 0.0 0.0 15.0" Properties=species:S:1:pos:R:3:forces:R:3 energy=-440.31821369435835 free_energy=-440.31821369435835 stress="-0.003491859944871206 -0.0020278936475531225 -2.8399546565706564e-06 -0.0020278936475531225 -0.004213107748741458 2.9456417749056272e-06 -2.8399546565706564e-06 2.9456417749056272e-06 4.692228242651751e-06" pbc="T T T"
C        0.03651019      -0.07949516       3.93659862      -0.00468085       0.00324512       0.01127137
C       -1.22567889       2.04074118       3.74549377      -0.01166438      -0.00941513      -0.00147884
C       -2.47712333       4.18886459       3.92866076       0.00306221      -0.00027931       0.00582170
C       -3.66950931       6.33243078       4.16013937       0.00775230      -0.00083053      -0.01658284
C       -4.89018927       8.47842497       4.15025020       0.00647830      -0.00036584       0.00972741
C        2.50597107      -0.09995857       3.81538400      -0.00251729      -0.00495310       0.00697231
C        1.23511119       1.92555314       3.30008498       0.00406140      -0.00723936      -0.00943875
C       -0.18402459       4.19332083       3.17018552      -0.00233502       0.00703285       0.00995577
C       -1.24891610       6.33258468       3.70582148      -0.00435539      -0.00023698       0.00260957
C       -2.41715944       8.45820355       3.97665393       0.00602771       0.00081907      -0.00601143
C        4.96909578      -0.08182302       3.85524191      -0.00305860      -0.00063918      -0.00087317
C        3.73953277       1.99095832       3.34609808      -0.00588037       0.00648962       0.00707265
S        1.35317610       6.29891064       2.78681838       0.00638203       0.00283373      -0.00470380
C        0.04640580       8.46152922       3.77376763       0.00137181      -0.00535477      -0.00695409
C        7.43521468      -0.08104956       3.97488366      -0.00047558       0.00342829       0.00407073
C        6.18532589       2.07235430       3.90434703      -0.00372349      -0.00670063       0.00200154
C        4.96887782       4.27824947       3.85035498       0.00604915       0.00156682       0.00260778
O        3.89243985       6.41494908       3.69775099      -0.00160878      -0.00222872      -0.00364757
C        2.53196453       8.45572931       3.86152098       0.00149204       0.00280180      -0.00357677
C        9.90306472      -0.08194346       4.02422255      -0.00920701      -0.00290279       0.01112581
C        8.65153716       2.05645204       4.03291643       0.00029807       0.00384270       0.01012349
C        7.40921664       4.19953858       4.16374196       0.00679771      -0.00478204       0.00672222
C        6.22295842       6.36732502       4.30460110       0.00486453       0.00722540      -0.00697921
C        4.98160555       8.47630503       4.11415053      -0.00747604       0.00675206      -0.00091998
C        0.01354979       1.32627201       3.67387908      -0.00261978      -0.00032419      -0.00487966
C       -1.28188753       3.45594180       3.63287591      -0.00675198      -0.00408128      -0.00344367
C       -2.46097146       5.61246865       3.96002717       0.00301625      -0.00329431      -0.00399393
C       -3.65529960       7.75675042       4.12003690       0.01131383      -0.00013600      -0.00203368
C       -4.89216119       9.89724953       3.97954083      -0.00303660      -0.00091919       0.01412821
C        2.49972622       1.29450002       3.47619338       0.00151950      -0.00409794       0.01058978
S        1.20142641       3.41932299       2.45012098       0.00583952      -0.00423182      -0.01043964
C       -0.15061523       5.58375291       3.25679350       0.00221267       0.00706146       0.00863003
C       -1.19538996       7.75066441       3.81268225      -0.00039037      -0.00419890       0.00033210
C       -2.42516579       9.88354638       3.89797536      -0.00068787      -0.00071160      -0.00123339
C        4.95961787       1.34598811       3.71251519      -0.01021879      -0.00018162       0.00841340
P        3.90527210       3.58639874       2.50673666       0.00008175       0.01525221       0.00074891
C        1.28931935       7.81428651       3.58360511       0.00601580       0.00044737       0.00017338
C        0.03711123       9.89326414       3.90535997       0.00008293      -0.00237431      -0.00687311
C        7.41874717       1.34988355       4.00484086       0.00242168       0.00402981      -0.00327854
C        6.18862989       3.49318337       4.01250650       0.00597371      -0.00765150      -0.00575217
C        5.03557248       5.68596456       4.08993667       0.00521452       0.00405210      -0.00616391
C        3.78566930       7.80805222       3.91983449      -0.00340860      -0.00156941      -0.00092941
C        2.50679352       9.88560932       3.99813445      -0.00354362       0.00107865      -0.00342099
C        9.89615973       1.34665825       3.96400263      -0.01218503      -0.00786442      -0.00411252
C        8.64028574       3.47885062       4.07739766       0.00593434       0.00225615       0.00339834
C        7.43886954       5.62304797       4.25449025       0.00810874      -0.00085596      -0.00599339
C        6.22344543       7.78177655       4.22812863      -0.00136167       0.00906896      -0.00498525
C        4.97197314       9.90265870       4.05299952      -0.00770325       0.00501565      -0.00035779
Mo       2.81470286       4.72319073       4.30279172      -0.00739576      -0.01003926      -0.00414101
O        3.18310894       5.33770063       6.14678926       0.00906618      -0.00051416      -0.00385632
O        2.44442413       6.61407381       6.27320737      -0.00510840       0.00081132       0.00003005
H        1.79767965       6.35099585       6.95819991      -0.00004414       0.00386310       0.00052827
