52
Lattice="12.336457 0.0 0.0 -6.168228499999997 10.683685154694365 0.0 0.0 0.0 15.0" Properties=species:S:1:pos:R:3:forces:R:3 energy=-440.654326737059 free_energy=-440.654326737059 stress="0.000509928881798282 -0.0030613797586820824 9.145075595440225e-06 -0.0030613797586820824 -0.0021241057012399657 -1.9684709492617292e-05 9.145075595440225e-06 -1.9684709492617292e-05 2.5789685907828378e-05" pbc="T T T"
C       -0.05994016      -0.06748843       3.85392473      -0.00396891       0.00105687       0.00541602
C       -1.32145971       2.06094786       4.06864763       0.00668521      -0.00892072       0.00183726
C       -2.55241450       4.21170234       3.97619641       0.00534351      -0.00325039       0.00257916
C       -3.74945992       6.35652379       3.80841049       0.00053015      -0.00325612       0.00303651
C       -4.97649396       8.48796563       3.74892877       0.00210225       0.00128385      -0.00215785
C        2.42105358      -0.08108825       3.87968425      -0.00174968       0.00330306       0.00068043
C        1.16629549       1.96562510       4.33720452      -0.00089978       0.00539534      -0.00865978
C       -0.19135045       4.20956318       4.60955938      -0.00809028       0.00220217      -0.00425317
C       -1.29107716       6.35513711       4.12000308      -0.00182506       0.00085943       0.00861906
C       -2.48815374       8.48001627       3.85790935       0.01455196      -0.00054086       0.00140890
C        4.88586944      -0.04052877       3.74335609       0.00108118       0.00053523      -0.00231535
C        3.60710496       2.11792458       3.78847030      -0.00114043       0.00789219      -0.00249627
S        1.39780818       6.32915644       4.78803203       0.00276684       0.01102454      -0.00141918
C       -0.01846007       8.48932349       3.87755317       0.00216224      -0.00318533       0.00255231
C        7.34901417      -0.04839593       3.60844125       0.00316680      -0.00181010      -0.00913098
C        6.09014723       2.10412493       3.51483056      -0.00328106       0.00229430       0.00094796
C        4.92760164       4.30346290       3.08424107       0.00144731      -0.00275815       0.00152440
O        3.76710422       6.49551774       3.01686481      -0.00531260       0.00685144       0.01436044
C        2.45039188       8.48579944       3.56445843      -0.00196176      -0.00787618      -0.00240237
C        9.81561732      -0.04823086       3.65136310       0.00270239      -0.00086271      -0.00412005
C        8.56750457       2.08810335       3.69222938       0.00192979       0.00948409       0.00031178
C        7.33816250       4.23361376       3.59882367      -0.00287256      -0.00312398      -0.00411512
C        6.12340134       6.38273185       3.59674059      -0.00033636      -0.00477569       0.00647681
C        4.89771518       8.50425520       3.54968308       0.00072192      -0.00058894      -0.01343889
C       -0.08824524       1.33419880       4.09872400       0.00206696      -0.00187197       0.00341955
C       -1.35025644       3.48001916       4.22515450      -0.00017478      -0.01074532       0.00639163
C       -2.53063840       5.63822233       3.96619683       0.00205329      -0.00289605       0.00296397
C       -3.73392824       7.77606098       3.80848047       0.00876050       0.00159034       0.00941052
C       -4.98694314       9.90530263       3.82837416      -0.00533466       0.00462848       0.00125594
C        2.38977916       1.32670341       4.02680253      -0.00258948       0.00535846      -0.01075666
P        1.25708891       3.43116136       5.31191712       0.00467310      -0.00428987      -0.00723698
C       -0.14301874       5.60478507       4.46051336      -0.00345259       0.00404588       0.00276068
C       -1.25345434       7.77025367       3.96850334       0.00903698      -0.00320532       0.00400994
C       -2.50226546       9.90702027       3.81643481       0.00346958      -0.00016022       0.00189132
C        4.87624811       1.39510684       3.66730939      -0.00218382       0.00291573      -0.00217258
S        3.41303797       3.45950251       2.51967308      -0.01496410      -0.00269882       0.00922295
C        1.24056931       7.83532378       3.94835789      -0.00312814      -0.00396244      -0.00419605
C       -0.04360961       9.92303149       3.70908188       0.00208406      -0.00371372      -0.00217182
C        7.33862083       1.38204788       3.58122567       0.00059300       0.00607895      -0.00375716
C        6.10912193       3.53387453       3.39639935      -0.00025800      -0.00146413      -0.00756703
C        4.88821962       5.73230795       3.39435970      -0.00053455      -0.00337042       0.00346262
C        3.70453425       7.81758628       3.38541408      -0.00309912       0.00031233       0.00585411
C        2.42321547       9.91675285       3.56792191       0.00398700      -0.00719009      -0.01317481
C        9.80315311       1.37331104       3.79418712       0.00230224      -0.00022093       0.00463270
C        8.56456324       3.51094299       3.74921237       0.00067901       0.00792650       0.00198949
C        7.34819689       5.65382137       3.66950153      -0.00313584      -0.00658211       0.01187985
C        6.13413622       7.79177374       3.63084719       0.00076020      -0.00261352      -0.00464050
C        4.87945439       9.92497741       3.68134556       0.00072895      -0.00348900       0.00211791
Mo       3.51122976       4.15774423       4.74053497      -0.00106819       0.00377432      -0.00604701
O        4.11329436       6.15862218       6.17048152      -0.00706120       0.00974543      -0.00105885
O        3.63139743       5.88550959       7.45749495      -0.00970702       0.00178185      -0.00084179
H        4.28202547       5.23225597       7.79078695       0.00174357      -0.00091769      -0.00288396
