52
Lattice="12.336457 0.0 0.0 -6.168228499999997 10.683685154694365 0.0 0.0 0.0 15.0" Properties=species:S:1:pos:R:3:forces:R:3 energy=-440.62084690491923 free_energy=-440.62084690491923 stress="0.001240101735213589 0.005729848796933166 4.020942876719103e-06 0.005729848796933166 -0.00031760340639072366 3.231304592377641e-05 4.020942876719103e-06 3.231304592377641e-05 4.288673879600266e-06" pbc="T T T"
C        0.13347510      -0.07826164       3.90632812       0.00074051      -0.00216822       0.00345192
C       -1.04580615       2.08384723       3.71609583       0.00315494       0.00490925      -0.00826549
C       -2.30198415       4.20724178       3.63870789       0.00223531      -0.00675673      -0.00734194
C       -3.58076966       6.32341089       3.75118168      -0.00615637       0.00823946      -0.00797907
C       -4.83188887       8.44264546       3.88182167      -0.00784537       0.00507523       0.01268124
C        2.60404826      -0.12293724       3.94863417       0.00056021       0.00142703       0.00827529
C        1.43769765       2.07742295       4.03195295      -0.01296542       0.02988960      -0.00864160
C        0.14212699       4.29537782       3.35084747       0.00945526       0.00869804      -0.01923203
C       -1.14693118       6.37357937       3.33290445       0.00280652      -0.00542783      -0.01023975
C       -2.35804559       8.46542031       3.62117194       0.00091086      -0.01097732       0.01161304
C        5.08239941      -0.10174206       3.79339100       0.00483991       0.00224130       0.00707996
C        3.89679702       1.88579722       4.45992639       0.00027562      -0.00343384       0.00541228
O        1.22719872       6.45397844       2.99440500      -0.01654152      -0.01441550       0.00261249
C        0.10523153       8.48878911       3.37810416       0.00132618       0.00306529       0.01560823
C        7.54900501      -0.08608699       3.63877891      -0.00176773      -0.00068699       0.00739311
C        6.35750037       2.01770368       4.09616607       0.00481893      -0.01429192       0.00781237
C        5.24935641       4.14504028       4.70579310       0.01385339       0.01120617      -0.01585342
P        3.55616770       6.21328880       4.81707588      -0.00849729       0.00716193       0.00711051
C        2.56061655       8.43904704       3.58176863      -0.00300425       0.00513671       0.00620066
C       10.01246491      -0.08747017       3.72100695       0.00933707       0.00662214      -0.01183939
C        8.81027671       2.05522302       3.76925798      -0.01503260      -0.00871934       0.01022198
C        7.58476145       4.17491039       4.00841070      -0.00141399      -0.00296127      -0.00391030
C        6.31535816       6.30615480       4.16615482       0.00048400       0.00256109       0.00151537
C        5.02785434       8.44014883       3.96418927       0.02071869      -0.00470735       0.00661257
C        0.15983316       1.36369578       3.88983483      -0.00570466       0.00181234      -0.00661809
C       -1.05874441       3.51252075       3.57096471       0.01072393       0.00479662      -0.01115211
C       -2.34815572       5.62873216       3.56611429      -0.00155517      -0.00188945      -0.01544969
C       -3.59505200       7.74575309       3.74630771      -0.01284550       0.00827719      -0.00319094
C       -4.81453667       9.86801146       3.90308122      -0.00146547      -0.00006672       0.01201452
C        2.65116622       1.27823256       4.18615719      -0.00835061       0.01374915       0.00088876
S        1.63293619       3.42448597       2.77544742      -0.00368110       0.00972108      -0.00219936
C        0.06416566       5.72653383       3.15275213      -0.00123658      -0.00420796       0.00229663
C       -1.14360024       7.78781811       3.39963183       0.00534009      -0.00693119       0.00393309
C       -2.33312031       9.87661847       3.78141919       0.00483881      -0.00751904       0.00299256
C        5.12719675       1.28821184       4.10864419       0.00641176      -0.00338315       0.00894908
S        3.94048632       3.27048543       5.50977386       0.00542170      -0.01232303       0.01106287
C        1.30579915       7.78814299       3.30958536      -0.00993228      -0.01159521       0.00927026
C        0.13987304       9.89695518       3.58630272       0.00176138       0.00745856      -0.00114890
C        7.56715333       1.33597510       3.81989809      -0.00733439      -0.01185523      -0.00577461
C        6.38662803       3.42934480       4.27545739       0.01115861      -0.00988007       0.01221561
C        5.14974870       5.54355365       4.54395576      -0.00885238       0.01291521      -0.00664723
C        3.75962882       7.75448679       3.98655251       0.00921796       0.01513430       0.00765470
C        2.60030916       9.87228624       3.60227431       0.00170776       0.00993349       0.00605572
C       10.04096337       1.34822108       3.71705703      -0.00469540       0.00777475      -0.01526001
C        8.81031735       3.47919707       3.80345323      -0.00830122      -0.00942400      -0.00734524
C        7.54653105       5.60251296       3.98109589      -0.00555930       0.00298568      -0.00792369
C        6.27009700       7.72458009       4.01633029       0.01077704      -0.00701449       0.00710088
C        5.06191164       9.87838326       3.84652154       0.01104328      -0.00658895      -0.01179174
Mo       1.85759386       4.11413338       4.92628955       0.01138821      -0.00183285      -0.00983697
O        0.53240763       6.21036025       5.93220167      -0.01240392      -0.00418058       0.00864189
O       -0.51616940       5.76512509       6.73859477       0.02421377      -0.00092461       0.01146653
H       -0.08288136       5.71517451       7.61883514      -0.02437915      -0.01662875      -0.02050256
