52
Lattice="12.336457 0.0 0.0 -6.168228499999997 10.683685154694365 0.0 0.0 0.0 15.0" Properties=species:S:1:pos:R:3:forces:R:3 energy=-441.325098537323 free_energy=-441.325098537323 stress="-0.004056813184006468 0.003602240375605501 -1.96327774059517e-05 0.003602240375605501 -0.003271604436008757 -9.720747433377173e-05 -1.96327774059517e-05 -9.720747433377173e-05 -6.373152952010575e-06" pbc="T T T"
C        0.08733789      -0.07529847       3.78834511       0.00127085      -0.00220122      -0.01240420
C       -1.12154578       2.08339718       3.65766682      -0.00035560      -0.00012242      -0.00385101
C       -2.35350478       4.20977951       3.78319285      -0.00118963      -0.01720278       0.00431096
C       -3.60666700       6.34042942       3.92516898      -0.01738929      -0.00264692      -0.00260075
C       -4.87074839       8.46156645       3.88630705       0.00477878      -0.01422814      -0.00806511
C        2.54802742      -0.09479657       3.98192278       0.00941244      -0.01070961       0.00811296
C        1.37559066       2.02064121       3.67738988      -0.00230680       0.01167825      -0.02151079
C        0.06334676       4.29357738       3.33975489      -0.00333352      -0.02645130       0.00192801
C       -1.19742581       6.38978824       3.60584302      -0.00457143       0.01694577       0.00599191
C       -2.39592494       8.48567454       3.83909227       0.00545733       0.01442498       0.02423900
C        5.02835473      -0.07421617       4.02796225       0.00650715      -0.01366249       0.00561450
C        3.78727771       1.96449532       4.44840777      -0.00427186       0.01542940      -0.00662968
O        1.18328592       6.43709902       3.18651355       0.00671464       0.00332428       0.02105018
C        0.06025164       8.50637019       3.60104781       0.00146694       0.00168169       0.01542323
C        7.49675387      -0.07052665       3.86517885      -0.01092055      -0.00718598       0.00212844
C        6.30293619       2.03708776       4.31488575      -0.01479416      -0.00578478      -0.00337692
C        5.15760480       4.21350002       4.62128127       0.01373408       0.00374818      -0.00289259
S        3.73509670       6.07977140       3.29637233       0.01520585      -0.01609120       0.02714097
C        2.51934735       8.47134919       3.52139788      -0.00815283       0.00597881       0.01442661
C        9.96069626      -0.07224176       3.73728972      -0.00214910       0.00847655       0.00927377
C        8.75515127       2.06185420       3.94547271      -0.01477239      -0.01007740      -0.00846953
C        7.54797569       4.18986098       4.17712135       0.00520581       0.00215455       0.00432802
C        6.28939374       6.32986092       4.04585166      -0.00070447      -0.00178589      -0.00813714
C        5.00163985       8.45045476       3.72116721       0.00309199      -0.00562067       0.00045684
C        0.11098093       1.35636081       3.69107898      -0.00086708       0.00970328      -0.01294714
C       -1.13493699       3.50892275       3.58473479       0.00363006      -0.01652732      -0.01603879
C       -2.38719843       5.63564071       3.78130200      -0.01583003      -0.01153249       0.00084518
C       -3.62811390       7.76207881       3.89033266       0.00741533       0.00295579      -0.01176524
C       -4.85791400       9.88828825       3.87438290       0.00274337      -0.01228500      -0.01240522
C        2.56696344       1.31989662       4.05953922       0.00484807       0.00404758      -0.02282833
P        1.56972128       3.52325038       2.68702005       0.00647199       0.00422225      -0.01782435
C       -0.00534204       5.71607644       3.40361018      -0.00201967       0.00418746       0.00779404
C       -1.18271493       7.79967680       3.67069752       0.00436809       0.02355231      -0.00641497
C       -2.38372373       9.90031839       3.95868302       0.01226253      -0.00221012       0.01028586
C        5.04757785       1.32860209       4.29479963      -0.00894698      -0.01052266      -0.01759587
P        3.69002897       3.49498666       5.34736852       0.01454732       0.02221712       0.00656842
C        1.26027148       7.83482418       3.40660622      -0.00599873      -0.00663378       0.02137501
C        0.08511221       9.91623665       3.83644984      -0.00080230      -0.00279442      -0.00608249
C        7.51729006       1.34624757       4.05636542      -0.01788843      -0.01001148       0.00515934
C        6.34341972       3.46103266       4.42135559       0.00430569       0.00313907      -0.01319046
C        5.12389825       5.54600488       4.16215962       0.00720941       0.00096036       0.00504170
C        3.76488250       7.78265756       3.54052529      -0.00526666       0.01269003       0.01187266
C        2.54873382       9.90021210       3.70557376      -0.00812950       0.01370277      -0.01691879
C        9.98028716       1.36077418       3.77658099      -0.00227359       0.00454283      -0.00015708
C        8.76573237       3.48651346       3.98188481      -0.00168390      -0.01254909       0.01116865
C        7.52436408       5.61584219       4.08152198      -0.01170782      -0.00193228      -0.00850103
C        6.23793675       7.73948046       3.85918410       0.00739010      -0.01321633      -0.01915571
C        5.01928591       9.89400386       3.73980848       0.00282980      -0.00469232      -0.00696410
Mo       1.99934756       4.97350391       4.44485541       0.00063379       0.00401100       0.02527264
O        1.70422236       6.44268207       5.96251484       0.01688072      -0.02918172       0.01889766
O        0.30968297       6.25525027       6.37414815       0.00297132       0.03323995      -0.00123398
H        0.44064224       5.64884545       7.13280083      -0.00502713       0.04084561      -0.00074529
