51
Lattice="12.336457 0.0 0.0 -6.168228499999997 10.683685154694365 0.0 0.0 0.0 15.0" Properties=species:S:1:pos:R:3:initial_magmoms:R:1:forces:R:3 energy=-437.03989332193487 free_energy=-437.03989332193487 stress="-0.0044560843211965 0.003256797036588017 4.3475406080223255e-06 0.003256797036588017 -0.005116842709481343 -6.455770959594715e-06 4.3475406080223255e-06 -6.455770959594715e-06 -1.1338338008820571e-05" pbc="T T T"
C        0.09520028      -0.14752896       3.49031713       0.00000000       0.00586495      -0.00431200       0.00227954
C       -1.11554119       2.01574431       3.39463151       0.00000000       0.00824415      -0.00649144       0.00342256
C       -2.33794086       4.13923532       3.60583096       0.00000000      -0.00072941      -0.00006526      -0.00338808
C       -3.59389780       6.27094478       3.73971943       0.00000000      -0.00089825       0.00281066      -0.00040399
C       -4.86094461       8.39041706       3.62225955       0.00000000       0.00711727       0.00157620      -0.00018505
C        2.55528904      -0.16378628       3.71051496       0.00000000      -0.00380190       0.00116355      -0.00435049
C        1.37833681       1.94571221       3.36971106       0.00000000       0.00215172       0.00509008      -0.00484241
C        0.08103065       4.23532442       3.14482635       0.00000000      -0.00545280       0.01047439      -0.01526913
C       -1.16731235       6.31607244       3.60500792       0.00000000      -0.00190663      -0.00894514      -0.00148164
C       -2.38524974       8.41501942       3.69536348       0.00000000       0.00325278      -0.00641026       0.00111107
C        5.03401749      -0.14086562       3.81828563       0.00000000      -0.00851409      -0.00280722       0.00199570
C        3.78543333       1.90168751       4.15556089       0.00000000       0.00144023      -0.00474125      -0.00991238
O        1.14895303       6.40517286       2.92421250       0.00000000       0.00925373       0.00496804      -0.00704528
C        0.07165753       8.43364323       3.50631128       0.00000000      -0.00300101       0.00501112      -0.00378787
C        7.50400069      -0.13481769       3.65085487       0.00000000       0.00675786       0.00746903      -0.00658791
C        6.30458392       1.97428921       4.06008892       0.00000000      -0.00149343       0.00841437       0.00661502
C        5.15994530       4.15093331       4.33126126       0.00000000      -0.01273113      -0.00575377       0.01284740
S        3.72594431       6.02524269       3.03984710       0.00000000      -0.01493328       0.00663376       0.00329421
C        2.52479046       8.40958836       3.31505273       0.00000000      -0.00180682      -0.00592647       0.00219124
C        9.96801511      -0.13720833       3.47572753       0.00000000      -0.00354708      -0.00254416      -0.00132433
C        8.76083097       1.99463582       3.70408412       0.00000000       0.00580248       0.00160260      -0.00043789
C        7.55468036       4.12257181       3.93134543       0.00000000      -0.00011299      -0.00723815       0.00357494
C        6.29733385       6.26065000       3.75777570       0.00000000      -0.00052200      -0.00652782       0.00557058
C        5.01105000       8.38306389       3.44150268       0.00000000      -0.00098558       0.00911914      -0.00438356
C        0.11435570       1.28286343       3.39692000       0.00000000       0.00736634      -0.00539508       0.00008155
C       -1.12269036       3.44320226       3.37142499       0.00000000       0.00388336       0.00052174      -0.00101292
C       -2.36602016       5.56341276       3.67060367       0.00000000      -0.00725467      -0.00167828       0.00481374
C       -3.61809970       7.69216365       3.69325268       0.00000000       0.00486232       0.00164471       0.00085628
C       -4.84905313       9.81692034       3.59025067       0.00000000       0.00361852      -0.00136097       0.00155320
C        2.57304961       1.25216999       3.75612140       0.00000000      -0.00183488       0.00069738      -0.00026508
P        1.51916181       3.44257244       2.37648639       0.00000000       0.00093596      -0.00889692       0.00518162
C        0.02931652       5.65251765       3.35731633       0.00000000       0.00581119       0.00812042      -0.01264557
C       -1.16321045       7.72455333       3.61695483       0.00000000       0.00164180      -0.01004331      -0.00096985
C       -2.37630763       9.83197787       3.75090569       0.00000000      -0.00852565      -0.00557399      -0.00502431
C        5.04856148       1.26723670       4.03651834       0.00000000      -0.00187446      -0.00191083      -0.00319568
P        3.68332668       3.43425661       5.04441161       0.00000000       0.01130799       0.01478011      -0.00187012
C        1.26423567       7.76326141       3.27212487       0.00000000      -0.00179942       0.00422879       0.00396259
C        0.09530806       9.84934416       3.66561780       0.00000000       0.00019740       0.00993983      -0.00211309
C        7.52177406       1.28237047       3.81780703       0.00000000       0.00333418       0.01093341      -0.00071652
C        6.34560863       3.39690785       4.15206032       0.00000000      -0.00736092       0.00110174       0.01094925
C        5.13143100       5.47760436       3.86341624       0.00000000      -0.00611246      -0.00765553       0.00515372
C        3.76754112       7.71960687       3.28950109       0.00000000      -0.00055192       0.00113593       0.00037573
C        2.55488425       9.83892804       3.47693353       0.00000000       0.00111843      -0.00819163      -0.00362337
C        9.98620004       1.29481159       3.51954169       0.00000000       0.00339498      -0.00513396       0.00814193
C        8.77473868       3.41701165       3.76150271       0.00000000       0.00217735      -0.00129821      -0.01049616
C        7.53156064       5.54768287       3.83097200       0.00000000       0.00566400      -0.00672967       0.01048439
C        6.24812732       7.66978118       3.57274454       0.00000000       0.00220111       0.00504004       0.00462970
C        5.02645013       9.82503142       3.45553340       0.00000000      -0.00086258       0.00605561       0.00190085
Mo       2.01568964       4.86174499       4.10020920       0.00000000      -0.01081939      -0.00289466       0.00407915
O        0.01573793       7.82198994       9.31505412       1.00000000       0.00622824      -0.01044987      -0.00353562
O       -0.58653535       8.83698022       9.68356241       1.00000000      -0.00619559       0.01044322       0.00380233
