51
Lattice="12.336457 0.0 0.0 -6.168228499999997 10.683685154694365 0.0 0.0 0.0 15.0" Properties=species:S:1:pos:R:3:initial_magmoms:R:1:forces:R:3 energy=-442.891181398164 free_energy=-442.891181398164 stress="0.001513008789381881 -0.002579486937387052 -5.302077290778516e-05 -0.002579486937387052 0.0046595831911697754 3.808888987962561e-05 -5.302077290778516e-05 3.808888987962561e-05 -8.230904428364808e-05" pbc="T T T"
C       -0.04955951       0.04612093       3.66381535       0.00000000      -0.00873864      -0.00297545       0.00921652
C       -1.29392860       2.18455870       3.77087011       0.00000000       0.00496440       0.00179409       0.00547957
C       -2.50897723       4.31755671       3.85933446       0.00000000       0.00469427       0.01541194      -0.00943181
C       -3.73256960       6.45597995       3.82324479       0.00000000      -0.00218273      -0.00966529       0.00340028
C       -4.97244261       8.59781961       3.70634378       0.00000000      -0.00913273       0.00696037       0.00640009
C        2.41508341       0.04465483       3.62744334       0.00000000      -0.00199296       0.01424793       0.01431035
C        1.15432744       2.15416782       3.69303116       0.00000000      -0.00311137      -0.01109888       0.00030601
C       -0.07491922       4.33790182       3.88612701       0.00000000      -0.00701329       0.00019533       0.01012866
C       -1.25874379       6.44036508       3.81653132       0.00000000      -0.01617650      -0.00669791       0.01641291
C       -2.49555267       8.58390758       3.72747046       0.00000000       0.01287509      -0.00680188       0.00545662
C        4.89359803       0.04297540       3.70572820       0.00000000       0.00171292       0.00217844       0.00263107
C        3.64195836       2.19155588       3.55725563       0.00000000      -0.00027791       0.01511022       0.00068621
O        1.15084765       6.44671142       3.74225748       0.00000000       0.00107260       0.02020202      -0.00268327
C       -0.02466531       8.55770354       3.73757577       0.00000000       0.00180994       0.00155452      -0.01398388
C        7.36096926       0.01968278       3.74596162       0.00000000      -0.00486707      -0.00437561       0.00584008
C        6.10734677       2.19828671       3.79186645       0.00000000      -0.00654140       0.00384096      -0.00186992
C        4.86720546       4.39673112       3.89682011       0.00000000       0.00053774      -0.00543767      -0.01881418
O        3.75249290       6.49011977       3.59019897       0.00000000      -0.00603099      -0.00317838      -0.00418196
C        2.42626929       8.50432143       3.66941229       0.00000000       0.01043092       0.00428438       0.01619600
C        9.80954504       0.02128083       3.71489184       0.00000000       0.00015607      -0.02290287       0.00123738
C        8.57770028       2.17551166       3.81919552       0.00000000       0.00699678       0.01467633      -0.00102124
C        7.34716214       4.32422575       3.89253133       0.00000000      -0.00236808       0.00460377      -0.00370106
C        6.14500358       6.49013280       3.82269676       0.00000000       0.00259621      -0.00448747      -0.01554075
C        4.88968661       8.58151080       3.66643866       0.00000000       0.00425778      -0.00018140       0.00664323
C       -0.05874046       1.48122761       3.69622672       0.00000000      -0.01348746      -0.01315434      -0.01175956
C       -1.26399600       3.61507827       3.83939891       0.00000000      -0.01259784       0.00325597       0.01209208
C       -2.49554280       5.73422731       3.84433528       0.00000000      -0.00351013       0.00121482      -0.00222269
C       -3.73400129       7.88034072       3.75060554       0.00000000      -0.00143742      -0.00271987       0.00650468
C       -4.98235806      10.02598391       3.65143142       0.00000000      -0.01008487       0.01394037       0.00889513
C        2.38128184       1.48254653       3.60609551       0.00000000       0.01214806       0.00391899       0.00827144
O        1.14296895       3.57482895       3.83594349       0.00000000      -0.02004276      -0.02802992      -0.05269854
C       -0.03653822       5.73774617       3.83266307       0.00000000      -0.00002120       0.00917196       0.00785129
C       -1.26645098       7.86274035       3.76435185       0.00000000       0.01496368      -0.01492565      -0.00438555
C       -2.50958653      10.01540758       3.67416811       0.00000000       0.00249276       0.00320871      -0.00239751
C        4.88490368       1.47983736       3.69855077       0.00000000       0.00315830      -0.00157489      -0.00623530
S        3.68295295       3.74374794       2.68356761       0.00000000      -0.01456508       0.00741364       0.02899973
C        1.17205545       7.82155857       3.70803889       0.00000000       0.00835415       0.00440585      -0.00407502
C       -0.03517323       9.99817548       3.73174248       0.00000000      -0.00075001      -0.00754662       0.00259825
C        7.34822885       1.46154583       3.79488664       0.00000000      -0.00385080       0.00862585      -0.01432313
C        6.11004701       3.62012553       3.89312451       0.00000000       0.00053195       0.00257017      -0.01975077
C        4.93028193       5.83158939       3.80141183       0.00000000      -0.00038189      -0.00453713      -0.01034434
C        3.69670047       7.86100284       3.62250554       0.00000000       0.00433597       0.00211470       0.01095070
C        2.41936144       9.95581183       3.71278467       0.00000000      -0.00593850      -0.00913131       0.00187704
C        9.81862140       1.46550850       3.76944882       0.00000000       0.00883394      -0.01348758      -0.00265197
C        8.58574085       3.60183091       3.86366553       0.00000000       0.00538386       0.02415221       0.00471024
C        7.37042747       5.75044253       3.86302549       0.00000000      -0.00089977      -0.00191579      -0.00846400
C        6.13909602       7.89991177       3.72698815       0.00000000      -0.00356675      -0.00243153      -0.00089866
C        4.88134499      10.01251969       3.67663207       0.00000000       0.00245597      -0.01538093       0.00086957
Mo       2.90287910       3.89107356       5.08989433       0.00000000       0.03209578       0.03466438      -0.13983296
O        2.65449236       5.49336278       5.69427826       1.00000000      -0.02621808       0.04917802       0.00113647
O        2.76638479       2.69636678       6.35049490       1.00000000       0.03892710      -0.08025758       0.15216650
