51
Lattice="12.336457 0.0 0.0 -6.168228499999997 10.683685154694365 0.0 0.0 0.0 15.0" Properties=species:S:1:pos:R:3:initial_magmoms:R:1:forces:R:3 energy=-436.27633556910683 free_energy=-436.27633556910683 stress="-0.0047038152320042215 8.846549059250498e-05 -2.6203014689055946e-06 8.846549059250498e-05 -0.007104853366324127 -1.7848072419593803e-05 -2.6203014689055946e-06 -1.7848072419593803e-05 1.5449124035760382e-05" pbc="T T T"
C       -0.14225568       0.07909612       3.53929700       0.00000000      -0.00243017      -0.00219566      -0.00518302
C       -1.36861102       2.22861088       3.60806703       0.00000000       0.00162558       0.00706777       0.00726682
C       -2.60919328       4.36629291       3.51025758       0.00000000       0.00184449      -0.00937283       0.00309542
C       -3.83225117       6.50011768       3.41170158       0.00000000       0.00921323       0.00346293      -0.01000090
C       -5.08074927       8.62268998       3.47576184       0.00000000       0.00101596       0.00539069      -0.00151328
C        2.33052351       0.04704312       3.40520622       0.00000000      -0.00388644      -0.00636224       0.00240407
C        1.13174533       2.15627632       3.70593807       0.00000000      -0.00325135      -0.00530028      -0.01174328
C       -0.24719553       4.38313512       4.12509409       0.00000000       0.00802712       0.00324345      -0.00304232
C       -1.43460235       6.52437063       3.88236302       0.00000000      -0.00114927       0.00071172       0.00642766
C       -2.60449114       8.62970527       3.54362769       0.00000000       0.00629370       0.00011990       0.00319344
C        4.79865471       0.08334852       3.36078291       0.00000000      -0.00662765      -0.00497941       0.00031368
C        3.53936920       2.13903183       3.04416916       0.00000000       0.00986640       0.00118950       0.00456822
P        0.97226795       6.58917800       5.23473767       0.00000000      -0.00174881       0.00409180      -0.00406458
C       -0.16445417       8.68634292       3.89588780       0.00000000      -0.00536824       0.00980117       0.01036391
C        7.25808511       0.10846738       3.49631280       0.00000000       0.00120369       0.00840011      -0.00535166
C        6.03428838       2.21863949       3.08219119       0.00000000      -0.00356772       0.00073147      -0.00406412
C        4.86901034       4.39492489       2.91136913       0.00000000      -0.00065423      -0.01023117       0.00370499
P        3.62594829       6.29908876       4.41184922       0.00000000      -0.00306800      -0.01293793       0.00706986
C        2.31666848       8.71170513       4.00515257       0.00000000      -0.00365955      -0.01025846       0.00275580
C        9.72909375       0.10251245       3.56099254       0.00000000       0.00799459       0.00239867      -0.00323774
C        8.50478719       2.22938059       3.32773476       0.00000000      -0.00040587      -0.00156350       0.00395922
C        7.28766620       4.36295579       3.16349141       0.00000000      -0.00176355       0.00054732      -0.00112137
C        6.06373344       6.50607673       3.36491773       0.00000000      -0.00795862      -0.00122316      -0.00123048
C        4.79527734       8.63933834       3.69055451       0.00000000       0.00168536       0.00372157      -0.01091386
C       -0.13573343       1.50458986       3.62846864       0.00000000      -0.00612248      -0.00590448      -0.00009505
C       -1.39721018       3.64561090       3.71618982       0.00000000       0.00565831       0.00265151       0.00965459
C       -2.61715127       5.79242359       3.56656790       0.00000000       0.00278442      -0.00834826       0.00629011
C       -3.83956981       7.91954157       3.46593796       0.00000000       0.00587122       0.00606760      -0.00159200
C       -5.08072509      10.03987251       3.48486874       0.00000000      -0.00446392       0.00144922       0.00313786
C        2.33695625       1.45763976       3.38584925       0.00000000       0.00327074      -0.00555689      -0.00927270
P        1.28363229       3.63723771       4.57026663       0.00000000       0.00104486       0.01277024      -0.00018425
C       -0.30919641       5.78201819       4.30943795       0.00000000      -0.00181392       0.00146404      -0.00971137
C       -1.39084144       7.94416229       3.79460725       0.00000000       0.00425569       0.00397316       0.01156761
C       -2.59849549      10.04358027       3.41946470       0.00000000      -0.00558284      -0.00553691      -0.00411460
C        4.79661132       1.50294974       3.13009161       0.00000000       0.00297191      -0.00722767      -0.00700287
S        3.36061261       3.73105964       2.40699396       0.00000000      -0.00059870       0.00765250       0.00090364
C        1.06043080       8.08675310       4.29619780       0.00000000      -0.01189561      -0.00400529       0.00266867
C       -0.14556864      10.07990193       3.56318182       0.00000000      -0.00237303       0.00739363      -0.00285528
C        7.26178364       1.51957763       3.27275306       0.00000000      -0.00327256       0.00703109      -0.01193411
C        6.05627048       3.63931424       2.99513866       0.00000000      -0.00216666      -0.00288615       0.00616342
C        4.86093588       5.75014005       3.32591301       0.00000000      -0.00911007      -0.01008436      -0.00287778
C        3.55997804       7.99479909       3.98235778       0.00000000       0.00451507      -0.00345129       0.00551344
C        2.32142641      10.09691864       3.66874972       0.00000000       0.00334068      -0.00155775      -0.00393401
C        9.73668804       1.52269928       3.47423738       0.00000000       0.00428601       0.00538449       0.00869861
C        8.51262628       3.65274681       3.29772956       0.00000000      -0.00410751      -0.00554617       0.00883297
C        7.28578825       5.78737874       3.26687394       0.00000000       0.00084879       0.00356933       0.00326455
C        6.02439858       7.91709817       3.53288675       0.00000000       0.00045867       0.00240529       0.00940722
C        4.79258703      10.06421691       3.59209722       0.00000000       0.00468918       0.00101011      -0.00540536
Mo       2.48966270       5.04362575       5.87245540       0.00000000       0.00409810       0.01095658      -0.01097825
O        5.94118685       2.63241393      11.02848408       1.00000000       0.00074785      -0.00044355      -0.00583797
O        6.09828077       2.53920613       9.80530526       1.00000000      -0.00056490       0.00031659       0.00603645
