52
Lattice="12.336457 0.0 0.0 -6.168228499999997 10.683685154694365 0.0 0.0 0.0 15.0" Properties=species:S:1:pos:R:3:forces:R:3 energy=-440.3076923330448 free_energy=-440.3076923330448 stress="-0.004531995344408521 -0.0001265001438911385 4.053941635408757e-06 -0.0001265001438911385 -0.008028674246244146 -4.5471295845265934e-05 4.053941635408757e-06 -4.5471295845265934e-05 -3.939203985050738e-06" pbc="T T T"
C       -0.01338628      -0.01861114       3.67803913       0.00827356       0.00989490      -0.00011917
C       -1.23568347       2.13581105       3.70522279      -0.00244465       0.00080517      -0.00076615
C       -2.47134057       4.27629312       3.60193243      -0.00011988      -0.00790162       0.00307251
C       -3.70171512       6.40709327       3.56196618      -0.00310807       0.00433719      -0.00429560
C       -4.95106898       8.52679087       3.64888136       0.00571881       0.00204105      -0.00408130
C        2.45857463      -0.05485966       3.52379362      -0.00215991       0.00015075       0.01013277
C        1.26082476       2.05435103       3.80057525       0.00579361       0.00258255       0.00760141
C       -0.08009387       4.29477177       4.10184150       0.00592545       0.00242346       0.00592606
C       -1.28759686       6.43382524       3.93181338      -0.01332355      -0.00520813       0.00206552
C       -2.47320060       8.53649817       3.66262910       0.00031485       0.00030517       0.00691289
C        4.92700849      -0.00734041       3.48290274      -0.00729074      -0.00134982       0.00251797
C        3.66500145       2.04821309       3.19473096       0.00491803      -0.00767406       0.00583739
P        1.10884798       6.46855095       5.26885261       0.00871675       0.00485934       0.01567141
C       -0.03427600       8.59888622       4.00333442      -0.00318976       0.00365997       0.00009601
C        7.38801679       0.02331727       3.63591832      -0.00001397      -0.00527646      -0.00918566
C        6.15926006       2.13328148       3.24223365       0.00966776      -0.00415160       0.00123647
C        4.98429103       4.30921566       3.14846742      -0.00190462       0.00378943       0.00032211
P        3.73727973       6.22446556       4.64528851      -0.01284066      -0.00392158       0.00952353
C        2.44738858       8.63237820       4.16078354      -0.01226838      -0.00043443       0.01198462
C        9.85992380       0.01374228       3.70988228       0.00082967       0.00459925      -0.00145906
C        8.63428945       2.14089119       3.46408278      -0.00576492      -0.00050330       0.00291621
C        7.41132966       4.27345621       3.34413472       0.00348206       0.00135430      -0.00755272
C        6.19161719       6.41274808       3.60223493       0.00905078      -0.00354104      -0.00496711
C        4.92842276       8.55165536       3.89408323      -0.00505649      -0.00515110      -0.01244388
C       -0.00663324       1.40704035       3.73853315       0.00426859       0.00807084       0.00160248
C       -1.25223092       3.55562665       3.76796781       0.00588419      -0.00315389       0.00366818
C       -2.47851332       5.70080237       3.65982657      -0.01382836      -0.00658332       0.00376785
C       -3.70934808       7.82521882       3.61574062       0.00371187       0.00101647      -0.00689865
C       -4.95236003       9.94185154       3.62532838       0.00562608       0.00123803       0.00844283
C        2.46579787       1.35344640       3.49983437      -0.00190791      -0.00218833      -0.00576689
P        1.43405741       3.56257698       4.62087445       0.00972631       0.00045014      -0.00723113
C       -0.13384770       5.69348572       4.27987708      -0.00257437       0.00431834      -0.00528372
C       -1.25464044       7.85341750       3.88713933      -0.00091154       0.00002384       0.00074762
C       -2.46806324       9.94857400       3.53826007      -0.00631822      -0.00109493      -0.00035192
C        4.92267187       1.41497716       3.26954041       0.00414299      -0.00383358      -0.00195584
S        3.45551801       3.67623371       2.65918950       0.00477329       0.00015822      -0.00614135
C        1.19015454       7.99474419       4.40010087      -0.00874271      -0.00672832       0.00014168
C       -0.01548821       9.99375430       3.68970256      -0.00470470       0.00106133      -0.01341686
C        7.38948309       1.43414464       3.41831149       0.00506464      -0.00981629      -0.00967101
C        6.17535017       3.55399788       3.19050818       0.00420916      -0.00259023       0.00269671
C        4.98734186       5.65883698       3.58236161       0.00114945       0.00373383       0.00206827
C        3.69033506       7.91375680       4.19120965      -0.01301587      -0.00743708       0.00120365
C        2.45162675      10.01240085       3.81794105      -0.00067108      -0.00114998       0.00003670
C        9.86725830       1.43222416       3.60121197      -0.00794703       0.00695981       0.00760780
C        8.64177059       3.56344885       3.43540437      -0.00030082      -0.00155945       0.00225179
C        7.41130754       5.69509182       3.46420675       0.00373131       0.00072779      -0.00394744
C        6.15524438       7.82472342       3.74759402       0.00411139      -0.00033236      -0.00726284
C        4.92171240       9.97185896       3.75567786       0.00492050       0.00671013      -0.00065478
Mo       2.59144592       4.91563746       6.17393146       0.00078556      -0.00116758      -0.00245858
O        3.36361705       4.11429922       8.21820801       0.01686012       0.01061249       0.00073249
O        2.60903771       4.79658592       9.15231102      -0.00557539       0.01801522       0.00292600
H        3.07836660       5.64824585       9.23018539      -0.00567316      -0.01115051      -0.00779925
