52
Lattice="12.336457 0.0 0.0 -6.168228499999997 10.683685154694365 0.0 0.0 0.0 15.0" Properties=species:S:1:pos:R:3:initial_magmoms:R:1:forces:R:3 energy=-450.03475120232224 free_energy=-450.03475120232224 stress="-0.005488814342075081 -0.0011339630186331497 6.802762542499046e-06 -0.0011339630186331497 -0.004265812168881204 -1.079608724455519e-06 6.802762542499046e-06 -1.079608724455519e-06 -2.1209875797823653e-05" pbc="T T T"
C        0.00180523      -0.07971016       3.84948454       0.00000000       0.00011365       0.01120280       0.01252318
C       -1.24996262       2.04198010       3.75285380       0.00000000      -0.00127397      -0.00019691      -0.00590786
C       -2.48553323       4.18069037       3.75618942       0.00000000       0.00588069       0.00097029      -0.00848715
C       -3.69675036       6.32560415       3.85718028       0.00000000       0.00306911      -0.00015402       0.01305295
C       -4.93972348       8.46085353       3.83997060       0.00000000       0.00310795      -0.00596018      -0.00737618
C        2.46517729      -0.08101338       3.82672371       0.00000000      -0.00186394      -0.00402872       0.00739214
C        1.21662286       2.02158197       3.51215568       0.00000000       0.00233057       0.00711162       0.00378607
C       -0.12290025       4.11916443       3.11830850       0.00000000      -0.00510198      -0.00869004      -0.00070133
C       -1.27143488       6.32653013       3.50520377       0.00000000       0.00796347       0.00424614       0.01289446
C       -2.46699453       8.45912527       3.82449369       0.00000000       0.00772325       0.00800947       0.00882078
C        4.93019943      -0.08737137       3.87496982       0.00000000      -0.00216295       0.00135579      -0.00404802
C        3.70106607       2.04765378       3.62682603       0.00000000      -0.00504284      -0.00339790      -0.00401287
P        2.57786354       3.80471958       1.94043476       0.00000000       0.01145191       0.00213663       0.00136450
P        0.95664177       6.61302498       1.93288208       0.00000000      -0.00389688       0.00207452      -0.00978297
C       -0.00568672       8.46446291       3.61797845       0.00000000       0.00220220       0.00508055       0.00905018
C        7.39526950      -0.08348700       3.89240928       0.00000000      -0.00443581       0.00020471      -0.00755471
C        6.16641977       2.04634157       3.89461527       0.00000000      -0.00382198      -0.01038632       0.01409323
C        4.98366300       4.17047382       3.48734837       0.00000000      -0.00189890       0.00447314      -0.01493830
S        3.79960098       6.37982177       2.43685536       0.00000000       0.01013916      -0.00348615      -0.00290083
C        2.47528251       8.51580601       3.47302449       0.00000000       0.00177283      -0.00316954      -0.00142667
C        9.86749767      -0.08027451       3.87808597       0.00000000      -0.00689048       0.00297849       0.00715469
C        8.62924901       2.04888914       3.94555657       0.00000000       0.00360304       0.00248640       0.00617540
C        7.40381990       4.18663469       3.89145354       0.00000000      -0.00027191      -0.00883883      -0.00206049
C        6.19359991       6.33007861       3.66085134       0.00000000      -0.00341500      -0.00341669      -0.00413109
C        4.95034090       8.48417572       3.64891767       0.00000000       0.00065048      -0.00216882       0.01011042
C       -0.00614417       1.33722105       3.73903223       0.00000000       0.00215672       0.01178997       0.00520281
C       -1.28233802       3.44974535       3.54816732       0.00000000      -0.00169312      -0.00583829       0.00172096
C       -2.47386573       5.61000680       3.74217248       0.00000000       0.00459974       0.00303297      -0.00564858
C       -3.70005360       7.74953870       3.85567522       0.00000000       0.00867802       0.00247398      -0.00297039
C       -4.93458648       9.88999128       3.85285705       0.00000000      -0.00260412      -0.00264496       0.00064227
C        2.45916170       1.34167799       3.65895401       0.00000000      -0.00136021      -0.00271285       0.00284588
C        1.13873389       3.39704178       3.05725589       0.00000000      -0.00807579      -0.00475112      -0.01163981
C       -0.12024223       5.57206735       3.04784878       0.00000000      -0.00189565      -0.00712583      -0.00122311
C       -1.23837258       7.74248482       3.65169318       0.00000000       0.00523472       0.00812616       0.00643853
C       -2.47100351       9.88495280       3.86094448       0.00000000       0.00160951       0.00407918      -0.00780745
C        4.92602912       1.33961777       3.83783908       0.00000000      -0.00663455      -0.00461450       0.00082932
C        3.74198858       3.46156898       3.31213401       0.00000000      -0.00195547       0.00312040      -0.00480779
C        1.24020335       7.79298164       3.30345392       0.00000000      -0.00136760       0.00238954      -0.00369350
C       -0.00504187       9.87851471       3.83502047       0.00000000      -0.00376677       0.00421627      -0.00740260
C        7.39564828       1.33628511       3.95658003       0.00000000       0.00233890      -0.00205916       0.00000892
C        6.18355247       3.46660883       3.80929779       0.00000000      -0.00615917      -0.00761636       0.00097171
C        5.05690982       5.56805404       3.33597243       0.00000000      -0.01228131       0.00778756      -0.00001958
C        3.72220693       7.87985967       3.32462483       0.00000000       0.00357165      -0.00273173      -0.00070168
C        2.46548353       9.90617303       3.79772835       0.00000000      -0.00516284      -0.00141362       0.00057125
C        9.86444311       1.33995956       3.90391550       0.00000000      -0.00105783       0.00275891      -0.00392363
C        8.63223275       3.47326340       3.90949661       0.00000000       0.00798878       0.00047839       0.00115075
C        7.41367541       5.61145986       3.84719412       0.00000000      -0.00163662      -0.00551944      -0.00830662
C        6.17211378       7.75380304       3.69628198       0.00000000       0.00001053      -0.00769477       0.00273634
C        4.93810370       9.89983530       3.83273048       0.00000000      -0.00132590       0.00604894      -0.00001977
Mo       2.02434097       5.36209035       3.51954368       0.00000000       0.00078954       0.00035798       0.00013822
O        2.82103540       7.93141228      10.07299367       1.00000000       0.00015155       0.00105756      -0.00094635
O        2.95964893       8.86933920       9.27901496       1.00000000      -0.00008437      -0.00143157       0.00276432
