51
Lattice="12.336457 0.0 0.0 -6.168228499999997 10.683685154694365 0.0 0.0 0.0 15.0" Properties=species:S:1:pos:R:3:initial_magmoms:R:1:forces:R:3 energy=-455.70201101897163 free_energy=-455.70201101897163 stress="-0.00511941712749922 8.53170923032993e-05 -9.049182272190028e-06 8.53170923032993e-05 -0.0052723425321476464 1.3863017983991877e-05 -9.049182272190028e-06 1.3863017983991877e-05 -4.515163786579268e-05" pbc="T T T"
C       -0.01238388      -0.04350971       3.73203323       0.00000000      -0.00081123      -0.00065231       0.00026845
C       -1.24187871       2.11088482       3.83909492       0.00000000       0.00064255       0.00043690      -0.00060505
C       -2.47607748       4.24335505       3.76602731       0.00000000       0.00092041      -0.00034444      -0.00370640
C       -3.70447844       6.37609268       3.63861809       0.00000000       0.00086976      -0.00188946      -0.00135440
C       -4.94438564       8.50859144       3.63131836       0.00000000      -0.00102500       0.00023756       0.00226510
C        2.45519298      -0.05782686       3.66881413       0.00000000       0.00009482       0.00086438       0.00098445
C        1.22726328       2.04601600       3.96380205       0.00000000       0.00025723      -0.00055201      -0.00163717
C       -0.02784985       4.29135394       4.08749216       0.00000000      -0.00075146       0.00221383       0.00194696
C       -1.25623449       6.39405964       3.77043093       0.00000000      -0.00089682       0.00173692       0.00208409
C       -2.48065314       8.50687771       3.58436936       0.00000000       0.00112784       0.00058980       0.00060710
C        4.92452581      -0.04835739       3.59157718       0.00000000      -0.00144054      -0.00182399      -0.00148423
C        3.68835072       2.04076006       3.84036921       0.00000000       0.00306140      -0.00131717       0.00038158
N        1.10366045       6.46397084       4.19426636       0.00000000       0.00114184      -0.00085417      -0.00281175
C       -0.02564493       8.50637108       3.63702813       0.00000000      -0.00111134      -0.00067681      -0.00175276
C        7.39245505      -0.04018316       3.59925014       0.00000000      -0.00132842       0.00155654       0.00064668
C        6.15782577       2.10345137       3.66707827       0.00000000      -0.00214958       0.00064108       0.00155588
C        4.93387165       4.26500396       3.79901465       0.00000000       0.00461218      -0.00086074      -0.00354595
O        3.82962109       6.40871623       3.18615230       0.00000000      -0.00545314       0.00041747       0.00837625
C        2.43881503       8.48867448       3.70796344       0.00000000      -0.00169547      -0.00208879      -0.00237945
C        9.85456958      -0.03734551       3.68588972       0.00000000       0.00153760      -0.00030044      -0.00196096
C        8.62733624       2.10267081       3.67593198       0.00000000       0.00107068       0.00072803      -0.00227662
C        7.39707442       4.23924084       3.66478041       0.00000000      -0.00020332      -0.00122793      -0.00004838
C        6.18925684       6.39459266       3.69252436       0.00000000      -0.00021280      -0.00053273      -0.00212446
C        4.94088455       8.51913999       3.74368380       0.00000000      -0.00109380      -0.00003837       0.00359937
C       -0.00791551       1.38093659       3.84586603       0.00000000      -0.00047621      -0.00087723      -0.00170093
C       -1.23883975       3.54601479       3.90142877       0.00000000       0.00047995       0.00092798       0.00153025
C       -2.47537362       5.66550465       3.71507204       0.00000000       0.00145258      -0.00070904      -0.00027298
C       -3.71098094       7.79641955       3.60315818       0.00000000       0.00085555      -0.00024009       0.00334054
C       -4.94965961       9.92793033       3.66811489       0.00000000      -0.00081374       0.00082187      -0.00163767
C        2.45481204       1.35118037       3.82054920       0.00000000       0.00205212       0.00054462       0.00044092
B        1.22507706       3.50390769       4.27756508       0.00000000       0.00116749       0.00042969       0.00044372
C       -0.04274438       5.71333473       4.02100929       0.00000000      -0.00237150       0.00239564      -0.00015508
C       -1.25285625       7.80126537       3.64726139       0.00000000       0.00063117       0.00041439      -0.00134689
C       -2.47653187       9.92615677       3.59378996       0.00000000      -0.00115526       0.00012007      -0.00226612
C        4.92092437       1.37527066       3.68176312       0.00000000       0.00077332      -0.00244847       0.00408419
B        3.68775392       3.49852177       4.11359370       0.00000000      -0.00210308       0.00289350       0.00163234
C        1.17947524       7.79563920       3.81361671       0.00000000      -0.00265432      -0.00066556       0.00446028
C       -0.01108845       9.93027368       3.57708800       0.00000000      -0.00155574      -0.00082070       0.00113460
C        7.39026879       1.39009363       3.62743114       0.00000000      -0.00165871       0.00291939       0.00142384
C        6.15998542       3.53249014       3.69844353       0.00000000      -0.00070146      -0.00011941      -0.00191072
C        4.97865375       5.68902585       3.72179265       0.00000000      -0.00008420       0.00061825      -0.00278263
C        3.70827754       7.81399774       3.76061439       0.00000000      -0.00051490      -0.00108703       0.00378780
C        2.45396042       9.92692029       3.63402295       0.00000000       0.00017964      -0.00077592      -0.00251398
C        9.86364652       1.39489937       3.72274131       0.00000000       0.00163946       0.00036302      -0.00067666
C        8.63052093       3.52677668       3.69183219       0.00000000       0.00064456      -0.00002182      -0.00075114
C        7.40734565       5.66152291       3.66127694       0.00000000      -0.00028543      -0.00143292       0.00012543
C        6.16741106       7.80835559       3.68453800       0.00000000      -0.00210145       0.00000122       0.00012470
C        4.92248156       9.94009928       3.71908060       0.00000000       0.00021873      -0.00032874      -0.00193493
Nb       2.93485742       6.07953894       5.08687868       0.00000000       0.01103390      -0.02751359       0.09130424
O        3.36969852       6.68761976       6.66690002       1.00000000       0.00039208      -0.01076380       0.03255718
O        2.48527400       4.05497925       4.73484748       1.00000000      -0.00220793       0.03909153      -0.12546866
