52
Lattice="12.336457 0.0 0.0 -6.168228499999997 10.683685154694365 0.0 0.0 0.0 15.0" Properties=species:S:1:pos:R:3:forces:R:3 energy=-457.0229845518683 free_energy=-457.0229845518683 stress="-0.005077340992041028 0.001089672101103755 3.740358470022875e-05 0.001089672101103755 -0.0028926608228110233 -3.791049332655143e-05 3.740358470022875e-05 -3.791049332655143e-05 1.8385585328231228e-05" pbc="T T T"
C        0.01157477       0.00230683       3.65578553       0.00067055      -0.00168068       0.00547570
C       -1.23263184       2.12705916       3.64060915      -0.00222252       0.00042894       0.00293077
C       -2.47135786       4.26704454       3.62359630       0.00041966      -0.00844177      -0.00732273
C       -3.69789035       6.40360939       3.62308744      -0.00368604       0.00750202       0.00513450
C       -4.92949404       8.54403864       3.65824001       0.00266993      -0.00270944      -0.00775692
C        2.48238299       0.00936871       3.70605646       0.00053500      -0.00519305      -0.00451360
C        1.24014969       2.14505814       3.82906889      -0.00295387       0.00247824      -0.00041311
C       -0.04243021       4.25896773       3.90342824       0.00620683       0.00848959       0.00047481
C       -1.24605617       6.40804379       3.78119987      -0.00584578      -0.00052945      -0.00139586
C       -2.46583166       8.54139627       3.69073167       0.00206105      -0.00134533      -0.00323706
C        4.94368413      -0.01831724       3.68330151       0.00002636       0.00022674       0.00298064
C        3.75068274       2.08964940       3.82183208       0.00167512       0.00340869       0.00534158
C        1.19735100       6.40053031       4.12693706       0.00889361      -0.00623524      -0.00049861
C        0.00625251       8.52673137       3.80174515      -0.00368253       0.00789796       0.00199863
C        7.40834386      -0.01784478       3.66047994       0.00436734       0.00589271      -0.00037869
C        6.18954075       2.10944862       3.60512825       0.00098806      -0.00223974       0.00231612
C        5.01376517       4.22508808       3.78311497      -0.00070375       0.00083174       0.00571942
B        3.70326206       6.41859698       4.08578962      -0.00020291      -0.00018561      -0.00157515
C        2.46578437       8.55415678       3.84507083      -0.00536496       0.00054299      -0.00002896
C        9.87573291      -0.00707736       3.63976474       0.00694430      -0.00485289      -0.00197834
C        8.64372634       2.12446473       3.56016931      -0.00217902      -0.00742173      -0.00144072
C        7.41685314       4.26313155       3.56317346      -0.00297569       0.00215933       0.00992298
C        6.17722593       6.39131653       3.69414341      -0.00058148      -0.00363883       0.00117250
C        4.94973785       8.55290897       3.73336225       0.01068040      -0.00718557      -0.00322599
C        0.01116151       1.42333555       3.68838262      -0.00443394      -0.00057178       0.00478285
C       -1.25705447       3.54722591       3.69333250       0.00883349       0.00193707       0.00123391
C       -2.46872848       5.69445359       3.66416137      -0.00827781      -0.00343858       0.00085623
C       -3.69730148       7.82963582       3.65219431       0.00202810       0.00409112      -0.00264659
C       -4.92158956       9.97404355       3.67100103      -0.00071419      -0.00482915       0.00312178
C        2.50040099       1.44200642       3.79496542       0.00063404       0.00017733      -0.00382042
C        1.14762187       3.52522432       4.03104757       0.00252631       0.00143154       0.00625593
C       -0.02259083       5.69416436       3.95625647      -0.00025281       0.00448373      -0.00651639
C       -1.23568865       7.82758954       3.76076720      -0.00062569       0.00199914      -0.00885695
C       -2.46170969       9.97006666       3.69316858       0.00183132      -0.00490952       0.00068940
C        4.95395732       1.40931318       3.68029708       0.00158268       0.00053726       0.00450152
O        3.83917992       3.49211951       4.04817159      -0.00177700       0.00978720      -0.00288127
C        1.24281529       7.81317321       3.93507722      -0.00661485      -0.00422247      -0.01345447
C        0.00886043       9.94680273       3.70813413       0.00288167       0.01017273      -0.00299242
C        7.40888358       1.40669759       3.58503377      -0.00002839      -0.00068128       0.00183987
C        6.19551432       3.52494947       3.59808957      -0.00148203      -0.00286087       0.00613478
C        4.96581866       5.62983252       3.83342674      -0.00023450      -0.00151221      -0.00094560
C        3.70797197       7.87592830       3.86822271       0.00192813       0.00259302      -0.00244149
C        2.47048298       9.96787918       3.70272068       0.00261175       0.00211642      -0.00771383
C        9.87426174       1.41307985       3.59020122      -0.00056930      -0.00394142       0.00720484
C        8.64199496       3.55098002       3.55505661      -0.00453879      -0.00719057      -0.00079942
C        7.40736846       5.68564869       3.60516727      -0.00231254       0.00486893       0.00632099
C        6.17498363       7.82252910       3.69589575       0.00821582      -0.00713920      -0.00301128
C        4.94647211       9.97368249       3.66047405       0.00735634      -0.00602881       0.00314122
Nb       2.41912685       4.87857919       4.93829178      -0.01364325      -0.00152801       0.00579816
O        2.19278578       5.04262060       6.71443435       0.00770576       0.00285527       0.00565634
O        2.03142495       5.16584358       8.10945281      -0.00973573       0.01248318      -0.00264825
H        2.91489974       4.90291109       8.44443033      -0.00863426       0.00112030      -0.00851135
