52
Lattice="12.336457 0.0 0.0 -6.168228499999997 10.683685154694365 0.0 0.0 0.0 15.0" Properties=species:S:1:pos:R:3:forces:R:3 energy=-454.15630081932994 free_energy=-454.15630081932994 stress="-0.008538602651619645 -0.0019627815277879065 -4.3760028284231295e-05 -0.0019627815277879065 -0.00832815993938579 -2.4362873377864794e-06 -4.3760028284231295e-05 -2.4362873377864794e-06 3.146389412716366e-05" pbc="T T T"
C       -0.00775268      -0.00031209       3.76231825       0.00194919      -0.00727829       0.00138319
C       -1.25798448       2.12810067       3.77932242      -0.00957463      -0.00945342       0.01090119
C       -2.48074453       4.26901628       3.80307182      -0.00341138      -0.00783089      -0.00228805
C       -3.69091516       6.40816717       3.79090215       0.00834185      -0.00255081      -0.00646701
C       -4.93175260       8.54607725       3.79786510      -0.00115105       0.00693426      -0.00847220
C        2.46072965      -0.02453929       3.71972239       0.00646984      -0.00351948       0.00152988
C        1.21277788       2.11656271       3.76403552      -0.00305024      -0.00175971      -0.00004487
C       -0.04584848       4.25065277       3.99976964       0.00179889       0.00524364      -0.01042800
C       -1.24377163       6.40584240       3.94903415      -0.00497834       0.00710468       0.00379148
C       -2.46676836       8.53763594       3.82673391      -0.00578808      -0.00528294       0.00326937
C        4.93061700      -0.01716564       3.67059409      -0.01060959       0.00137119      -0.00449166
C        3.67111286       2.04499632       3.34538534      -0.00224474      -0.00254623       0.01643164
C        1.20600893       6.40048492       4.18104405      -0.01042674       0.00443674       0.00099406
C       -0.00309593       8.53579952       3.91979762       0.00642094       0.00010386      -0.00875610
C        7.38315946       0.00264052       3.73959766      -0.00820562       0.00395613      -0.00684789
C        6.15767479       2.12730273       3.46511853       0.01208195      -0.00414673       0.00740231
C        5.02981756       4.31670026       3.30919253       0.00925015      -0.00033821       0.00819903
B        3.73649541       6.46370949       3.93618271      -0.01863083      -0.00208781      -0.00267603
C        2.44440856       8.57899742       3.92666399       0.01042637      -0.00224133      -0.01424720
C        9.85455296       0.00617327       3.77153816      -0.00780400       0.00410346       0.00121594
C        8.61843215       2.13429986       3.67429087      -0.00257010       0.01023664      -0.00999487
C        7.41825680       4.27309493       3.60590744       0.00223517       0.00515404       0.00680733
C        6.20457134       6.42488154       3.71393177       0.00408713       0.00302971       0.01108485
C        4.94768100       8.57536832       3.82049630       0.00368739      -0.00080193      -0.01181635
C       -0.02168334       1.41486614       3.76243133      -0.00429288      -0.00894195       0.00153479
C       -1.27040749       3.54568934       3.85390238      -0.00171373      -0.00659351       0.00427538
C       -2.46699498       5.69411125       3.84788480       0.00457985      -0.00781415       0.00507388
C       -3.69675492       7.83089001       3.81194295      -0.00494143      -0.00286919       0.00310527
C       -4.94182518       9.96377799       3.77443012       0.00925014       0.00215467       0.00106950
C        2.44813760       1.39369556       3.62005605      -0.00344396      -0.00712899       0.00900643
C        1.13886223       3.48758497       4.00280186       0.01114288       0.00539005       0.00604700
C       -0.01766152       5.68808275       4.06744203      -0.00895405       0.00870638       0.00309894
C       -1.23656717       7.82630982       3.90885687       0.00233521       0.00709427      -0.00022473
C       -2.46893684       9.95724299       3.73963912      -0.00247895      -0.00727358       0.00210936
C        4.92741029       1.40288583       3.47325038       0.00056247       0.00530613       0.01405520
S        3.57687249       3.64356922       2.67165630      -0.01025349      -0.00806636      -0.00715868
C        1.23408723       7.82247214       4.02333891       0.01014423      -0.00256610      -0.00755663
C       -0.00617179       9.95706772       3.77955198      -0.01073703       0.00235932      -0.00213601
C        7.38028686       1.42409841       3.61810835       0.00924020       0.00172311       0.00183450
C        6.19800330       3.54693762       3.42468221       0.01151202      -0.00291704       0.00875364
C        4.99164847       5.69132285       3.64105677      -0.00264644       0.00418357      -0.00137214
C        3.69693450       7.92034201       3.88740392       0.00792046      -0.00381736      -0.00338776
C        2.44616456       9.99135663       3.81762601      -0.00659127       0.00109014      -0.00301138
C        9.84806163       1.42190863       3.73460988      -0.01412215       0.00598573       0.01128954
C        8.63244203       3.55656544       3.68855922      -0.00472098       0.00439143      -0.00521908
C        7.42363925       5.69861962       3.69631618       0.00451527       0.00381981      -0.00523792
C        6.17665569       7.84435563       3.79410994       0.00263231       0.00408219      -0.00188099
C        4.92976115       9.98678092       3.78699737      -0.00460112      -0.00026377      -0.00399968
Nb       2.54942340       4.85795573       4.66153286       0.00599906       0.00232722      -0.00516422
O        2.52905732       4.86569920       6.50739506       0.00603241       0.00089732      -0.00683916
O        2.44473044       4.90316988       7.92090034       0.00672841       0.00092139      -0.00118881
H        3.38382798       4.80781782       8.18428758       0.00859901      -0.00401731      -0.00335629
