52
Lattice="12.336457 0.0 0.0 -6.168228499999997 10.683685154694365 0.0 0.0 0.0 15.0" Properties=species:S:1:pos:R:3:forces:R:3 energy=-459.2975769591383 free_energy=-459.2975769591383 stress="-0.00614867296116299 1.548586766295136e-05 8.578266205629365e-06 1.548586766295136e-05 -0.000681966382803367 2.5703702530115754e-05 8.578266205629365e-06 2.5703702530115754e-05 -7.63673110844815e-06" pbc="T T T"
C       -0.00135810       0.01052758       3.67149156      -0.00015422      -0.00087432      -0.00434372
C       -1.24453342       2.12722624       3.59740355       0.00063145      -0.00424266       0.00161126
C       -2.46832868       4.27259519       3.51744979       0.00094859       0.00436228       0.00931583
C       -3.69383002       6.41694544       3.55638328       0.00686266      -0.00218509      -0.00649819
C       -4.93095227       8.56171528       3.65210199      -0.00152266       0.00479028       0.00674135
C        2.45913257       0.03240276       3.72246384       0.00435000       0.00006009       0.00709302
C        1.19584812       2.16515346       3.84849283       0.00307453      -0.00588384      -0.00251548
C       -0.04177971       4.25623702       3.79209742      -0.00554273      -0.00441007      -0.00420841
C       -1.24100426       6.41916168       3.62452612       0.00354679       0.00317883       0.00219103
C       -2.47338780       8.56304923       3.61939572       0.00340485       0.00263548       0.00009891
C        4.93120811       0.00534125       3.69088854      -0.00252872       0.00554124      -0.00574925
C        3.70352365       2.16113931       3.91122495      -0.00391506      -0.00930763       0.00369079
N        1.14069435       6.41794897       4.03166147      -0.00907266       0.01034743      -0.00072918
C       -0.01188571       8.53070891       3.71613839       0.00242898      -0.00413709      -0.01015935
C        7.39769612      -0.01791603       3.64114726      -0.00588042      -0.00263000       0.00397337
C        6.18149523       2.12008007       3.66818635      -0.00124620       0.00481734       0.00042932
C        5.00449490       4.24956285       3.93920098      -0.00692113       0.00311864       0.00004959
B        3.76855670       6.43308031       4.22225545      -0.00749144       0.00280163       0.00065355
C        2.44257987       8.52656567       3.83840060       0.00462327      -0.00142867       0.00393899
C        9.86069334      -0.01719728       3.63620523      -0.00074624       0.00339727       0.00477106
C        8.63376969       2.12294087       3.53738165       0.00447797       0.00432371       0.00289410
C        7.42374260       4.26660728       3.58913411       0.00687438      -0.00341259      -0.00405153
C        6.20700572       6.41631447       3.76287848       0.00081108      -0.00252529       0.00316995
C        4.94494491       8.55471823       3.78439124      -0.00519648      -0.00212980      -0.00383180
C       -0.01358805       1.43517491       3.68562689       0.00293332      -0.00426552      -0.00343369
C       -1.24446823       3.55115773       3.59353251      -0.00724554      -0.00383850      -0.00739902
C       -2.46517573       5.69934435       3.53787864       0.00873338       0.00205469      -0.00066215
C       -3.70123183       7.84584968       3.59788528       0.00212692       0.00048908       0.00213270
C       -4.93435764       9.99050025       3.67856926       0.00436573       0.00401044       0.00032458
C        2.45035720       1.45976625       3.84673580      -0.00060800      -0.00719839      -0.00712443
N        1.11584561       3.52935273       4.01668870      -0.00301422      -0.00254966      -0.00408498
C       -0.02888915       5.70945416       3.80342105       0.00116586       0.00280423      -0.00486687
C       -1.24401316       7.84122976       3.64215829       0.00326154       0.00086231       0.00651599
C       -2.47629791       9.99090819       3.67911254       0.00306539       0.00389478      -0.00009331
C        4.93719540       1.42445713       3.74787248      -0.00342833       0.00362462      -0.00091056
C        3.79752138       3.54229633       4.12439298      -0.00062893      -0.01047042       0.00674034
C        1.20219495       7.79083827       3.86543391       0.00303923       0.00642098       0.00144365
C       -0.00394972       9.95833091       3.67526550      -0.00777584      -0.00613913      -0.00270279
C        7.40590866       1.40571864       3.59198956       0.00133861       0.00180122      -0.00052213
C        6.21234089       3.53890528       3.70373087       0.00066130       0.00587056      -0.00329474
C        5.02623082       5.67183149       3.97824040      -0.01015673       0.00549412      -0.00381585
C        3.69856933       7.86838623       3.93423368      -0.00027967      -0.00385993       0.00385191
C        2.45366446       9.94965118       3.68580244      -0.00026613      -0.00195429       0.00686152
C        9.86339860       1.40819947       3.56398910       0.00104117       0.00517042       0.00015639
C        8.64316511       3.55133483       3.51471514       0.00779397       0.00183470      -0.00015383
C        7.42614765       5.69871709       3.61286902       0.00417637      -0.00586033       0.00438137
C        6.18073385       7.84326830       3.73596725      -0.00396954       0.00006354      -0.00342039
C        4.93545587       9.97360466       3.68060742      -0.00474993       0.00012322      -0.00258096
Nb       2.38311505       4.90727622       4.91790972       0.01081910       0.00848796      -0.00074912
O        2.44798059       4.86442264       6.71716880      -0.00501374      -0.00290368       0.00384800
O        2.22455285       4.84944480       8.33594288       0.00071141      -0.00655034      -0.00283997
H        3.17708501       4.87641812       8.58744793       0.00008670      -0.00362386       0.00386315
