52
Lattice="12.336457 0.0 0.0 -6.168228499999997 10.683685154694365 0.0 0.0 0.0 15.0" Properties=species:S:1:pos:R:3:forces:R:3 energy=-454.5892209249899 free_energy=-454.5892209249899 stress="0.00025014864083382313 -0.00010410616569327595 7.585057455107122e-05 -0.00010410616569327595 -0.003884619406860889 3.8190016997831404e-05 7.585057455107122e-05 3.8190016997831404e-05 1.656488795309739e-05" pbc="T T T"
C        0.00812775       0.00345212       3.65344138       0.00478803      -0.00532741       0.00329262
C       -1.21729495       2.15520331       3.81285570       0.00275204      -0.00451090       0.00740516
C       -2.44756709       4.27962216       3.79294918       0.00751777      -0.00139146       0.00929714
C       -3.69280833       6.40510423       3.63705865      -0.00403286       0.00121624       0.00733769
C       -4.93422389       8.53625004       3.55283070      -0.00084592      -0.00571942       0.00494795
C        2.47489609      -0.04208823       3.60627002       0.00199525      -0.00496672      -0.00279511
C        1.26277482       2.08598010       3.87746760      -0.00516281      -0.00131685      -0.00530390
C        0.04599487       4.32331240       4.01715182       0.00216222       0.00373619      -0.00618328
C       -1.23113822       6.42659978       3.73219612      -0.00792972       0.00673473      -0.00604847
C       -2.45670296       8.53384440       3.55607158      -0.00414535       0.00658275       0.00475967
C        4.94683678      -0.00997346       3.61445869      -0.00615004       0.00894148       0.00427075
C        3.69274140       2.07277834       3.81016325      -0.00675799       0.00561373      -0.01590264
N        1.14474001       6.48867966       4.07769819       0.00963614      -0.00830295       0.00669767
C        0.00847426       8.54335990       3.64899160      -0.00115421       0.00516999      -0.00861829
C        7.41262971       0.00753274       3.66835498      -0.00723503       0.00299438       0.00230733
C        6.16733607       2.15358810       3.74874078       0.00626498      -0.00533169      -0.00053543
C        4.89821679       4.32928237       3.89355698      -0.00061249       0.00654896      -0.00324539
O        3.77933240       6.47469837       3.68400510       0.01553728       0.01002651       0.00465783
C        2.48255139       8.52858494       3.71493629      -0.00666699       0.00664386       0.00084107
C        9.87615899       0.01155221       3.68311745      -0.00225734      -0.00542261      -0.00790064
C        8.64224375       2.15103457       3.74603569       0.01342955       0.00015396       0.00430877
C        7.39269208       4.27989356       3.75479284      -0.00214029      -0.00806859      -0.01006622
C        6.18204549       6.42760684       3.65957408       0.00779848      -0.00524394      -0.00191529
C        4.94515987       8.56015980       3.60215328       0.00404782      -0.00138112       0.00722663
C        0.01383102       1.42785180       3.78062484      -0.00336678      -0.00506683       0.00276859
C       -1.19648750       3.58364281       3.88293839       0.00803409      -0.00284029      -0.00404908
C       -2.45558366       5.69985664       3.71626168      -0.00561257       0.00112118       0.00489151
C       -3.69341998       7.82417917       3.56325585      -0.00216303       0.00240890       0.00632679
C       -4.93351001       9.95769149       3.58670297       0.00361139      -0.00618529      -0.00869908
C        2.47393292       1.36178286       3.75263583      -0.00638018      -0.00043404      -0.01821203
B        1.40370958       3.56810327       4.14800124       0.00336527       0.00049067      -0.00693312
C       -0.00674395       5.74924436       3.93806949      -0.00392385       0.00363729      -0.00514181
C       -1.22495233       7.83256585       3.62710881      -0.00660081       0.00919710       0.01258166
C       -2.45241823       9.95201650       3.56708851       0.00075920       0.00281862       0.01000147
C        4.94136371       1.41450292       3.71413600      -0.00226648       0.00653428      -0.01359940
B        3.55024493       3.54417687       4.04634726       0.01205655       0.00321270       0.00477097
C        1.21788789       7.82792440       3.79423464      -0.00011098      -0.00127221       0.01108623
C        0.01332902       9.97030985       3.62200916      -0.00932504       0.00862806       0.00338459
C        7.40462565       1.43923265       3.71195023       0.01191108      -0.00010624       0.00255625
C        6.14846611       3.58061050       3.80049459      -0.00441828      -0.00529299       0.00253503
C        4.97979377       5.73139813       3.78637604       0.00724869       0.00724974       0.00583849
C        3.73143136       7.89494972       3.68599861       0.00185440       0.01006441      -0.00256927
C        2.47733608       9.97382566       3.67729360      -0.00950606       0.00445988       0.00105384
C        9.88254562       1.44433185       3.74252691       0.00711170      -0.00739771      -0.00072404
C        8.64338443       3.57347651       3.76537552       0.00696449      -0.00018908       0.00124796
C        7.40994923       5.69783350       3.68650444       0.00254244      -0.00714250      -0.00801895
C        6.17760886       7.84121618       3.58473979       0.00204988      -0.00757992       0.00401828
C        4.94134303       9.98872667       3.63479552       0.00327549      -0.00302481       0.00235357
Nb       2.59269748       5.25278348       4.93723007       0.00434141      -0.00703772      -0.00040278
O        2.69127328       4.97265675       6.70716307      -0.01569004       0.00309903      -0.00201364
O        2.77607346       4.74591762       8.09391600      -0.01319533      -0.00977701      -0.00435894
H        3.64406372       5.14376806       8.31678682      -0.01340519      -0.00695436       0.00047130
