52
Lattice="12.336457 0.0 0.0 -6.168228499999997 10.683685154694365 0.0 0.0 0.0 15.0" Properties=species:S:1:pos:R:3:forces:R:3 energy=-454.1101431234667 free_energy=-454.1101431234667 stress="-0.008574027894033567 0.0017328676612183062 9.839226279989134e-06 0.0017328676612183062 -0.009475699815445581 1.3322120420904008e-05 9.839226279989134e-06 1.3322120420904008e-05 6.346224985783896e-05" pbc="T T T"
C       -0.01977655       0.02641839       3.74381468      -0.00046842      -0.00685791      -0.00367889
C       -1.25526117       2.15342790       3.83412642      -0.00080800       0.00133262       0.01696642
C       -2.49075043       4.29194225       3.78711532      -0.00001885       0.00810257      -0.00015808
C       -3.72198297       6.43015188       3.67799686       0.00162046      -0.00019628      -0.00274822
C       -4.96819731       8.56393101       3.62871933      -0.00308872      -0.00806040       0.00047883
C        2.43910032       0.01584822       3.78968306       0.00556825      -0.00255372      -0.00550541
C        1.21096055       2.14968146       4.01350122       0.00117453       0.00568607      -0.01044934
C       -0.06132223       4.27082298       4.10436743      -0.00957663      -0.00897604       0.00411469
C       -1.28217572       6.43634208       3.92396498       0.00461555      -0.00719913       0.00330927
C       -2.49906755       8.56923072       3.76649758      -0.00219301      -0.00238047       0.00866039
C        4.90742272       0.02159276       3.75046283       0.00466860       0.00225099       0.00963655
C        3.68577879       2.14304173       3.80524508       0.00594704      -0.00489468       0.00594822
B        1.17655761       6.49956535       4.20865681      -0.00433778       0.00354425      -0.00298784
C       -0.03849011       8.58891656       3.86150520      -0.00810083       0.00981263       0.00526463
C        7.37683370       0.03437427       3.73731344       0.00046864       0.00159248       0.00226494
C        6.16234870       2.13885402       3.65584760      -0.00036538      -0.00148932       0.00176240
C        4.96617243       4.24764934       3.56629953      -0.00475931      -0.00518035      -0.00572016
S        3.48057210       6.32961614       2.86444459       0.00059669       0.00563647      -0.00591439
C        2.44326879       8.62101108       3.73304140       0.00513212       0.01036747       0.00506279
C        9.85714256       0.03666537       3.70114443      -0.00288893      -0.00016488      -0.00807826
C        8.62471761       2.15828450       3.69231626       0.00106525       0.00013785       0.00398750
C        7.40666309       4.28824137       3.59033836      -0.00213891       0.00005567       0.00115599
C        6.16244724       6.43073058       3.46468887       0.00298901       0.00473240      -0.01119444
C        4.91082232       8.57546279       3.52437012      -0.00238848       0.00367308       0.00662363
C       -0.02268388       1.44159276       3.86849570      -0.00098040      -0.00095511       0.00877170
C       -1.27677971       3.56749427       3.90619684      -0.00834744       0.00064147       0.00891468
C       -2.50063331       5.71844704       3.79647958       0.00237647       0.00327904       0.00174296
C       -3.72977301       7.85453557       3.68841493      -0.00280337      -0.00132353      -0.00365581
C       -4.96122387       9.99025910       3.72317648       0.00073673      -0.00665000       0.00192330
C        2.44265821       1.43385907       3.88938970       0.00661653       0.00095518       0.00285749
C        1.14724733       3.54110821       4.24413099      -0.00313522       0.00463680      -0.00006000
C       -0.08459613       5.69483993       4.10001410      -0.00016053      -0.01332843      -0.00354139
C       -1.26995119       7.86177945       3.86189727      -0.00392113      -0.00680219      -0.00249485
C       -2.49692795       9.99126038       3.76350627       0.00667937      -0.00007303      -0.00125311
C        4.92338914       1.43341184       3.71951358       0.00439803      -0.00159178       0.00811468
C        3.76438492       3.54266860       3.78831803      -0.00747979      -0.00586220      -0.00741266
C        1.21417985       7.92765113       3.91338007      -0.00392176       0.01531394       0.00029685
C       -0.02946311      10.00622693       3.77171922       0.00045922       0.00827105       0.00243291
C        7.39176065       1.44405224       3.68442330      -0.00066459      -0.00050682       0.00464775
C        6.19957817       3.55084811       3.57689548      -0.00376471      -0.00278302      -0.00492251
C        4.98745936       5.65679347       3.37680256       0.00874899      -0.00429316      -0.00327710
C        3.64998643       7.94107787       3.46811473       0.00173688       0.00474337       0.00077900
C        2.45077629      10.03312480       3.72871052      -0.00088120       0.00615636      -0.00109554
C        9.85375148       1.45205681       3.73588150       0.00180407      -0.00454334       0.00136701
C        8.62869546       3.57876382       3.67757587       0.00122069       0.00347909       0.00276645
C        7.39555490       5.71383696       3.57387672       0.00412927       0.00251310      -0.00225163
C        6.14002433       7.85301076       3.50753257      -0.00432114       0.00215013       0.00064339
C        4.91642022      10.00262588       3.65827245      -0.00247687      -0.00377794       0.00478363
Nb       2.60637744       4.93851474       4.76898338       0.01475600      -0.00863689      -0.00388302
O        2.96256671       4.54566738       6.55153919       0.00581684       0.00795101      -0.01286260
O        3.18220757       4.29127746       7.92864555      -0.00127819      -0.00386685      -0.00804395
H        3.85994567       4.96124103       8.15990945      -0.00805564      -0.00406762      -0.01408883
