51
Lattice="12.336457 0.0 0.0 -6.168228499999997 10.683685154694365 0.0 0.0 0.0 15.0" Properties=species:S:1:pos:R:3:initial_magmoms:R:1:forces:R:3 energy=-747713.2008060954 free_energy=-747713.2008060954 stress="1168.2434221676506 -293.27982468249144 -10.277802280453587 -293.27982468249144 351.19477373381585 -74.80685305419941 -10.277802280453587 -74.80685305419941 -250.8612378563959" pbc="T T T"
C       -0.92863243       3.55131286       5.27058088       0.00000000     -17.20866299      57.57643745      10.80525379
C       -0.09850172      -0.33275415      -1.88231230       0.00000000       6.92922781       0.67015074      -4.04029133
C       -1.72167993       9.79339367       4.19023199       0.00000000     272.42917613       7.24188451    -108.37975823
C       -4.07644209       5.38434101       0.17566550       0.00000000     -20.65976390       3.52473537      19.38427703
C       -6.53284771       8.61717308       8.45032951       0.00000000   -1230.48752027     124.66742772    -587.25559841
C        3.98643234      -1.09580897     -10.30735337       0.00000000    -104.09201716    -138.11476726     222.31158370
C       -0.81862863       3.47669644      -0.34361797       0.00000000      -6.15543285      -2.83023449       1.93048522
C        1.88417206       6.96385412       6.51364763       0.00000000  190276.04170480  208648.46816472   62342.43730821
C       -5.13403843       9.43383508       2.78204244       0.00000000      28.97773418      28.33849850     -26.01004021
C       -4.66641769      10.53739259      12.56137845       0.00000000      -7.24064145      -1.00284928       0.74816492
C        4.93118026       6.91165443       2.65695894       0.00000000     139.92305184    1477.18138240   -3177.38864283
C       10.05559025      -2.03525500      16.27862970       0.00000000     -41.47378021      79.96634826     -81.65180831
B        0.16357365      11.26801586       0.59749171       0.00000000      -3.28024792       4.25258424       0.03189293
C        2.76795702       6.52782676       7.34356248       0.00000000 -470768.78886722  171954.27382657  423317.91230679
C       13.62580580       0.21995846       2.22161092       0.00000000      -0.29128203      -6.62048828       0.69082005
C        4.90717342       2.16455662       0.89331877       0.00000000       1.14319158      -2.63309023      -4.82510232
C       11.40581465       2.70530109       5.45879430       0.00000000     -36.42798811      15.77266364     -22.84947375
O        2.89857038       4.21604837       4.72210583       0.00000000  -19438.69742801  -15834.63673023  -18182.35217267
C        1.09902311       6.31247898       4.57988075       0.00000000  -11416.29540951    4274.36863052   -3417.35739609
C        9.10912215      -2.66057542       6.04697611       0.00000000   21429.76038633 -245107.22914156   60957.16708577
C        8.04755732       1.64728685       3.51862448       0.00000000     -17.41648693      49.64045505      -9.49969858
C        4.05557743      -2.85450241       2.56228350       0.00000000      18.58107225      -7.72064842      24.27829061
C        9.02390215       5.22658336      -0.52910780       0.00000000      21.99458087      -4.26034335     -20.37442137
C        1.77178071       8.06041708       8.35117408       0.00000000   -7669.70619165    5762.83035129    6647.09035471
C        1.31985801       0.54167034       7.49689050       0.00000000   -8402.31336727     827.98651487    1710.04778500
C       -4.37881543       8.83301218       0.90192668       0.00000000       2.72399701       5.34537058       3.67587184
C       -6.20057308       5.54047651       5.86349437       0.00000000  101011.30840686  -28876.94139828  -22629.55535581
C       -4.32595955      11.18362630       7.37538583       0.00000000    8970.40895654    -489.45205669   -1638.80990670
C       -5.54974857      11.45763207       6.94019656       0.00000000    -265.10603921       8.57998629    -186.35815835
C        7.32409929      -2.12472288     -12.73466127       0.00000000    -162.64132048      42.16947891    -189.30657755
S        1.79489775       4.55008265       6.19535921       0.00000000   62872.11356321   93359.18297764   15091.07899148
C      -13.77889505      11.27480186      10.39031573       0.00000000      -4.52590561       5.06387701      -1.43279348
C       -6.34730026      -3.00738655      -2.60787933       0.00000000       2.97997083       1.12904967      -1.74652413
C       -2.32776835       2.81201567       0.09374769       0.00000000       6.23466365       2.77920152      -1.73283787
C        3.69115787       2.67362764      -1.12325602       0.00000000       1.87127958      -0.78288638       3.09677698
B        7.69298055      -3.29888354       6.66435253       0.00000000  134158.80175933 -262723.28928787 -108565.96358353
C       -2.03905079       7.50161979       6.50615079       0.00000000    -745.38469086      47.98825040      38.18536296
C        8.65835308      11.97649035       8.32875708       0.00000000     123.30491938    -120.42282055      36.99937106
C        8.40937200       9.38152562       4.45192405       0.00000000      56.75831591      25.56123453     -14.46024490
C       10.67892086       1.88779072     -10.80324970       0.00000000      31.88169337      66.40856368      28.82650203
C        2.68059968       3.69773551       6.42557931       0.00000000  -10467.83340444  -22429.34862356    6514.60853454
C        4.26260275       7.65268569       6.33911175       0.00000000  -61082.89626336   -3435.00873843  -11492.23627916
C       -2.97530462       6.78264156      -7.10313841       0.00000000     155.43698167      22.47697429     -51.85040541
C        9.75867493       3.81175516      11.43731963       0.00000000      -0.06932877      -0.04376005      -0.40794066
C        7.55638125       1.31906886       5.01496080       0.00000000     -27.08004875      35.56431558     -15.43115460
C        6.31596420       5.18191896       6.87025375       0.00000000  -10984.80030494    2430.04854069  -18591.97093448
C        6.17918196      10.40040411       7.96428164       0.00000000    -536.41713200    -476.73092063      64.79060948
C       11.21283885      10.96923460       3.60246708       0.00000000     -21.58607381      -9.35973319       5.89291457
Nb       3.64023784       6.15128512       6.16686588       0.00000000 8065027.04905262 -2000613.06433158 -1974195.76859610
O        4.06994938       6.75100571       7.00444423       1.00000000 -263325.46137036  142493.68802478  138082.94071215
O        3.91448430       6.05341424       6.07755454       1.00000000 -7717812.31671570 1948416.74694889 1448094.08444102
