51
Lattice="12.336457 0.0 0.0 -6.168228499999997 10.683685154694365 0.0 0.0 0.0 15.0" Properties=species:S:1:pos:R:3:initial_magmoms:R:1:forces:R:3 energy=-450.7799441133692 free_energy=-450.7799441133692 stress="-0.004684940108255434 -0.003046458332099185 2.0373533056584228e-05 -0.003046458332099185 -0.004267026131354709 0.0002560073676032779 2.0373533056584228e-05 0.0002560073676032779 0.0014102138158578437" pbc="T T T"
C        0.00908214       0.02309604       3.73323505       0.00000000      -0.02112305      -0.05985330       0.04484278
C       -1.26054471       2.14711555       3.96923271       0.00000000       0.00491085       0.00325135       0.04442682
C       -2.51716154       4.29398435       4.07249222       0.00000000      -0.00134463      -0.03169150      -0.01909314
C       -3.68918418       6.44093606       3.93380199       0.00000000       0.03850958      -0.00427392      -0.05488842
C       -4.89907080       8.57732410       3.77210166       0.00000000       0.01297836       0.03565857      -0.00823503
C        2.49508848      -0.02108863       3.67913122       0.00000000       0.01309070      -0.00058928       0.05420129
C        1.22714326       2.08369585       3.56725335       0.00000000      -0.01712258       0.00443462      -0.04498946
C       -0.27064625       4.32937138       4.71936438       0.00000000       0.26956935       0.13140889       0.10490177
C       -1.25344216       6.44861312       4.24021419       0.00000000       0.02409115      -0.00388071       0.02731436
C       -2.42629881       8.55353384       3.88329852       0.00000000      -0.00865053      -0.00268658      -0.01295812
C        4.96089237      -0.00789358       3.61226300       0.00000000       0.04143083       0.05299442       0.06951199
C        3.69401983       2.07735787       3.32780158       0.00000000      -0.01398349       0.02137160       0.00958317
B        1.33966754       6.45671802       4.52617031       0.00000000       0.03760658       0.07782687      -0.10000845
C        0.05883712       8.54621824       3.90212995       0.00000000      -0.02378247       0.00068183       0.04656550
C        7.41690231       0.00576505       3.62908071       0.00000000       0.00094815       0.03213413      -0.02661143
C        6.16623561       2.16507351       3.49124475       0.00000000      -0.00324143       0.00660309      -0.05307716
C        5.04277539       4.39805920       3.21756554       0.00000000       0.01969191      -0.05069482       0.00138644
N        3.87469105       6.52721430       3.02516142       0.00000000      -0.08673195      -0.07892869       0.03989355
C        2.50509024       8.53366406       3.61907673       0.00000000      -0.01752576       0.01684576      -0.01188293
C        9.87344402       0.01873954       3.64197165       0.00000000       0.04246081      -0.03177287       0.03800900
C        8.62371548       2.15984635       3.73029016       0.00000000       0.00212066      -0.03536789       0.01499329
C        7.40641627       4.31026439       3.68098248       0.00000000       0.00422249       0.01232707       0.01720266
C        6.23227836       6.47661223       3.57511779       0.00000000      -0.04486709       0.06065481      -0.02599646
C        4.97439650       8.57917330       3.55947476       0.00000000       0.01106131      -0.00372290      -0.02776742
C       -0.02429443       1.43195316       3.83286681       0.00000000      -0.01923813      -0.01117403       0.03509549
C       -1.32717158       3.55256334       4.26840024       0.00000000      -0.01771253      -0.01640442       0.01123831
C       -2.48194803       5.72664082       4.09844601       0.00000000       0.02893422      -0.03007313       0.01789840
C       -3.66937033       7.85995148       3.88440434       0.00000000      -0.00034646      -0.00381275      -0.02364329
C       -4.91713931       9.99268474       3.73050787       0.00000000       0.00871834      -0.02258869       0.02651566
C        2.49539069       1.38326582       3.56195346       0.00000000      -0.02526980       0.03302387       0.02051573
O        1.18640569       3.26704741       3.02282816       0.00000000       0.01681876      -0.01340822       0.04671060
C       -0.06602257       5.70875048       4.54447558       0.00000000       0.27756238      -0.07776540       0.03046688
C       -1.19587534       7.85022687       4.02380906       0.00000000      -0.02047294      -0.01194839      -0.01865665
C       -2.43070858       9.96416397       3.71405914       0.00000000       0.03761379       0.01678485      -0.00385049
C        4.94825033       1.42943620       3.45188905       0.00000000       0.00204451       0.04405681      -0.02872180
S        3.52710561       3.75318262       2.84171054       0.00000000      -0.10250955       0.06627249       0.05090601
C        1.31163925       7.86458644       3.98005538       0.00000000      -0.04630073       0.00297992       0.01564399
C        0.03050250       9.96638304       3.69472648       0.00000000       0.00699506       0.02918719      -0.01894357
C        7.39635159       1.44709092       3.60470743       0.00000000      -0.03141169       0.01731645      -0.01630108
C        6.17459047       3.60816405       3.46534899       0.00000000       0.03616171      -0.00712802      -0.04413329
C        5.01046158       5.83387188       3.24829774       0.00000000       0.01899190      -0.06729900      -0.01711715
C        3.77194672       7.82305991       3.37699614       0.00000000       0.01312482      -0.02154895       0.00285104
C        2.48517253       9.96588842       3.60552403       0.00000000       0.01876304       0.02064109      -0.03453766
C        9.85972184       1.44270960       3.77959329       0.00000000       0.03137414      -0.02080359      -0.00734212
C        8.61448308       3.58584703       3.81786760       0.00000000      -0.00758916      -0.03798881       0.03648172
C        7.42379988       5.73145447       3.75136126       0.00000000      -0.01770055       0.03883424      -0.06667471
C        6.21194436       7.88286042       3.65069363       0.00000000       0.02146141       0.08131243      -0.01567258
C        4.94386777       9.99659167       3.65286862       0.00000000       0.02518207      -0.05455198       0.02749081
Nb       1.73164354       4.11331298       4.94973962       0.00000000       0.61676459      -0.33301649       1.32128728
O        1.71923050       3.61538096       6.67496928       1.00000000       0.02848371      -0.29755677      -1.51479987
O        2.55730844       5.85151482       5.00564902       1.00000000      -1.18476265       0.52392875       0.03996774
