52
Lattice="12.336457 0.0 0.0 -6.168228499999997 10.683685154694365 0.0 0.0 0.0 15.0" Properties=species:S:1:pos:R:3:forces:R:3 energy=-454.26216230820177 free_energy=-454.26216230820177 stress="-0.006767508953626969 0.0025162982765919726 5.74475188108123e-05 0.0025162982765919726 -0.007462818375677243 1.2802179159537705e-05 5.74475188108123e-05 1.2802179159537705e-05 3.059261731871549e-05" pbc="T T T"
C        0.02297400      -0.02049369       3.66023307       0.00310790       0.00274806       0.00056622
C       -1.19657244       2.13323043       3.53224507      -0.01614451      -0.00161269       0.00496646
C       -2.44155953       4.26643354       3.69920984      -0.00829689      -0.00064240       0.00513329
C       -3.68812399       6.40039611       3.81453457      -0.00032894       0.00093032      -0.01317336
C       -4.91998934       8.52908949       3.81694770      -0.00769034       0.00314265      -0.00542090
C        2.48914381      -0.02744081       3.67656491      -0.00165405      -0.00444605       0.00215591
C        1.27431427       2.03629957       3.28019084       0.00802399      -0.00892315       0.01321789
C       -0.01348471       4.31231618       3.47627388       0.00374674       0.00372250      -0.00423227
C       -1.24919601       6.43064588       3.72971155       0.00179943      -0.00239793      -0.00566688
C       -2.45621058       8.54501548       3.78232098      -0.00548054       0.00328085       0.00109348
C        4.96020802      -0.00719903       3.74165378      -0.00637907       0.00277836      -0.00426452
C        3.73366918       2.12349758       3.71792022       0.00565115       0.00114301       0.00244340
C        1.19804575       6.45340154       3.85872493      -0.00423280       0.00923872      -0.00568654
C        0.01173370       8.55757526       3.80521970      -0.00473078      -0.00048118      -0.00693460
C        7.43056866      -0.00132217       3.77205127       0.00552900       0.01061413      -0.00586575
C        6.21053915       2.11741485       3.77471404       0.00912233      -0.01044274       0.00344644
C        4.99214621       4.23193335       3.96119516       0.00010270      -0.00083595      -0.00155169
B        3.66446676       6.37362674       4.19007186       0.01003582      -0.00313801      -0.00086912
C        2.48674474       8.57046616       3.91456254       0.00372300      -0.00110932      -0.00730553
C        9.90190173      -0.00017182       3.74677825       0.01103568      -0.00253567       0.00332005
C        8.67277589       2.12935452       3.71828195       0.00951763       0.00396942      -0.01483397
C        7.44162540       4.25816748       3.82602187      -0.00110220      -0.00490391      -0.00073463
C        6.19357788       6.39273128       3.95218067       0.00014396       0.00427752       0.00427733
C        4.95594971       8.53825851       3.91253181      -0.00181088       0.00128994       0.00256681
C        0.02648510       1.39906664       3.47543339      -0.00213376      -0.00172329       0.01876946
C       -1.21529184       3.54869115       3.56656791      -0.00879046       0.00178304       0.01767948
C       -2.45754668       5.69531602       3.74431213       0.00115401      -0.00162117      -0.00165372
C       -3.68678803       7.82445779       3.81057863      -0.00422823       0.00033336      -0.00580168
C       -4.91517040       9.95004417       3.71353042       0.00209051      -0.00169798       0.00460040
C        2.50168455       1.39063750       3.55523692       0.00898261      -0.00906705       0.00772421
S        1.28715756       3.60937707       2.50601822       0.00884597       0.00239163       0.00398912
C       -0.00901720       5.73870252       3.69050393       0.00738844       0.00611909      -0.00691217
C       -1.22534480       7.84589504       3.78082367      -0.00483889       0.00007911      -0.00298146
C       -2.44458140       9.96089420       3.74555708      -0.00536416       0.00242336      -0.00313840
C        4.97142682       1.40822919       3.73690666       0.00179119       0.00150788       0.00429976
C        3.78421282       3.49631728       3.94714411      -0.01168444       0.00578243       0.00664147
C        1.25176751       7.85631658       3.86830469      -0.00020744       0.00430560      -0.00793930
C        0.02416365       9.97112229       3.77724888      -0.00378513       0.00207816      -0.00393284
C        7.44107863       1.41399883       3.75021872       0.01763510       0.00624376      -0.00023595
C        6.22519412       3.53198091       3.84806721       0.00246220      -0.01133813      -0.00664153
C        4.98702688       5.65159108       4.04884901       0.00467523      -0.00201919      -0.00002217
C        3.71051680       7.85928210       4.01600274       0.00234686      -0.00725157       0.00144491
C        2.49526451       9.98386631       3.81150313       0.00730074       0.00239305       0.00176758
C        9.91029822       1.42327345       3.65990678      -0.00417314      -0.00023648       0.00840964
C        8.67089253       3.55058993       3.74496184      -0.00171222      -0.00165951       0.00008871
C        7.42873575       5.68341801       3.86635719      -0.00669967      -0.00061291       0.00128264
C        6.18644505       7.81856094       3.90551985      -0.00791247       0.00633560       0.01011747
C        4.95916339       9.96144708       3.77674224       0.00510421       0.00272554      -0.00117558
Nb       2.13372816       4.76448758       4.55656848       0.00956858      -0.00291795      -0.00417942
O        1.84380127       4.88798084       6.35672161      -0.01334825      -0.01126936      -0.00163878
O        1.64265653       5.00794674       7.75210172      -0.00911732       0.00189144      -0.00458915
H        2.52195109       4.76263209       8.11098142      -0.00903842      -0.00064494      -0.00262027
