52
Lattice="12.336457 0.0 0.0 -6.168228499999997 10.683685154694365 0.0 0.0 0.0 15.0" Properties=species:S:1:pos:R:3:forces:R:3 energy=-456.8578287916533 free_energy=-456.8578287916533 stress="-0.005401656586726911 -0.0006750655589937984 -2.6069102507020058e-06 -0.0006750655589937984 -0.002813411218428093 2.013373131860963e-06 -2.6069102507020058e-06 2.013373131860963e-06 -1.56257194254332e-05" pbc="T T T"
C       -0.00508935      -0.02084375       3.66381375       0.00190955      -0.00299507       0.00197877
C       -1.25208102       2.10725795       3.59465352       0.00036248      -0.00568686      -0.00462603
C       -2.47983900       4.25694163       3.58300555       0.00346184       0.00033454       0.00643921
C       -3.70194478       6.39448350       3.63358449       0.00518927      -0.00317772       0.01082824
C       -4.93646128       8.53275882       3.69750551       0.00438409      -0.00045238      -0.00658409
C        2.45564704      -0.00047655       3.69739940      -0.00050380       0.00064619       0.00184245
C        1.19452142       2.07771554       3.73960981      -0.00122256      -0.00490065       0.00146432
C       -0.07093759       4.24064632       3.73120977      -0.01063740       0.00562166       0.00102933
C       -1.24488228       6.38938552       3.63530480       0.00207098       0.00203451      -0.00152921
C       -2.47401217       8.53642111       3.63967860       0.00434487      -0.00205749       0.00521015
C        4.92745097      -0.01328719       3.68554366      -0.00507990       0.00021488      -0.00200616
C        3.69644715       2.14289131       3.87640821      -0.00098842       0.00305987      -0.00069743
C        1.19971299       6.38357670       3.97311834       0.00552432      -0.00167081      -0.00472562
C       -0.00638298       8.52264186       3.70619454      -0.00391638       0.00277916       0.01115385
C        7.39282250      -0.02302895       3.66036678       0.00548213       0.00316554      -0.00290257
C        6.17193910       2.10931141       3.71014266      -0.00297824       0.00514561      -0.00053183
C        4.98318693       4.23579581       3.97959088      -0.00198977       0.00055367       0.00113028
B        3.69380783       6.40569072       4.20696407       0.00280326      -0.00214740       0.00363566
C        2.45491165       8.54149805       3.83462892      -0.00250869      -0.00581110      -0.00139073
C        9.86056861      -0.02397966       3.65343492       0.00294258       0.00170774       0.01861704
C        8.62674769       2.11286017       3.59500792       0.00242393       0.00378060       0.00248177
C        7.41114704       4.25214710       3.68278695       0.00265338      -0.00104302      -0.00604336
C        6.18715040       6.39400201       3.84029594      -0.00475802       0.00038567      -0.00252311
C        4.93852996       8.53618973       3.81375082      -0.00544034       0.00236966      -0.00632819
C       -0.01644612       1.40467389       3.63898638      -0.00135671      -0.00565788       0.00509472
C       -1.25416640       3.52882732       3.60214293      -0.00295621      -0.00320303      -0.00481773
C       -2.46768206       5.67903144       3.59752906       0.00610040      -0.00155184       0.00216300
C       -3.70358668       7.82108086       3.64930086       0.00620305      -0.00060363      -0.00088091
C       -4.93795538       9.96338697       3.68297094       0.00156028       0.00049487      -0.01465194
C        2.44165988       1.43252034       3.77415189       0.00163296       0.00133857      -0.00084474
O        1.13380505       3.49157722       3.76496417      -0.00417456      -0.00188490       0.00200468
C       -0.01089715       5.65947669       3.76065063      -0.00190176       0.00566826       0.01677900
C       -1.24096002       7.81494968       3.65125868       0.00087318      -0.00180758      -0.00196828
C       -2.47773408       9.96339660       3.67370758      -0.00385947      -0.00262904      -0.00195044
C        4.92739615       1.40819564       3.74849669      -0.00349820       0.00140955      -0.01275264
C        3.77461621       3.51961014       4.11194078       0.00242062       0.00135703       0.00966042
C        1.23043402       7.79933432       3.83870941      -0.00422010      -0.00191497      -0.00219670
C       -0.00773615       9.94632110       3.67656682      -0.00004704       0.00409870      -0.00421645
C        7.39834503       1.39741679       3.63638780       0.00054195       0.00805754      -0.00319298
C        6.19871191       3.52647104       3.77210825      -0.00230393       0.00475080      -0.00548033
C        4.98985532       5.65453725       4.02636294      -0.00531078       0.00036660      -0.00441872
C        3.69409293       7.86374982       3.94459431      -0.00367856      -0.00413867       0.00579247
C        2.45592715       9.95620884       3.69952088       0.00455532      -0.00340145      -0.00080066
C        9.86346142       1.40113361       3.59229202       0.00052920      -0.00246067      -0.00050387
C        8.63337727       3.53951856       3.59737928       0.00387535       0.00156543      -0.00276801
C        7.41336025       5.68090440       3.70983952       0.00120267      -0.00117465      -0.00731949
C        6.17388945       7.82038817       3.79032786      -0.00157726       0.00234799       0.00118134
C        4.93059845       9.95345548       3.69765931       0.00213347      -0.00000167      -0.00871798
Nb       2.31446174       4.86271899       4.88007132      -0.00123772      -0.00473743      -0.00012659
O        2.37343798       5.18335253       6.64777563      -0.00566008       0.00361360       0.00900512
O        2.39325476       5.47661744       8.03263352       0.00578854       0.00201133      -0.00642706
H        3.01653533       4.80011177       8.37139082       0.00083624      -0.00376965       0.00643206
