51
Lattice="12.336457 0.0 0.0 -6.168228499999997 10.683685154694365 0.0 0.0 0.0 15.0" Properties=species:S:1:pos:R:3:initial_magmoms:R:1:forces:R:3 energy=-710294.1674205129 free_energy=-710294.1674205129 stress="1373.2608312134435 -617.3471231388259 271.63890571785356 -617.3471231388259 1455.121585822989 -524.8924108400525 271.63890571785356 -524.8924108400525 234.86849996247238" pbc="T T T"
C        0.77095601       1.60540671       2.27362288       0.00000000    -367.29084078      78.94677413    -484.79246461
C       -5.12772759       4.72168081       1.29711137       0.00000000       0.14570301      26.63642158      96.39485309
C       -2.20273146       6.58908339       7.30245097       0.00000000     -66.69169134      -5.52124215      58.64216071
C       -2.62196719       8.91934560       7.09355962       0.00000000       1.50993475      20.69645170      -2.21133735
C       -7.43786256       4.75475886       4.99305640       0.00000000  -82967.68545445    -664.07313346   -4521.25930800
C        4.77907918      -6.11056828       6.76785747       0.00000000     543.83846784      32.99530417    -228.77934206
C        0.23191619       3.02830094       1.03235248       0.00000000     198.68597635     -88.52162952     392.62032154
C       -3.50610215       3.17501688       5.07310664       0.00000000     -14.88569922     -26.21543691     -26.29698431
C       -7.56565714      13.39491105      -4.62840174       0.00000000      99.64743755      31.78987828     -50.61937631
C       -1.30174186      10.48757618       1.95689879       0.00000000       4.58329089     -20.27088418     -84.51295884
C        8.16608763       5.26148125      -2.27125187       0.00000000       0.07086999       0.13326744      -0.30891903
C        3.47856303       4.75887504       0.98394772       0.00000000    -238.91433812     539.63386887     103.68878306
O        1.84268318       5.46039320       4.56824084       0.00000000 2059893.89583072 -1174583.20650313  552593.27960774
C        0.99604821      10.44927236       9.18326330       0.00000000      -0.24936566      13.19841059      -1.50614992
C        6.23017870       0.98332801      12.24083584       0.00000000       5.42867453      -0.37327071       2.72416260
C        0.62904392      -2.55854220       1.96726964       0.00000000      22.68795811      -7.22532922      13.05894642
C        2.97536720      -9.92805849      16.58719484       0.00000000       3.55803059      26.86276514      -1.19338638
S        3.56568315       6.37753910      -0.08931550       0.00000000     -89.73945370    -642.12580471     701.14871834
C        1.78199901       6.54557836       3.97948168       0.00000000   90047.04921770  -77541.71866370   52487.51354192
C        7.92224987       0.99607787      12.89404237       0.00000000      -6.34843808      -0.29151005      -1.80074802
C        6.16674663       0.20956765      -0.05676223       0.00000000       5.91033729       2.43196556      -3.17655122
C        5.40739791       6.02529922       0.47190302       0.00000000     256.88936342      59.52515248    -189.79630320
C       14.33428855       7.21041234       9.51930162       0.00000000      60.90377512    -151.72267594      51.82588432
C        7.05518102       9.06356800       5.55770640       0.00000000    -142.45958343     -32.38048530      47.71490266
C       -1.26608409       0.35503578       0.45288099       0.00000000     -14.78169318      -7.25937106     -22.50462514
C       -2.25764163       0.59436635       3.65954589       0.00000000       9.16595762      31.66251187       7.11294413
C       -1.04469720      10.40054414       3.49221397       0.00000000     -22.50393472    -263.42152252     232.70900617
C       -8.27008330      13.18249877      10.73530437       0.00000000    -100.82833893     -30.26444620      51.96228517
C       -2.53252342      10.50480942      -3.35910061       0.00000000       0.19534439       0.41118261       0.10784904
C        1.30786896       7.63809281      -1.02338039       0.00000000     -20.15949138       5.79561741     -27.59980726
B        2.57101331       2.74086319       3.44782407       0.00000000   -2112.55558427  -21616.68068627   -9330.71396668
C        1.97791818       8.04597962       5.20629038       0.00000000    -938.20931041    6684.67676428    4521.46847533
C        1.62716735       7.74861622       6.68300505       0.00000000    -341.28437832    1047.86355940   -1371.43917521
C       -6.16496892       5.18367572       6.25136852       0.00000000   -1016.80570822     187.39960871    -270.72247733
C        5.45645279      -1.53834061       1.31963355       0.00000000      15.50685978      12.95779799      12.96999698
B       13.13281145       0.53786807       0.59589437       0.00000000     -13.77790088     138.48421126     235.55778824
C        0.44589948      10.77886062       3.52811254       0.00000000     101.03982539     -47.38153847     -22.32166335
C       -0.62093622       9.46269210       4.20866491       0.00000000     143.96424578     -68.84258837    -177.41172927
C        5.06195434       2.35286319       4.91141521       0.00000000   -3230.14364420    3951.18374050     171.67280035
C        6.36685538       4.28146444       1.15513513       0.00000000     -50.16429420    -128.48366467     138.65737838
C       13.57547081       2.53853131       7.12431089       0.00000000     326.72540796    -621.69514403   -1401.97557889
C        2.98742630       6.53434788       3.40588738       0.00000000  -19197.04535195  -77527.38066625   87198.99661230
C        1.32512411      12.11543533       9.20490805       0.00000000      -1.77198251      -7.32976388      -4.35131129
C       11.48477813      -2.20469846      -8.86604930       0.00000000    -361.58369522    -487.75482257    -394.52311986
C        8.15462648       3.41868370       2.00814587       0.00000000     -16.10657146      13.97661589     -16.56424549
C        3.62840649      10.55573640       0.75664347       0.00000000       4.35657406      17.15238355     -16.75516685
C        9.33369496      10.67988997      -0.55775484       0.00000000      -6.77264986       3.75123013      -0.58281635
C        3.99261378       3.71354033       7.50381645       0.00000000     779.58395881     -95.34691535    -849.08610973
Nb       2.95557015       5.03575401       4.79880238       0.00000000 -657129.99198647 -6385883.69987767  876560.22781116
O        2.09643483       3.86568204       5.33417632       1.00000000  183839.06640105  135112.97970181 -152254.50502392
O        2.94671536       4.76627007       4.86341316       1.00000000 -1567895.65806172 7592508.04239096 -1403922.74418375
