52
Lattice="12.336457 0.0 0.0 -6.168228499999997 10.683685154694365 0.0 0.0 0.0 15.0" Properties=species:S:1:pos:R:3:initial_magmoms:R:1:forces:R:3 energy=-462.26296609767314 free_energy=-462.26296609767314 stress="-0.004131145933827807 0.0026747873787500947 3.624051689944677e-05 0.0026747873787500947 -0.005564246840702485 1.2700164318644947e-05 3.624051689944677e-05 1.2700164318644947e-05 0.00013225796679532489" pbc="T T T"
C       -0.05090597      -0.09868406       3.61677453       0.00000000       0.00293535       0.00195579       0.00145152
C       -1.27023264       2.04391215       3.58432789       0.00000000       0.00181756      -0.00064811      -0.00040429
C       -2.50378782       4.17927763       3.62931128       0.00000000      -0.00109247       0.00032850       0.00248820
C       -3.75127094       6.30892711       3.69653969       0.00000000      -0.00098469       0.00142890       0.00514190
C       -4.99982166       8.43864985       3.70520005       0.00000000      -0.00311459       0.00033279      -0.00374533
C        2.41357543      -0.10313948       3.62206756       0.00000000      -0.00079864       0.00091141      -0.00040951
C        1.19503707       2.04753098       3.71887311       0.00000000      -0.00124942       0.00606551       0.00006584
C       -0.05303242       4.17416574       3.79064505       0.00000000       0.00236747       0.00304685       0.01432736
C       -1.27848210       6.31712160       3.73497735       0.00000000       0.00445541      -0.00313495      -0.00006873
C       -2.52479216       8.44779689       3.62477203       0.00000000       0.00031627      -0.00130732      -0.00220067
C        4.88532929      -0.09895487       3.49104227       0.00000000       0.00009054      -0.00058172       0.00001098
C        3.66865794       2.01618555       3.65490495       0.00000000      -0.00012581      -0.00124514      -0.00102003
B        2.48424542       4.25255242       3.97028575       0.00000000      -0.00569640      -0.01470937      -0.01756352
B        1.25610813       6.34872981       4.03464368       0.00000000      -0.00684241       0.01022328      -0.02677613
C       -0.06414892       8.47081242       3.55305639       0.00000000       0.00217601      -0.00009198       0.00101433
C        7.35389367      -0.08085188       3.37433295       0.00000000       0.00008920      -0.00142302       0.00293658
C        6.14066080       2.02461550       3.49573459       0.00000000       0.00162784       0.00026625      -0.00412082
C        4.95235966       4.11945878       3.79728264       0.00000000      -0.00006607      -0.00106905      -0.00804390
P        3.24940037       6.09820692       4.33940520       0.00000000      -0.01166773      -0.00422725      -0.00040086
C        2.40655565       8.50933780       3.53704757       0.00000000      -0.00102271      -0.00203302       0.00060170
C        9.83440704      -0.08196010       3.45422340       0.00000000       0.00031581      -0.00053468      -0.00240680
C        8.60536181       2.04588744       3.45494483       0.00000000       0.00090953       0.00215053       0.00372525
C        7.38144536       4.17119912       3.62519546       0.00000000      -0.00016312       0.00149483       0.00814338
C        6.10910988       6.29347940       3.85039249       0.00000000       0.00099323      -0.00092822       0.00017474
C        4.86626843       8.44052612       3.70481446       0.00000000       0.00091103       0.00040722      -0.00214328
C       -0.04096353       1.32908473       3.63269081       0.00000000       0.00177176       0.00082977       0.00376704
C       -1.27781040       3.46373209       3.65895532       0.00000000       0.00304258       0.00204627      -0.00215683
C       -2.51302984       5.60244691       3.68529733       0.00000000      -0.00059793      -0.00009276       0.00273243
C       -3.76025485       7.73341526       3.68717608       0.00000000      -0.00306878       0.00113873      -0.00227172
C       -4.99078360       9.86553702       3.65192004       0.00000000       0.00003263      -0.00000327       0.00363417
C        2.42207616       1.31767401       3.66471236       0.00000000      -0.00223725      -0.00063053       0.00618126
C        1.18295494       3.47226058       3.83055634       0.00000000      -0.00004158       0.01309978       0.01932826
C       -0.05624711       5.59224784       3.84668116       0.00000000       0.01942676      -0.00517650       0.02081921
C       -1.29293471       7.74531455       3.64575242       0.00000000       0.00097374      -0.00112478      -0.00533726
C       -2.52109980       9.87127795       3.57275105       0.00000000      -0.00033451       0.00000724       0.00004160
C        4.90108431       1.31473500       3.52535724       0.00000000       0.00101025      -0.00083290      -0.00309809
C        3.72293027       3.41659500       3.79313426       0.00000000       0.00165624      -0.00334258       0.00065585
C        1.17930185       7.81314304       3.64557622       0.00000000       0.00013331       0.00310147      -0.00021115
C       -0.05272973       9.88866728       3.43761119       0.00000000       0.00037651      -0.00057164       0.00063429
C        7.36908608       1.33212728       3.40850794       0.00000000       0.00222768      -0.00027522       0.00256625
C        6.17019279       3.43589261       3.61846620       0.00000000       0.00004725       0.00076936      -0.00354570
C        4.92571954       5.52027417       3.98208529       0.00000000       0.00184427      -0.00034262      -0.00277169
C        3.60391601       7.79111908       3.74934200       0.00000000       0.00316677       0.00059064       0.00043120
C        2.42485419       9.91533772       3.39196692       0.00000000      -0.00110238      -0.00473730      -0.00045278
C        9.83732432       1.33794915       3.47379715       0.00000000       0.00144929       0.00072599      -0.00141825
C        8.60864563       3.46482984       3.55225641       0.00000000      -0.00117797       0.00296532       0.00023134
C        7.35690743       5.59225398       3.72784376       0.00000000       0.00040932       0.00147080       0.00058933
C        6.10346750       7.72533295       3.77991713       0.00000000      -0.00049067      -0.00076606      -0.00466196
C        4.88477361       9.87330771       3.57754954       0.00000000       0.00279974       0.00222496       0.00296387
Nb       2.11767646       6.51698817       6.64327308       0.00000000       0.03007859       0.02713685      -0.04121059
O        3.08217468       5.73572755       7.89498292       1.00000000      -0.00525924       0.00233204      -0.19556811
O        2.39170631       8.26246765       6.73835893       1.00000000      -0.04231755      -0.03722109       0.22735011
