51
Lattice="12.336457 0.0 0.0 -6.168228499999997 10.683685154694365 0.0 0.0 0.0 15.0" Properties=species:S:1:pos:R:3:initial_magmoms:R:1:forces:R:3 energy=-454.4888674831118 free_energy=-454.4888674831118 stress="-0.0010777157249741854 -0.002719838850313316 -1.4980275489176509e-05 -0.002719838850313316 -0.00021240619388977302 0.0001194634528966648 -1.4980275489176509e-05 0.0001194634528966648 -0.0004796942357723248" pbc="T T T"
C        0.02199837       0.00202741       3.79789504       0.00000000      -0.00120270      -0.00251229       0.00128926
C       -1.23076605       2.11993971       3.69810696       0.00000000       0.00335220       0.00029225       0.00536704
C       -2.45837301       4.27000470       3.51217172       0.00000000       0.00020258       0.00285640       0.00155636
C       -3.68427415       6.41974766       3.53344143       0.00000000      -0.00275232       0.00005127      -0.00001374
C       -4.90511137       8.55910634       3.68916416       0.00000000       0.00196529      -0.00000045       0.00243804
C        2.48244644       0.02318338       3.73116663       0.00000000       0.00226631      -0.00175889      -0.00014214
C        1.21563932       2.12641687       3.92584782       0.00000000       0.00080789       0.00203832      -0.00259087
C       -0.03471855       4.21539423       3.58502735       0.00000000      -0.00766084      -0.00303748      -0.00108557
C       -1.22185570       6.39723586       3.39316521       0.00000000       0.00076282       0.00439591       0.00079682
C       -2.44229601       8.55328507       3.51428702       0.00000000      -0.00180558      -0.00211263       0.00233578
C        4.95158507       0.00314878       3.62828760       0.00000000       0.00078063      -0.00053124      -0.00009634
C        3.72100286       2.10550155       3.99669577       0.00000000      -0.00117828      -0.00580189       0.00173897
B        1.23022567       6.41839095       3.54643766       0.00000000      -0.06433673       0.08265656      -0.03868029
C        0.02431736       8.55683833       3.47944357       0.00000000      -0.00257153       0.00087552       0.00105214
C        7.42329617       0.00063728       3.64976886       0.00000000      -0.00121742      -0.00214306       0.00189629
C        6.18228024       2.14835970       3.75240126       0.00000000      -0.00158763       0.00131801      -0.00056374
C        5.01517781       4.33337248       4.00545469       0.00000000       0.00078444       0.00382136       0.00356205
N        3.77928637       6.44544297       4.28810889       0.00000000       0.00216931       0.00116334       0.04503961
C        2.51525492       8.54083640       3.76375574       0.00000000       0.00131224       0.00071698      -0.00141110
C        9.88819295      -0.00664162       3.76884835       0.00000000      -0.00125191       0.00404582       0.00017213
C        8.64753971       2.13902796       3.64892755       0.00000000      -0.00040380      -0.00184793      -0.00381663
C        7.42552109       4.29219771       3.64416783       0.00000000      -0.00015630       0.00150066       0.00110173
C        6.19522683       6.44065930       3.80491743       0.00000000       0.00157576       0.00201390      -0.00245041
C        4.96457322       8.53695738       3.87655117       0.00000000      -0.00001999      -0.00129449      -0.00032572
C        0.01440357       1.43412813       3.80905051       0.00000000       0.00139039      -0.00102639      -0.00029236
C       -1.23506441       3.52506484       3.55953729       0.00000000      -0.00345561      -0.00104236      -0.00180992
C       -2.45510835       5.69486273       3.45277631       0.00000000       0.00199180       0.00348633      -0.00068394
C       -3.67680557       7.84495188       3.56393076       0.00000000      -0.00236692      -0.00125815       0.00273964
C       -4.91011102       9.98742148       3.73882264       0.00000000       0.00118005      -0.00060023      -0.00123455
C        2.46891400       1.45902979       3.89746110       0.00000000      -0.00008878       0.00058528      -0.00234789
O        1.15353115       3.55068432       3.95791696       0.00000000      -0.00385202       0.00995687       0.00151337
C       -0.00136098       5.61957963       3.44518500       0.00000000      -0.00886230      -0.00038016       0.00449781
C       -1.20353592       7.82754220       3.43704415       0.00000000      -0.00047960       0.00167076       0.00043152
C       -2.45200488       9.98323361       3.61426732       0.00000000       0.00221834      -0.00216110       0.00117569
C        4.94148528       1.42790711       3.78737910       0.00000000       0.00133911      -0.00017486      -0.00071700
B        3.87926711       3.50470718       4.51982087       0.00000000       0.06906853      -0.06338403      -0.01849979
C        1.28596852       7.87039437       3.54697885       0.00000000       0.00255044       0.00482630       0.00193408
C        0.01854091       9.97925096       3.56771816       0.00000000      -0.00111363      -0.00116152       0.00074519
C        7.41217318       1.42992208       3.67238911       0.00000000      -0.00170712      -0.00207777      -0.00062603
C        6.19513602       3.58857380       3.78491923       0.00000000       0.00214074      -0.00153296      -0.00171540
C        4.95828306       5.75368939       4.03432689       0.00000000       0.00385921       0.00051035       0.00739425
C        3.73951080       7.79362073       3.98356962       0.00000000      -0.00166061       0.00107890      -0.00004425
C        2.49617258       9.96920288       3.72864059       0.00000000      -0.00083617       0.00307124      -0.00273924
C        9.88293341       1.41936465       3.69893907       0.00000000       0.00176981       0.00214244       0.00125800
C        8.64819952       3.56603018       3.58770075       0.00000000       0.00026344      -0.00048129      -0.00362525
C        7.41610450       5.71642366       3.64816203       0.00000000      -0.00050588      -0.00014678       0.00038735
C        6.19970957       7.84953474       3.79916885       0.00000000       0.00090397      -0.00054877      -0.00039822
C        4.95479556       9.96103556       3.81574533       0.00000000      -0.00273350       0.00078849       0.00029819
Nb       2.01244511       5.21007304       5.22125440       0.00000000       0.15928803       0.26432544      -0.98529107
O        0.73413813       5.51417763       6.36887691       1.00000000       0.03860650       0.07862287       0.67532347
O        3.32796650       3.91593317       5.75548197       1.00000000      -0.18874263      -0.38179485       0.30515669
