52
Lattice="12.336457 0.0 0.0 -6.168228499999997 10.683685154694365 0.0 0.0 0.0 15.0" Properties=species:S:1:pos:R:3:forces:R:3 energy=-456.7484042566749 free_energy=-456.7484042566749 stress="-0.005880355836396245 -0.0010228745050988458 1.46397560943017e-05 -0.0010228745050988458 -0.002502876306311998 3.684807569574322e-05 1.46397560943017e-05 3.684807569574322e-05 2.0818645675573188e-05" pbc="T T T"
C        0.00291716       0.02982536       3.71122911      -0.00799469       0.00187958       0.00018451
C       -1.24673087       2.14371091       3.71928185      -0.00588301      -0.00254729       0.00456464
C       -2.48641503       4.28435230       3.64579267       0.00666651       0.00146480      -0.00502329
C       -3.70601980       6.43181245       3.59196076       0.00141127       0.00059321      -0.00021425
C       -4.93219589       8.57630994       3.63436266      -0.00133846      -0.00351829       0.00548083
C        2.46911867       0.03206344       3.73489997       0.00073474      -0.00323733       0.00700947
C        1.22782234       2.16628264       3.94941092      -0.00373786      -0.00050830      -0.00595203
C       -0.05663862       4.26649206       3.98638456       0.00375048      -0.00508441      -0.00185056
C       -1.26857214       6.43137545       3.78274686       0.00361692       0.00274137       0.01089038
C       -2.46748821       8.57439907       3.66618488       0.00169197      -0.00047639       0.00124801
C        4.93527519       0.02445300       3.67206002       0.00869470       0.00116615      -0.01001699
C        3.70649788       2.16395307       3.83037734       0.00444862       0.00740715       0.00090637
B        1.16095811       6.45116818       4.19893265      -0.01249489       0.00633557      -0.00866961
C       -0.00180647       8.56921686       3.77172070      -0.00381265      -0.00175414      -0.00429287
C        7.40856386       0.00778729       3.63107524      -0.00143488       0.00020807       0.00652080
C        6.17196594       2.15304259       3.60529722       0.00085904       0.00065353      -0.01114854
C        4.95535322       4.30984558       3.75672978      -0.00120660       0.00672096       0.01019758
O        3.79745220       6.47418524       3.99310536       0.01111363      -0.01271294      -0.01060211
C        2.49998947       8.55081337       3.80389666       0.00489434       0.00700141      -0.01116351
C        9.87172614       0.00805216       3.64473780       0.00292043       0.00246909       0.01267463
C        8.63338985       2.14720738       3.57164108       0.00119990      -0.00414668       0.00082083
C        7.39909641       4.29441998       3.55310085      -0.00646150       0.00145174      -0.00420182
C        6.17826346       6.44698844       3.62119298      -0.00455117       0.00367283       0.00219617
C        4.94802337       8.56419215       3.69833256       0.00120353      -0.00074422       0.00580144
C       -0.00496812       1.44652766       3.79143014      -0.00715232       0.00107045      -0.01724709
C       -1.26997408       3.56005420       3.76286986       0.00383001      -0.00379978       0.00654395
C       -2.48794700       5.71422248       3.65506366       0.00660455       0.00520351       0.00632437
C       -3.69789817       7.86049286       3.62187198       0.00099775      -0.00185938      -0.00091231
C       -4.92935163      10.00425129       3.69421024      -0.00550687      -0.00299792       0.00844881
C        2.46633710       1.45062970       3.85684731       0.00065854       0.00235090      -0.00344539
C        1.15711064       3.56085964       4.16480914       0.00276604      -0.00407554      -0.00106698
C       -0.08477510       5.68887170       3.99375361      -0.00229144      -0.00607769       0.00591289
C       -1.23954117       7.85680738       3.74081057      -0.00155884       0.00016849       0.00731763
C       -2.46816915       9.99939607       3.68623174       0.00784068       0.00000284      -0.00077352
C        4.93975342       1.44358284       3.68277607       0.00536113       0.00370342       0.00156720
C        3.76560876       3.56410607       3.96284671       0.00108477       0.00791877       0.00539955
C        1.24109671       7.87784542       3.90392263       0.00011270       0.00619023      -0.01470141
C       -0.00046299       9.99146000       3.67304605       0.00127623      -0.00387912       0.00123314
C        7.40400705       1.43290558       3.57718957       0.00014710      -0.00286657       0.00850554
C        6.18089116       3.58097739       3.59676918      -0.00747343       0.00168698      -0.00748493
C        4.99599730       5.73263935       3.76228294       0.00053155       0.00261276       0.00844460
C        3.73947802       7.88351273       3.82490306       0.00559494      -0.00203469       0.01067918
C        2.48088769       9.97659981       3.67058650       0.00270027       0.01030522       0.00813302
C        9.86352048       1.43381914       3.62351566      -0.00056224      -0.00241961       0.00569757
C        8.62836966       3.57355494       3.56594096       0.00199996       0.00022248      -0.01385695
C        7.40376512       5.71782723       3.56732326      -0.00582893       0.00433704       0.00729066
C        6.18389695       7.86720897       3.64422902      -0.00192915      -0.00038165      -0.01210712
C        4.93807915       9.99200000       3.67596060      -0.00313414      -0.00087477      -0.00598892
Nb       2.58432499       4.92338782       4.94190780      -0.00984959      -0.00556354      -0.00145713
O        2.62616496       4.51233855       6.69223585       0.00937772      -0.01125464      -0.00294849
O        2.66326144       4.20676946       8.07181197      -0.00391132      -0.00090094      -0.00111362
H        3.34850088       4.82673665       8.40095765      -0.00597606      -0.00582274      -0.00375437
