51
Lattice="12.336457 0.0 0.0 -6.168228499999997 10.683685154694365 0.0 0.0 0.0 15.0" Properties=species:S:1:pos:R:3:initial_magmoms:R:1:forces:R:3 energy=-874682.2540781158 free_energy=-874682.2540781158 stress="1541.5085981063698 79.1040639308885 218.2758998967834 79.1040639308885 77.00638359033802 130.87211519956412 218.2758998967834 130.87211519956412 505.66371060225686" pbc="T T T"
C       -1.46363791       0.82920227       2.83014658       0.00000000    -800.33515910    4966.44984896    1472.09007647
C       -4.44740768       1.38208490       3.58312867       0.00000000      40.55274873     -14.79369859      -6.42005040
C       -1.40724599       0.30371200       2.68307464       0.00000000     839.58348589   -5077.03656906   -1540.03386553
C       -3.49062943       9.17876342      10.26203940       0.00000000      -1.24683896      -1.00094018      -1.98805221
C       -2.02669328       8.36512697       2.73278565       0.00000000       0.88847409      -8.18046834      23.94313200
C        5.18545791      -0.18257188       2.57855028       0.00000000     -18.13111267      28.08518192     -18.45854308
C        1.13384158       4.94447094       5.99749297       0.00000000   23819.91705119   57184.12009985   49529.76537779
C       -0.33481046       5.94732311       5.57228379       0.00000000   -1033.46039210    1623.68918247    3808.45496025
C       -0.40550992       4.23820109       1.57432991       0.00000000      28.85926718      -1.22946163      28.42101555
C       -1.74267430       5.84009788      -0.28113135       0.00000000       3.98086682       4.78723569       1.61420723
C        1.85571210      -2.86550824       4.54554254       0.00000000      -6.04267201      -1.34232647     -60.00701623
C        5.26730655       3.27775337       4.80274380       0.00000000     -28.85541473      92.52525000      65.71648153
N       -0.38812685       6.17493620       6.28874079       0.00000000 -122395.70123259  -14000.38244577 -118158.48794144
C       -5.33173323       4.36692643      -0.48026350       0.00000000      19.96199171      -1.60799248     -19.10271993
C        3.36902410       0.09295736       6.38376653       0.00000000    -135.49576758     -66.73961641      68.14145867
C        8.32644006       1.59971117      -0.78108699       0.00000000      -0.03103491      -0.17173112       0.10758817
C        2.94310324       5.41950226       5.80957708       0.00000000  -58036.38888257   41140.26562919   77287.58910768
B        2.33051358       8.08181394       5.92015744       0.00000000   13646.30840715   -8440.03211745    5536.11379701
C       -1.17239601       7.12562224      -0.03453750       0.00000000      -1.08547558      -3.88434672      -2.68987672
C        7.06517418       1.60714480       5.09947570       0.00000000      10.53704699    -107.43132123      -4.21646935
C       13.07288016       0.67695907       7.39902168       0.00000000      14.74302232      89.47357329       4.35691891
C       10.90511838       4.66094951       0.90753738       0.00000000      24.39925940      -0.40870920     -60.39233376
C        8.57211353       1.50372273       6.94852835       0.00000000      17.01550196     -26.52767918       7.24883888
C        3.80874171       4.48701539       1.49850543       0.00000000      -1.67123182       2.78010629     -12.79586675
C        2.39607075       1.19411293       3.38453349       0.00000000      47.38260867     -67.56776171     -22.01997874
C        0.75775683       3.59320280       5.45953502       0.00000000    -246.12969083      89.06771436    -989.69794437
C       -6.09899377       4.42842240       0.25890919       0.00000000     -18.66591720       1.12973120      19.06684777
C       -5.43450310       7.59692169       2.68505686       0.00000000      -7.05046712       3.13503896      11.37241392
C       -6.09025174      10.45487248       0.92293330       0.00000000     -32.46238179      -0.44412068      36.18448802
C        1.42915624       2.81651245       3.67081282       0.00000000    -145.00558126    -273.99988426    -356.74834012
C        2.73883062       8.39540806       4.33217845       0.00000000    -177.78339151    -358.33577983    1954.41756814
C        3.70845090       8.87017777       6.09507844       0.00000000     685.34191748    2177.95561053   -1816.40827662
C       -2.27034086       4.88133098       1.38691482       0.00000000     -60.90297002      17.97009792      27.19218336
C       -2.27658262      10.18011116       3.05251668       0.00000000       4.55944910     -22.50695641       1.46031872
C        6.30474475       3.87277666       4.80926640       0.00000000      -2.14058593     -47.61727425     -30.54131751
N        8.24620303      14.74657481     -10.58149381       0.00000000      17.25254976    -148.64633171     388.95036634
C       -1.89981778       3.47585213       1.65666066       0.00000000      -6.53926544     -23.40263472      15.78643827
C       -0.34592840      12.68202385       1.39703599       0.00000000       0.32415516      -3.09026012       0.23574575
C        6.59282952      -0.15995914       5.49352991       0.00000000      -6.11761300    -411.61176202     297.41614206
C        4.06003033       0.41049665       6.02617347       0.00000000     111.50246922      67.94702892     -62.43550177
C        7.98434501       2.24093920       6.16095949       0.00000000      51.94247448     -52.69657124     -16.96604095
C        5.84407427       6.92651740       6.61142802       0.00000000    1359.38114161     615.40214286    -537.17337610
C        1.17242698       8.61535023       3.97918904       0.00000000     -24.78950302    -913.82730068     988.36370956
C       13.54694528       3.82489573       2.34602622       0.00000000    -104.65655094     -41.16266766    -153.39317498
C        9.98899957       0.62761915       2.99211549       0.00000000     -47.65029992      99.82548612      58.17282252
C        6.57886860       4.08909162       7.05143743       0.00000000    -134.63275813      39.15320390      94.90071125
C        7.02222282       7.49792391       6.22132606       0.00000000   -1364.22702639    -657.68112146     512.20704019
C        4.05636225      16.49909095       6.00806904       0.00000000    3107.35974020    1173.23043560    1575.26060154
Nb       1.78722005       6.30346042       7.36025694       0.00000000 -6788962.29749999  -17229.67442883 1699420.85056467
O        2.57481740       6.44124485       8.14469158       1.00000000 -1453372.15803672 -195844.25952918 -1120291.80162383
O        1.53866058       6.30166158       7.42468928       1.00000000 8383319.86112471  134430.30121056 -599073.62261185
