52
Lattice="12.336457 0.0 0.0 -6.168228499999997 10.683685154694365 0.0 0.0 0.0 15.0" Properties=species:S:1:pos:R:3:forces:R:3 energy=-448.3519946599711 free_energy=-448.3519946599711 stress="0.0008617287481413897 -0.0030206566416033334 7.412827485323142e-06 -0.0030206566416033334 -0.005728221148955176 8.224397133359328e-06 7.412827485323142e-06 8.224397133359328e-06 1.5363946758418267e-05" pbc="T T T"
C        0.03065658       0.01174709       3.54844786       0.00307347       0.00048436       0.01967302
C       -1.18321876       2.19430552       3.58970993      -0.00550269       0.00225437       0.00142146
C       -2.39566864       4.32623737       3.84998565       0.00325536      -0.00412225      -0.00200157
C       -3.63322168       6.46282940       3.93817361      -0.00716930       0.00030393      -0.00387865
C       -4.88393599       8.58305416       3.79013459      -0.00323556       0.00415530       0.00928996
C        2.51551917      -0.02360928       3.45803936       0.00057372       0.00313637      -0.00109096
C        1.26862970       2.06551110       3.19292083       0.00005112       0.00157617       0.00324542
C        0.11562623       4.31842206       3.85204558       0.00613055       0.00086152      -0.00268240
C       -1.17744120       6.47344291       4.05186641      -0.00028695      -0.00054894      -0.00113928
C       -2.40420546       8.59130021       3.82069191       0.00035912      -0.00213731      -0.00379681
C        4.96900858       0.07530723       3.62289654      -0.00965374       0.00283773      -0.00262677
C        3.69563052       2.12241648       3.27566814       0.00647032      -0.00063596      -0.00625697
B        1.21176329       6.63252020       4.45429337       0.00051433      -0.00465303       0.00171155
C        0.03829513       8.66700705       3.98799403       0.00658609       0.00385767      -0.00043086
C        7.44302275       0.09764696       3.76388049      -0.00824077      -0.00107947      -0.00694602
C        6.18055091       2.24137075       3.62216396       0.00431081       0.00068164      -0.00394392
C        4.97738803       4.45351753       3.78466260       0.00528769       0.00179201       0.00422961
O        3.80232674       6.52817296       4.21504488       0.00316987       0.00011394       0.00064608
C        2.55306673       8.65774917       4.02845530      -0.00026140       0.00457212      -0.00669420
C        9.91765299       0.07340378       3.71882972       0.00616516       0.00420897       0.00505738
C        8.67784555       2.21785040       3.71344953      -0.01139799      -0.00246026      -0.00257553
C        7.44075318       4.34850948       3.84996062       0.00469741      -0.00183927      -0.00078029
C        6.23443063       6.49748036       4.02716188       0.00257783      -0.00303730       0.00025569
C        4.98141166       8.59659584       3.89511883       0.00094577      -0.01109646       0.01090855
C        0.02882059       1.43235932       3.41679701      -0.00415351      -0.00091427      -0.00242937
C       -1.16587533       3.60372699       3.74505935       0.00564623       0.00061081       0.00168745
C       -2.39689842       5.75295821       3.95314274      -0.00415402      -0.00122868      -0.00005187
C       -3.63640114       7.88008533       3.85941830      -0.00429490       0.00086434      -0.00285336
C       -4.89572619       9.98332167       3.58069816       0.00406137       0.00404732       0.01188812
C        2.49906457       1.38002983       3.24926361       0.00326126       0.00363800       0.00217572
B        1.33026360       3.53410940       3.20853848      -0.00412147       0.00109397      -0.00138916
C        0.05461411       5.73300829       4.16396287       0.00022235      -0.00209997       0.00106456
C       -1.17090384       7.89884877       3.97802865       0.00769053       0.00219029      -0.00714926
C       -2.41004585      10.00198699       3.62625436      -0.00631620       0.00090000       0.01259596
C        4.95194531       1.51081506       3.49209759       0.00380755       0.00277448      -0.00591824
S        3.43147530       3.84666437       3.04631360       0.00278689       0.00515827      -0.00070951
C        1.28790470       8.03096241       4.17733000       0.00561963      -0.00279041      -0.00125597
C        0.03350447      10.07527074       3.79051697      -0.00980799       0.00428453      -0.00230949
C        7.42399451       1.52318948       3.68989734      -0.00692151      -0.00555446       0.00021136
C        6.17974510       3.66607442       3.73817919       0.00611040      -0.00031021       0.00006749
C        5.01644401       5.82156340       4.05018181       0.00351105       0.00210218      -0.00349786
C        3.77135286       7.91773342       4.05161399      -0.00379947      -0.00399281      -0.00554863
C        2.52572575      10.06631087       3.83458652       0.00054299       0.00706081      -0.00860133
C        9.91362124       1.49947267       3.66259693      -0.00819366       0.00678598       0.00075447
C        8.68949007       3.63474207       3.79607354       0.00143980      -0.00434504       0.00005939
C        7.46010453       5.76142334       3.95012628      -0.00340635      -0.00271619      -0.00366383
C        6.22658532       7.90219215       3.92416535       0.00101165      -0.00526280       0.00266025
C        4.96769389      10.01388942       3.71856069       0.00495276      -0.00814353       0.01034107
Nb       2.01765229       4.78120756       4.82711653       0.00309628      -0.00006618      -0.00748088
O        1.66307391       3.83225607       6.32310605      -0.00567404      -0.01028234       0.00039312
O        1.38514585       2.96412816       7.40327112       0.00208094       0.00470417       0.00282013
H        1.38484179       3.58584479       8.16180114      -0.00341876       0.00226591      -0.00545483
