52
Lattice="12.336457 0.0 0.0 -6.168228499999997 10.683685154694365 0.0 0.0 0.0 15.0" Properties=species:S:1:pos:R:3:forces:R:3 energy=-448.56629804697354 free_energy=-448.56629804697354 stress="-0.0036920777400791206 -0.001420966022230121 4.834338633593105e-06 -0.001420966022230121 -0.008904115346140691 1.8152122893660063e-05 4.834338633593105e-06 1.8152122893660063e-05 7.573934967253541e-06" pbc="T T T"
C       -0.02348300       0.01791048       3.57202281      -0.01033133       0.00302576       0.01430521
C       -1.26043920       2.17102900       3.59831598       0.00835859       0.00305232       0.01002070
C       -2.52869014       4.29147493       3.85465201      -0.00033201      -0.00169004       0.00242332
C       -3.74955955       6.42141618       3.93564093      -0.00350902       0.00092762       0.00108270
C       -4.96505050       8.55334277       3.77626402       0.00337882       0.00054941      -0.00632804
C        2.44415685      -0.06391033       3.48944538      -0.00324615       0.00029131       0.00482537
C        1.23253992       2.05566082       3.32946245       0.00170795      -0.00633444      -0.00518826
C       -0.09747177       4.34648362       3.81765886       0.00156092       0.00292212      -0.01003817
C       -1.30102716       6.43420449       4.07385387      -0.00376136       0.00044755       0.00849150
C       -2.49085519       8.54208837       3.83703911      -0.00024724      -0.00045865       0.00536501
C        4.91800231      -0.02124784       3.62888638       0.00441569      -0.00900349      -0.00055484
C        3.66561726       2.03692345       3.29829589       0.00055868       0.00410536       0.00040360
B        1.19621879       6.43144650       4.36424462       0.01190878       0.00656803       0.00534833
C       -0.01779762       8.55986559       3.96321812      -0.00549247       0.00327043       0.00208677
C        7.37180858       0.03079615       3.75016278       0.00247088      -0.00312756      -0.00188267
C        6.11716260       2.16767615       3.64937869      -0.00405528      -0.00178570      -0.00281254
C        4.82307360       4.35598612       3.75170317       0.00632947       0.00104650      -0.00577301
O        3.74328849       6.56270077       3.59738810       0.00298304      -0.00000228       0.00427790
C        2.46105002       8.59164628       3.90510657      -0.00280353       0.00318969      -0.00194587
C        9.84242889       0.04032101       3.69304487      -0.00420928       0.00193614       0.00732189
C        8.59186894       2.16971439       3.72259445       0.00120381      -0.00039811      -0.00970830
C        7.32425884       4.29510635       3.84442768      -0.00029750       0.00600956      -0.00553518
C        6.14246281       6.46099408       3.92341263      -0.00009690      -0.00131791      -0.00596647
C        4.92291369       8.60101045       3.80097929       0.00440831      -0.00054135      -0.01159576
C       -0.02516681       1.44725370       3.48117442       0.00201084       0.00072643       0.01389701
C       -1.28401074       3.58021225       3.73826616       0.00285879      -0.00021489       0.00822819
C       -2.52483302       5.71052619       3.96841834      -0.00543871      -0.00073345       0.00466739
C       -3.73156375       7.84024334       3.86240698       0.00157662      -0.00070306      -0.00616115
C       -4.96751811       9.96207058       3.60112448      -0.00897558       0.00488173       0.01113276
C        2.44575703       1.33483212       3.31585615       0.00199347       0.00010853      -0.00249058
S        1.43953194       3.76488909       3.25394762      -0.00295168      -0.00498134      -0.00977662
C       -0.08217892       5.70947127       4.13834913       0.00354055       0.00342770      -0.00436206
C       -1.26090388       7.84780270       3.99026297      -0.00450839       0.00059540       0.01092595
C       -2.48193731       9.94103933       3.63990468       0.00024897      -0.00261393       0.00082688
C        4.91117504       1.40005617       3.50117035      -0.00240840      -0.00683446      -0.00012888
B        3.58480015       3.49309287       3.37165082       0.00309810       0.00119036       0.00896171
C        1.23005570       7.88177915       4.07936968      -0.00705713       0.01040678      -0.00047730
C       -0.02184970       9.97941343       3.78317602       0.00571437      -0.00242068      -0.00072362
C        7.35771151       1.45787281       3.70385812      -0.00231154      -0.00246711      -0.00156795
C        6.09399496       3.59327758       3.74556081       0.00112937       0.00261495      -0.00359384
C        4.91922510       5.79181424       3.87981176       0.00233178      -0.00093964      -0.00618158
C        3.70383526       7.94771089       3.84972362       0.00245061       0.00428504      -0.01225994
C        2.44628978      10.01645903       3.78283904      -0.00103216       0.00065007       0.00021121
C        9.84167722       1.46747325       3.66055888       0.00642127       0.00139780       0.00140673
C        8.57175632       3.58674350       3.80453841      -0.00101122       0.00136646      -0.00379334
C        7.35227224       5.71573684       3.91808915      -0.00168520       0.00470743      -0.00385594
C        6.14623139       7.87175819       3.84619953       0.00595886      -0.00184519      -0.00243786
C        4.90990201      10.01724055       3.69035457      -0.00741180       0.00092542       0.00763723
Nb       2.97807009       5.00045533       4.78629828       0.00097843      -0.01399325      -0.00580457
O        3.35059271       4.53711086       6.50221943      -0.00916525      -0.00786829      -0.00520310
O        3.57236466       4.12048486       7.82310671       0.00114332      -0.01124248      -0.00080842
H        4.03868476       4.88990033       8.21140321       0.00159882       0.00689143       0.00310853
