51
Lattice="12.336457 0.0 0.0 -6.168228499999997 10.683685154694365 0.0 0.0 0.0 15.0" Properties=species:S:1:pos:R:3:initial_magmoms:R:1:forces:R:3 energy=-454.53456127782147 free_energy=-454.53456127782147 stress="-0.006561842564001357 0.0026506718147400335 -6.304152217099344e-05 0.0026506718147400335 -0.005555377707652291 2.942040765938591e-05 -6.304152217099344e-05 2.942040765938591e-05 -8.021123197174862e-05" pbc="T T T"
C       -0.00469475      -0.01685649       3.55097860       0.00000000       0.00543392       0.00044736       0.00556788
C       -1.23478725       2.12257838       3.58544447       0.00000000       0.00207815       0.00034967      -0.00280232
C       -2.49743956       4.24952022       3.63406879       0.00000000       0.00018118      -0.00116602       0.00216088
C       -3.72358208       6.38515740       3.52095855       0.00000000      -0.00177064       0.00493672       0.00172803
C       -4.95255837       8.52114449       3.50857042       0.00000000      -0.00285470      -0.00250983       0.00110376
C        2.45629121      -0.03235835       3.73095148       0.00000000      -0.00007570      -0.00015809      -0.00275437
C        1.25484747       2.06165816       3.61611682       0.00000000      -0.00029051       0.00679023      -0.00165334
C       -0.08550111       4.29851864       3.86042789       0.00000000      -0.02106473      -0.00007690      -0.00897935
C       -1.31007118       6.41491067       3.82397384       0.00000000      -0.00083645       0.00071593       0.00056738
C       -2.49432744       8.53048005       3.69066612       0.00000000       0.00137291      -0.00121643       0.00304815
C        4.92601257      -0.02767418       3.80297008       0.00000000      -0.00098515       0.00028675       0.00267762
C        3.70615845       2.13038789       3.98538767       0.00000000      -0.00080049       0.00616817       0.00080856
C        1.11283175       6.40485364       4.25062341       0.00000000      -0.04300967       0.08648512      -0.01827389
C       -0.01924799       8.51948003       3.87132865       0.00000000       0.00024283       0.00492426      -0.00395770
C        7.39470359      -0.03257719       3.72567403       0.00000000      -0.00119731       0.00333343      -0.00214339
C        6.17113410       2.09519051       3.73116442       0.00000000      -0.00075069       0.00058494      -0.00093641
C        4.93032130       4.22023714       3.81478438       0.00000000      -0.00484797       0.00252095      -0.00160114
B        3.85474851       6.45089218       4.13422368       0.00000000       0.01011238       0.00759993       0.01334444
C        2.46096075       8.52353622       3.82184299       0.00000000      -0.00564913      -0.00444649      -0.00089266
C        9.86014073      -0.02280743       3.58355640       0.00000000      -0.00267729      -0.00086576      -0.00313300
C        8.62819961       2.10462811       3.59389302       0.00000000      -0.00325210       0.00120358      -0.00137022
C        7.38788946       4.23391069       3.52759673       0.00000000      -0.00381354       0.00017228      -0.00376308
C        6.16716546       6.36630279       3.45763994       0.00000000       0.00347518      -0.00441914       0.00007443
C        4.92284612       8.53904710       3.53714397       0.00000000       0.00242331       0.00046271      -0.00057661
C       -0.00212686       1.41085794       3.57960600       0.00000000       0.00041960       0.00124162       0.00807561
C       -1.26799526       3.53311040       3.69487277       0.00000000       0.00712865       0.00032396      -0.00177242
C       -2.50358918       5.67797423       3.64940380       0.00000000      -0.00215140      -0.00007989      -0.00094787
C       -3.71954147       7.81178291       3.55810189       0.00000000      -0.00179623       0.00426460      -0.00022701
C       -4.94427981       9.95000948       3.58665809       0.00000000       0.00176947      -0.00274815       0.00061448
C        2.47284821       1.38952344       3.82926083       0.00000000      -0.00131939       0.00373459       0.00284229
S        1.37562777       3.72124786       3.11960470       0.00000000      -0.03949702      -0.05296122      -0.08151546
C       -0.08747030       5.72077423       4.02545814       0.00000000      -0.00180500       0.00396051       0.01065727
C       -1.26877203       7.82730030       3.80270912       0.00000000       0.00412947       0.00143380       0.00377148
C       -2.48019221       9.94598216       3.75279724       0.00000000      -0.00062773      -0.00241627       0.00265246
C        4.93671322       1.39416962       3.85111137       0.00000000       0.00214259      -0.00115629      -0.00143517
C        3.75700719       3.51028566       4.23144215       0.00000000       0.04903711      -0.02560598      -0.00304616
C        1.21827849       7.78881439       4.00282332       0.00000000      -0.00321591      -0.00589207       0.00165216
C       -0.00975953       9.93892285       3.79674486       0.00000000       0.00031776       0.00449406      -0.00120174
C        7.40131328       1.38594828       3.66704738       0.00000000      -0.00065342       0.00218425       0.00272108
C        6.16934062       3.51066971       3.65408005       0.00000000      -0.00188816      -0.00086306      -0.00645467
C        4.98963111       5.62072720       3.62161007       0.00000000      -0.00512763      -0.00338782       0.00236610
C        3.69628694       7.87726982       3.71644644       0.00000000      -0.00139955       0.00054770       0.00824241
C        2.45772694       9.94475704       3.69264242       0.00000000      -0.00529458      -0.00354963       0.00039553
C        9.86857887       1.40448851       3.57486705       0.00000000      -0.00316969       0.00051286      -0.00239026
C        8.61990448       3.52703621       3.56459072       0.00000000      -0.00396173       0.00068355       0.00217133
C        7.39881860       5.65735360       3.45117318       0.00000000       0.00252600      -0.00063745      -0.00070915
C        6.15678912       7.80823238       3.47280072       0.00000000       0.00061081      -0.00634890       0.00251415
C        4.92637530       9.96357161       3.52673907       0.00000000       0.00402312       0.00253638      -0.00055346
Nb       2.08079187       4.76229818       5.36746778       0.00000000       0.08277864      -0.17789769      -1.14498615
O        1.28268159       4.37599246       6.88561859       1.00000000      -0.00840132      -0.05425966      -0.03152503
O        3.45530000       6.08115910       5.40037008       1.00000000      -0.00601822       0.19976285       1.24984455
