53
Lattice="12.336457 0.0 0.0 -6.168228499999997 10.683685154694365 0.0 0.0 0.0 15.0" Properties=species:S:1:pos:R:3:forces:R:3 energy=-472.91332741057045 free_energy=-472.91332741057045 stress="-0.004981524780206232 0.00014888119862752636 -9.778054637549612e-05 0.00014888119862752636 -0.004006462096904037 -0.00025722860074978246 -9.778054637549612e-05 -0.00025722860074978246 0.000164763530563108" pbc="T T T"
C        0.02312629       0.04913859       3.65163237       0.00118935      -0.01795730      -0.01826501
C       -1.21196033       2.18517183       3.66866507      -0.09070823      -0.01870899       0.03017244
C       -2.44780116       4.31896261       3.69411101      -0.02441774       0.01990262       0.02374091
C       -3.67702022       6.45813032       3.66718735      -0.03533324      -0.00893942      -0.00457160
C       -4.90771530       8.59834913       3.65753176       0.01030710       0.00667622       0.00060917
C        2.49183305       0.05123532       3.65568786       0.01147429       0.02488198      -0.01801029
C        1.24430880       2.17769409       3.79515148      -0.02307428      -0.01868819       0.03581316
C        0.00248262       4.30939024       3.97028878       0.02580947      -0.01311217      -0.01768080
C       -1.22533985       6.45996578       3.82391284       0.01506309       0.02535580      -0.04351011
C       -2.44407040       8.59705381       3.64894050      -0.01831660       0.00597990      -0.00599075
C        4.96190235       0.04530636       3.65191046      -0.02565043       0.00225152      -0.00290712
C        3.73830934       2.17278021       3.85096565       0.04174442      -0.01042154      -0.01544522
B        2.47903050       4.11592149       4.62122847       0.01839046      -0.00098378       0.22350672
C        1.14559792       6.52251501       4.33032075       0.01650573      -0.01508753       0.00946279
C        0.01032190       8.60471001       3.79708312       0.00664363       0.01428669      -0.00911798
C        7.42783433       0.04808346       3.69415437      -0.00236266      -0.00985872       0.02959740
C        6.19276211       2.18057399       3.71409071       0.10158879       0.02428804      -0.00686370
C        4.97771372       4.30571646       4.00251616      -0.03010196      -0.00571556      -0.02688573
C        3.82171727       6.51355732       4.29659938       0.07039657       0.00839816       0.10437182
C        2.49062282       8.61612164       3.99315542       0.00546151      -0.03376852      -0.04145480
C        9.89354118       0.05040135       3.70956594      -0.01179602      -0.00030137      -0.00086774
C        8.65759919       2.18478654       3.65029972       0.01498672      -0.01596072      -0.01830731
C        7.42544786       4.31984129       3.70353490       0.03441005      -0.01407282       0.00700651
C        6.20403022       6.46141890       3.80914361      -0.03282535      -0.00772588       0.03706735
C        4.97637843       8.60947618       3.83594260      -0.05146809      -0.00722249      -0.07592345
C        0.01688909       1.46880674       3.66477344      -0.06191026      -0.00898099       0.00069893
C       -1.21990671       3.60613601       3.75084247      -0.03685827      -0.01183808      -0.02415302
C       -2.44794803       5.74480193       3.71839196      -0.02432462       0.02053453      -0.03687930
C       -3.67608977       7.88409339       3.64444925      -0.01609938      -0.02037298       0.00495441
C       -4.91131102      10.02131710       3.64246805       0.03355676       0.00565972      -0.01279949
C        2.49109788       1.46699212       3.76676389       0.01567655       0.02676343      -0.00985255
C        1.19352603       3.56361061       4.06258091      -0.00217286      -0.04734637       0.05311247
C       -0.00837653       5.75185696       4.05983910       0.05509948       0.02026046      -0.00715424
C       -1.21441256       7.88482059       3.74241489      -0.01356488       0.05330679       0.04374661
C       -2.44122206      10.02000208       3.64073215      -0.02256806      -0.00288515      -0.02170517
C        4.96517163       1.46326672       3.71664722       0.07194656       0.02826296      -0.04337295
C        3.78912012       3.55848141       4.12162758      -0.01950877      -0.02624224      -0.03035049
C        1.23816042       7.90583283       4.06144111       0.04119014      -0.03332906      -0.03087200
C        0.02594219      10.01615244       3.68278927      -0.03764667       0.00971355       0.08940286
C        7.42502667       1.47064038       3.66583994       0.07303233      -0.04090729      -0.03323441
C        6.20078791       3.60240468       3.78808287       0.03798786       0.01235312      -0.02849948
C        4.98487322       5.75095842       4.04718973      -0.04948999      -0.00727658       0.02561436
C        3.74247673       7.90559121       4.06887204      -0.03678346      -0.02422174      -0.03149326
C        2.49245832      10.02507018       3.77757745      -0.00122355       0.01401830       0.00697128
C        9.89208268       1.47258764       3.65345640      -0.05290882      -0.04569352      -0.02457039
C        8.65680286       3.60890120       3.65229007       0.00332212       0.00042721       0.03117595
C        7.42754315       5.74703709       3.70678282      -0.01239173      -0.02544555       0.02352980
C        6.19852288       7.88819402       3.75964013      -0.01959225       0.01853800       0.00527649
C        4.96099885      10.02049315       3.71916676      -0.00621517       0.00188247       0.00680065
Nb       2.50515912       6.22825820       5.92654483       0.03479403       0.02640408       0.09342810
O        2.57195374       7.45184499       7.18941919      -0.02139676       0.15399983      -0.13702075
O        2.41948453       4.21949372       6.29645802       0.00317595      -0.13467069      -0.10369189
H        1.96680561       3.47438021       6.73772350       0.03695710       0.10358986      -0.00460919
