53
Lattice="12.336457 0.0 0.0 -6.168228499999997 10.683685154694365 0.0 0.0 0.0 15.0" Properties=species:S:1:pos:R:3:forces:R:3 energy=-466.5111837786174 free_energy=-466.5111837786174 stress="-0.004761943861838103 0.0024348207337866897 4.509317631027575e-05 0.0024348207337866897 -0.005718232411814021 5.253098667356977e-05 4.509317631027575e-05 5.253098667356977e-05 6.583732066197144e-06" pbc="T T T"
C        0.04546728      -0.00029904       3.68997063      -0.00108809      -0.00266792       0.00099367
C       -1.17589962       2.14160848       3.64149807       0.01867425       0.01484828       0.00906243
C       -2.40831248       4.27494183       3.67054628       0.02193101       0.01158742       0.00909795
C       -3.65085610       6.40575465       3.73160574      -0.01279350       0.00293386       0.00619770
C       -4.89929260       8.53925546       3.75712724      -0.00264837      -0.01257314       0.00114540
C        2.51015167      -0.00430922       3.68779084      -0.00666945      -0.01487952       0.00403004
C        1.28731514       2.14153540       3.77544976       0.00225495       0.00997434       0.00125731
C        0.04349993       4.27220122       3.89543312      -0.01404006      -0.00962018       0.00044307
C       -1.18751565       6.41100199       3.87630272      -0.00538980       0.00524962       0.00103169
C       -2.42737252       8.54452532       3.73685951       0.00658853       0.00196996       0.00216126
C        4.98119719      -0.00379386       3.60854213      -0.00071623       0.01128456      -0.00158784
C        3.76195517       2.11522899       3.68907396      -0.01166499      -0.00209310       0.00593874
B        2.58023704       4.32586696       4.16189257       0.00668713      -0.02104574      -0.01150414
B        1.31107933       6.45686149       4.38927267       0.02951900       0.02068768      -0.00835393
C        0.03260064       8.56797587       3.80156896      -0.01175361       0.00851286       0.00837316
C        7.44746491       0.01267581       3.56659814       0.00173604      -0.00992713      -0.00593618
C        6.23341966       2.12107144       3.53080596       0.00829069      -0.00941492      -0.00500400
C        5.04131948       4.22064641       3.75800800      -0.02248781       0.00725392       0.00902791
P        3.41282812       6.19698292       4.45726249      -0.00824674       0.00697427       0.00558060
C        2.49484737       8.60848687       3.82350845      -0.00032602      -0.01350984       0.01712429
C        9.92574044       0.01281562       3.61057922       0.00772143       0.00497099      -0.00552591
C        8.69930557       2.13992936       3.52968703       0.00074962       0.00533737      -0.00712999
C        7.47553972       4.26935286       3.61078278      -0.00296947       0.00040441       0.00624221
C        6.21638936       6.39517551       3.84154224      -0.00801049       0.00033365       0.00799171
C        4.96790181       8.54184458       3.82529520      -0.00580059       0.00410391       0.00829227
C        0.05333211       1.42632704       3.68998893       0.00669710       0.00206900       0.01040717
C       -1.18356628       3.56091474       3.71026015       0.00845358      -0.00869240      -0.00534420
C       -2.41565407       5.69692449       3.75003569      -0.00830218       0.02744929      -0.00284195
C       -3.66161477       7.83066022       3.74966836       0.00248878       0.00220151      -0.01604096
C       -4.89341009       9.96539008       3.71542045      -0.00557293      -0.00309854      -0.00368694
C        2.51598721       1.41474820       3.71920289       0.00302427       0.00459032      -0.00053650
C        1.27247158       3.56519432       3.93076777       0.00916942       0.00007439      -0.01419926
C        0.02826885       5.68261253       4.05165589       0.00188289       0.00005630      -0.01935980
C       -1.19866112       7.83988000       3.82050935       0.00569632      -0.00725874      -0.00134837
C       -2.42449321       9.96810104       3.67266615       0.00478324      -0.00981243       0.00074272
C        4.99378848       1.41147598       3.57964739       0.02267239      -0.01401585      -0.00815898
C        3.81541248       3.51872219       3.81211233      -0.00611877       0.01643211       0.00998562
C        1.27043253       7.91661567       3.96643977       0.00391127      -0.00605337       0.00858565
C        0.04352328       9.98222903       3.63478343      -0.01082223       0.02232491      -0.01507013
C        7.46333031       1.42528740       3.51060467      -0.01837391       0.01000592      -0.01366977
C        6.26037214       3.53636712       3.58802464       0.00933468       0.00986040      -0.00238076
C        5.03171230       5.62250599       3.95611415      -0.02471096       0.00951171      -0.00276542
C        3.70867762       7.89160476       3.94908116      -0.00926284      -0.02677188       0.01255794
C        2.51504365      10.00893818       3.62722455       0.02158917       0.00006942      -0.01094226
C        9.93064665       1.43263293       3.56796889      -0.00794292       0.00174843       0.00225931
C        8.70303993       3.56139692       3.57880460       0.01715265      -0.00121547      -0.00957354
C        7.45772971       5.69079972       3.71804147       0.00110697      -0.01470882      -0.01272027
C        6.20542878       7.82567297       3.82622339       0.00150955      -0.01532427       0.00870094
C        4.98020464       9.97165505       3.69793335       0.00273688       0.00723121      -0.00266670
Nb       2.15562840       5.60922621       6.50832648       0.04063046       0.00490976       0.10595865
O        2.13557139       7.02108594       7.53446257      -0.00683767      -0.02440834      -0.10752595
O        0.85762326       4.25188291       6.96764317      -0.06383988      -0.01171748       0.03683640
H       -0.01594556       3.95691987       7.26374853       0.00939727       0.00384732      -0.00615205
