51
Lattice="12.336457 0.0 0.0 -6.168228499999997 10.683685154694365 0.0 0.0 0.0 15.0" Properties=species:S:1:pos:R:3:initial_magmoms:R:1:forces:R:3 energy=-744267.9136763752 free_energy=-744267.9136763752 stress="111.35454009705208 86.2164599465813 244.60727801723408 86.2164599465813 199.56069397771785 -61.44204421367588 244.60727801723408 -61.44204421367588 -125.23314213784545" pbc="T T T"
C       -8.00901777      -5.42838942       5.26793884       0.00000000      23.91821591       3.15297364      32.84192173
C       -5.44847338      11.09038851       1.96237276       0.00000000    -207.12483681    -170.45490708    -258.19611895
C      -12.80289704       5.81194025      -0.79841265       0.00000000       3.10741151       3.72729482       0.80131828
C       -3.47610654       5.43075244      10.40528775       0.00000000       2.43866357      -0.55779645       0.54477563
C       -7.18510953       8.59393955       5.02721855       0.00000000     -98.63775663     196.18115425     101.63758977
C       -1.19267989       3.18852829       4.96926958       0.00000000   -7861.47819812     842.25981750   -4020.40813287
C       -7.23466448      -5.81024343      11.02406562       0.00000000     -68.63153727      17.12700100      59.60345766
C        4.11635563       2.63401567       5.96484881       0.00000000 -726508.99416925 -1466050.24291033 1247678.71410316
C       -1.87770321      10.41258751       1.68336618       0.00000000      79.11359351    -433.85723723    -901.39851117
C        4.52940526       8.39312326       6.21009396       0.00000000     -81.62345549     215.24198576      13.52740028
C       -3.65998965      -7.58946567      -1.39485703       0.00000000       1.01855214      -9.88431505       8.10629359
C        5.01083587       2.06646855       6.84633933       0.00000000  -79615.48973287  -30994.87759155 -262156.93431385
B        4.11347534       8.62047551       1.06905360       0.00000000     -31.50000863     -30.78325563      14.50129348
C       -6.93536245       7.93559550       5.87096306       0.00000000      11.34398018     -46.26150076     -49.06921682
C        9.69057467      -0.68383082       5.27093105       0.00000000      45.83067325     -98.51195435     -33.50971430
C        5.63045815       1.67316536       4.29565141       0.00000000  -16941.21549013   26853.69472178   67741.18167311
C       -1.84269522       1.36164051       2.66115172       0.00000000     -75.39755067      -9.08227123      40.79712944
O        4.77231931       9.33833359       1.22584935       0.00000000      28.87518942      25.07155426      -5.82713191
C        4.79113833      11.52297023      -3.85268623       0.00000000      -1.76115924      -0.23081789       3.99915066
C        6.88975245      -0.90251307       5.53554118       0.00000000    5713.50675829    -628.19598371      71.81577213
C        6.15327628       1.54859329       5.11809612       0.00000000  -81097.89278623   30313.55688591   -5245.08514867
C        4.12300459       5.52674193       5.14761094       0.00000000    -919.38274093  -13892.40936244   -4568.39372317
C       10.22271001      13.02511500       2.71347382       0.00000000    8204.27395062   -1498.84168208  -30537.15180974
C        6.27697960       8.82215982       1.97935246       0.00000000       2.77682029       2.36203160      31.11190272
C        0.88216851       9.02210076      -8.01590966       0.00000000    1252.68594032    1828.72868825    -672.10996209
C        7.06693973      -3.16337078      -0.35748406       0.00000000      -2.76000909      -4.31718663      -1.23535111
C       -4.24055667       7.85234502       2.58646478       0.00000000       1.47232235       5.35238730       2.35662682
C       -4.89289403       9.42487549       4.08165872       0.00000000   -1641.61926216   -3239.11023495   -2549.50739270
C       -4.80676721       3.97654263      -0.96057722       0.00000000      -3.61119837      -1.78390272       3.58722531
C        4.15510735       2.66166590       6.04103803       0.00000000  995669.90464569 1591083.97847150 -1494821.46686818
B        2.98709148       2.12935292       4.33278271       0.00000000  153374.37460090   29559.60150694   36696.41134060
C        3.75330777       9.08548616       4.05304707       0.00000000     -92.94487190       5.28697894      69.50249348
C      -14.10689016       2.73643242       3.43975201       0.00000000     -45.72606454      18.05438919     219.11621896
C        0.61231277       8.50174695       6.75674532       0.00000000    -797.67960502   -1338.04384770    -879.55507383
C        4.99844825       2.03962246       5.22721736       0.00000000  131501.05136269   -1756.39317267   48368.62246126
S        4.66351434       4.31264646       6.01382072       0.00000000  -92533.81680415 -237240.34414789  103043.44438867
C        6.87920078       7.54594805       2.70870993       0.00000000     -24.66341646      -2.47577681      36.97517339
C       -0.65822490      18.97690547       4.40485455       0.00000000      63.72436860     -47.70393787    -202.86399376
C        7.54542116      -0.16801717       5.49935287       0.00000000   -1125.38642017    3267.12936761    -454.45585154
C        7.91182726       0.80098913       5.40148202       0.00000000     724.36354058    1950.20000924      32.04025088
C        6.09049936       7.19976827       6.20018064       0.00000000     198.36426307     150.26485014    -428.55610460
C        9.21388558       6.93459494       1.09303369       0.00000000      -1.84323045       1.49293403       2.46152944
C        1.40956188      12.16523134       4.51551554       0.00000000   11209.65757026   -8538.51126445     373.16718001
C       11.32100036       0.11699648       4.25525258       0.00000000    -242.20712828     -61.37740132    -128.63168713
C       18.04527542       9.22144727       0.10861784       0.00000000       1.24823591       1.26195377       1.75348629
C        7.65716584       0.33270617       4.89064788       0.00000000   -1543.29474692    -940.73783852   -3496.68278605
C        4.96999249       9.92858865       4.56575335       0.00000000     -45.12216431     -70.77799536      24.42124438
C       17.76738820       8.53017095      -0.97856606       0.00000000       0.62009288      -0.24719727      -1.95087454
Nb       3.14625926       2.66150129       7.53551722       0.00000000 -1878341.63927606 -323828.52525925  171516.07166766
O        2.37332498       1.18944432      10.77381839       1.00000000   -9501.02286505  -26402.99623663   54648.23219320
O        2.97100840       2.65430844       7.71913792       1.00000000 1591338.79573327  430993.81002838   80575.64250499
