51
Lattice="12.336457 0.0 0.0 -6.168228499999997 10.683685154694365 0.0 0.0 0.0 15.0" Properties=species:S:1:pos:R:3:initial_magmoms:R:1:forces:R:3 energy=-455.8419559013841 free_energy=-455.8419559013841 stress="0.00016378118849433084 0.0006374059674191605 3.720329303166124e-05 0.0006374059674191605 0.0013914950947352934 0.00018039063061540365 3.720329303166124e-05 0.00018039063061540365 -0.0002877455755565121" pbc="T T T"
C        0.01764231       0.01866039       3.76804775       0.00000000      -0.01459307       0.00052628       0.01767814
C       -1.21966888       2.14844921       3.56861920       0.00000000       0.01111305       0.00374184       0.00844739
C       -2.44955090       4.29752813       3.40897144       0.00000000      -0.00131739       0.00965140       0.00933537
C       -3.68861175       6.43853125       3.49668851       0.00000000      -0.00323543      -0.00239141       0.00838122
C       -4.92014646       8.57541755       3.71030889       0.00000000       0.01212769      -0.01414655       0.00057952
C        2.48589069       0.05131490       3.80711306       0.00000000      -0.00854336      -0.00530176      -0.00315273
C        1.22572502       2.12790722       3.84958728       0.00000000       0.01749505       0.00026969      -0.00173012
C       -0.02371424       4.27767756       3.50197848       0.00000000      -0.01572516      -0.01234316       0.00348009
C       -1.22141086       6.43564412       3.44676809       0.00000000      -0.01365631       0.00696904      -0.00270906
C       -2.45564216       8.57877408       3.60823376       0.00000000       0.00137431       0.00463794      -0.00162896
C        4.95157027       0.02617956       3.73869309       0.00000000       0.00935000      -0.00378496       0.00067603
C        3.75056377       2.17259005       4.06883521       0.00000000       0.00543273       0.00402618      -0.00367817
C        1.21250252       6.40917737       3.90449510       0.00000000      -0.06011072       0.03328045      -0.04909824
C        0.01580924       8.56141613       3.69296565       0.00000000      -0.00215286       0.01733841      -0.00725201
C        7.42078413       0.01562485       3.70495436       0.00000000       0.00675454      -0.00170629      -0.01125435
C        6.19668333       2.15304943       3.68134192       0.00000000      -0.01428821      -0.00331750      -0.00214041
C        5.01984755       4.29112139       3.86346754       0.00000000      -0.00472214      -0.00795663      -0.01158603
B        3.64698969       6.36939387       4.27422728       0.00000000      -0.00175875       0.01392431      -0.00489966
C        2.47869656       8.56845342       3.92501281       0.00000000      -0.00551646       0.00458811      -0.01306716
C        9.88565391       0.01648884       3.73211202       0.00000000      -0.01014147      -0.00076656       0.01912514
C        8.65598555       2.15415517       3.54130045       0.00000000      -0.00370168      -0.01381845      -0.00262207
C        7.43281304       4.29760362       3.50505465       0.00000000      -0.00428091       0.00834495       0.00401485
C        6.17787551       6.43099576       3.73871522       0.00000000       0.00268011       0.00706811      -0.00510857
C        4.94380790       8.55891179       3.90170871       0.00000000       0.00374400       0.00580324       0.00010801
C        0.01705615       1.45045540       3.71998143       0.00000000       0.01067821       0.00255059      -0.00084789
C       -1.21736560       3.56758289       3.43890470       0.00000000       0.01060269       0.00561798      -0.00217126
C       -2.44736841       5.72371271       3.41558906       0.00000000      -0.00532881       0.00196426      -0.00230135
C       -3.68884468       7.86552563       3.59048059       0.00000000       0.01271874      -0.01007936       0.01664070
C       -4.91178424      10.00852659       3.76939480       0.00000000      -0.01441532      -0.00797763      -0.00343745
C        2.48402847       1.49428411       3.93956670       0.00000000       0.01093132       0.00539696       0.00467522
O        1.19232657       3.53973595       3.65667414       0.00000000       0.04620556       0.03715124       0.07772559
C        0.02542087       5.70224473       3.54669580       0.00000000      -0.01603426       0.00040186      -0.00253154
C       -1.21981273       7.85839405       3.56259761       0.00000000      -0.00309790       0.01044621       0.02539077
C       -2.45482567      10.00714224       3.72830462       0.00000000       0.00023836       0.00361263      -0.01246702
C        4.95451020       1.45474420       3.82614777       0.00000000      -0.00522216      -0.00773886      -0.00488636
C        3.95293149       3.55293665       4.43491422       0.00000000       0.01477509      -0.03155018      -0.01015683
C        1.24998135       7.83514492       3.85042413       0.00000000      -0.00632524       0.00907940      -0.00337873
C        0.01592485       9.98652785       3.70694870       0.00000000       0.01481346       0.00687087       0.00767978
C        7.42477151       1.43904759       3.62460534       0.00000000      -0.01105683      -0.00761593      -0.00511725
C        6.21615790       3.57202901       3.61963804       0.00000000      -0.00855109       0.00363526       0.00399997
C        4.96653412       5.69986130       3.92676016       0.00000000       0.02252459      -0.00532859      -0.01273105
C        3.70348455       7.86602871       4.04774211       0.00000000       0.00089627       0.01671765      -0.00697150
C        2.48200443       9.99172901       3.78060722       0.00000000      -0.00376515      -0.00322772       0.00175332
C        9.89283669       1.44133980       3.59729256       0.00000000       0.00773218      -0.00481345       0.00113207
C        8.66117772       3.58171139       3.45849686       0.00000000      -0.00268285      -0.00420636      -0.01231151
C        7.42019496       5.72305619       3.55489662       0.00000000      -0.00233834       0.00724081      -0.00754843
C        6.18237783       7.85759559       3.79348514       0.00000000       0.00539211       0.00272820      -0.00840464
C        4.95035107       9.98923431       3.80002517       0.00000000      -0.01337948       0.00286958       0.00043053
Nb       1.78470419       4.84640633       5.20699616       0.00000000       0.39923872       0.67814002      -0.58736408
O        0.51670080       4.66514568       6.39120540       1.00000000       0.03403977       0.13090879       0.46563108
O        3.55733035       4.08535590       5.62239934       1.00000000      -0.40491720      -0.89743086       0.12566962
