52
Lattice="12.336457 0.0 0.0 -6.168228499999997 10.683685154694365 0.0 0.0 0.0 15.0" Properties=species:S:1:pos:R:3:forces:R:3 energy=-448.38248433511757 free_energy=-448.38248433511757 stress="-0.005153573668755275 -0.00032937570869598164 1.8481950309876297e-05 -0.00032937570869598164 -0.0035255822483211538 2.217984316568048e-05 1.8481950309876297e-05 2.217984316568048e-05 -1.640135712730482e-05" pbc="T T T"
C        0.02485418       0.01484698       3.78521140      -0.00351260       0.00195811       0.00388635
C       -1.20745909       2.16066954       3.74110680       0.00301760      -0.00076281       0.00242798
C       -2.43506486       4.29408309       3.95846132      -0.00212633       0.00008736       0.00629228
C       -3.66952028       6.44331731       4.03547834      -0.00168064      -0.00261153       0.00505623
C       -4.90391478       8.57888626       3.96839184       0.00289884      -0.00093071       0.00700224
C        2.49422499       0.00741970       3.63897304      -0.00035362      -0.00381740       0.00085659
C        1.22575254       2.06031095       3.20181355       0.00216832       0.00467069      -0.00219899
C        0.00196204       4.32280072       3.63186836       0.00327004      -0.00335800       0.00693531
C       -1.24549441       6.46176972       3.91377897       0.00161302       0.00491429      -0.00033779
C       -2.44243504       8.58693536       3.90452265      -0.00623289      -0.00120629      -0.00213950
C        4.96172170       0.03392703       3.71510636       0.00243804       0.00269654      -0.00101726
C        3.73942908       2.08605438       3.21098266      -0.00154924       0.00166756       0.00105840
C        1.18111878       6.50788655       3.82932015       0.00025228       0.00155878      -0.00447127
C        0.02577409       8.59422196       3.88266859      -0.00445185       0.00403516       0.00313551
C        7.43547897       0.02711509       3.85204513       0.00286013      -0.00465811      -0.00679984
C        6.19685340       2.17708340       3.68944657       0.00463787      -0.00379699       0.00413830
C        5.04185788       4.38819498       3.63341397       0.00350598      -0.00199326      -0.00056797
O        3.80812800       6.45408071       3.94506638       0.00064640      -0.00291322       0.00022494
C        2.52400352       8.55768478       3.92988384       0.00350841       0.00200384       0.00547223
C        9.90019704       0.01684777       3.89759014      -0.00454672       0.00900162      -0.00567471
C        8.66493941       2.16419787       3.89660967      -0.00055080      -0.00509490       0.00232197
C        7.43905545       4.30622604       3.97142117       0.00112586      -0.00368302      -0.00143923
C        6.22316096       6.46227241       4.05993949      -0.00176168      -0.00052671       0.00010760
C        4.96491245       8.55902081       3.99399378       0.00383135       0.00404516      -0.00864483
C        0.01895312       1.43231118       3.58901080       0.00311510       0.00052165      -0.00074959
C       -1.22055081       3.56789121       3.81619639      -0.00291593      -0.00120425      -0.00668109
C       -2.44730974       5.72740177       3.98330433       0.00132643       0.00320279       0.00300083
C       -3.66768436       7.86894463       3.98445969      -0.00202327      -0.00447790       0.00222771
C       -4.90410469       9.99597516       3.80397450      -0.00173396      -0.00251171      -0.00220630
C        2.49135955       1.40691884       3.30734269      -0.00076782      -0.00070097       0.00268762
S        1.00485164       3.58175182       2.30244922      -0.00327817       0.00015138      -0.00357651
C       -0.01083129       5.76324242       3.80370422       0.00177949       0.00049029      -0.00449581
C       -1.21414537       7.88105205       3.91316480      -0.00481668       0.00529268       0.00584094
C       -2.43830687      10.00273916       3.75898046       0.00128908      -0.00074692       0.00604369
C        4.96648200       1.45591905       3.53783381      -0.00030203       0.00410095       0.00642307
S        3.80256651       3.71453860       2.56551685       0.00741202       0.00878710       0.00547319
C        1.26005937       7.88914657       3.88569058      -0.00160294       0.00387297      -0.00168095
C        0.02754590      10.01213850       3.83068916       0.00077782       0.00131547      -0.00281974
C        7.42271006       1.45755700       3.82596754       0.00317949      -0.00855593       0.00038354
C        6.21618699       3.60023869       3.78158097       0.00384763      -0.00429738      -0.00143295
C        5.03378447       5.76679323       3.90584328      -0.00007239      -0.00007599      -0.00902353
C        3.75662850       7.86344265       3.97201572       0.00542298       0.00033244      -0.00608384
C        2.50639286       9.98697343       3.90972873       0.00154572       0.00192168      -0.00525763
C        9.90141616       1.45026114       3.86327820       0.00038631       0.00520684       0.00141896
C        8.66965033       3.58477774       3.96314155      -0.00048528      -0.00526083       0.00272346
C        7.44400380       5.72670631       4.04933429      -0.00207978      -0.00298810      -0.00714717
C        6.21165375       7.87692519       4.04083770       0.00353422       0.00089845      -0.00494907
C        4.95803603       9.98721524       3.91254446      -0.00779824       0.00636894      -0.00897891
Nb       2.12066389       4.75854571       4.13371639      -0.00152706      -0.00250598       0.00012195
O        1.92127153       4.27560401       5.86527982      -0.01375306      -0.00401789       0.00686538
O        1.76902321       3.79926011       7.19407240       0.00412678      -0.00722561      -0.00490358
H        2.01972989       4.58665151       7.72525952      -0.00359423       0.00081969       0.01115177
