52
Lattice="12.336457 0.0 0.0 -6.168228499999997 10.683685154694365 0.0 0.0 0.0 15.0" Properties=species:S:1:pos:R:3:forces:R:3 energy=-462.0614260720561 free_energy=-462.0614260720561 stress="-0.0061618576414268576 1.0658335719217698e-05 3.3212022449503614e-05 1.0658335719217698e-05 0.001293473057542325 2.5989769578575537e-06 3.3212022449503614e-05 2.5989769578575537e-06 -2.2119239672369864e-05" pbc="T T T"
C        0.00902106       0.00571386       3.71448965      -0.00302568      -0.00029230       0.01060466
C       -1.24259417       2.12050067       3.70601442       0.00073024      -0.00423996      -0.00194221
C       -2.48144456       4.26429250       3.60896407       0.00149881      -0.00128569      -0.00529385
C       -3.70089983       6.41569878       3.56003393      -0.00098330      -0.00078999       0.00014433
C       -4.92282803       8.56328248       3.63223365       0.00008622       0.01224475      -0.00223795
C        2.48061344       0.03419059       3.74070768      -0.00109003       0.00288778      -0.00022473
C        1.23656272       2.16190667       3.90993268       0.00357079       0.00629449      -0.00015774
C       -0.05680489       4.26349645       3.91464137      -0.00067641      -0.00265303      -0.00311582
C       -1.26888665       6.41821069       3.71671443       0.00581144      -0.00025051       0.00491408
C       -2.46732677       8.56300050       3.65331692      -0.00612376      -0.00286575       0.00194379
C        4.94328493       0.00472176       3.70936704       0.00119793       0.00193920      -0.00323354
C        3.74296606       2.17087263       3.86767034      -0.00083109      -0.00770451      -0.00291931
C        1.14330546       6.41305463       4.09444749      -0.00218504      -0.00447005       0.00008361
C        0.00202415       8.53691726       3.77082983       0.00078039      -0.00022633      -0.01112512
C        7.41584899      -0.03033348       3.69618110       0.00802415      -0.00307061      -0.00122944
C        6.18625955       2.12077827       3.65080272       0.00437074      -0.00030812      -0.00177485
C        4.98265437       4.25558296       3.79979404      -0.00076210       0.00221625       0.00266440
N        3.81672745       6.42054368       4.01647193      -0.00300240       0.00087532      -0.00344101
C        2.48909183       8.49980277       3.85486516      -0.00207448      -0.01007218       0.00420528
C        9.87460784      -0.02886495       3.69970858       0.00048127       0.00947888      -0.00767587
C        8.64177348       2.11607534       3.60236539      -0.00657542       0.00405778      -0.00524933
C        7.41091752       4.26665699       3.54906048       0.00533925      -0.00292214       0.00770038
C        6.18785831       6.41690748       3.62968149       0.00307357       0.00093162      -0.00404340
C        4.95385242       8.53075375       3.72818084       0.00394527      -0.00170659       0.00414414
C        0.00208040       1.42531742       3.77005751       0.00443856      -0.00451230      -0.00101327
C       -1.26880950       3.54409435       3.71900362       0.00011298      -0.00412689       0.00052829
C       -2.48138147       5.69744240       3.60780282       0.00396993       0.00210715       0.00480000
C       -3.69467686       7.84539650       3.60414430      -0.00638224      -0.00103016      -0.01511014
C       -4.92003501       9.99221992       3.69562942       0.00130912       0.00561875       0.00065479
C        2.48915261       1.46286546       3.85616583      -0.00415695      -0.00171533       0.00742673
C        1.14349055       3.54991065       4.09273752       0.00117383       0.00294795       0.01466731
C       -0.05685778       5.69961704       3.91409666       0.00213699      -0.00646055      -0.00003083
C       -1.24257210       7.84163414       3.70430162       0.00074012       0.00249025       0.00040998
C       -2.46202744       9.99042640       3.69918715      -0.00125718       0.00012040      -0.00235304
C        4.95371486       1.43112698       3.72978136       0.00263315       0.00201671       0.00011729
N        3.81762589       3.54148648       4.01972591      -0.00611981      -0.00508979      -0.01363567
C        1.23685040       7.80046662       3.90819264      -0.00514175      -0.00495005       0.01835321
C        0.00841593       9.95633281       3.71731817       0.00358369       0.00082983      -0.00368933
C        7.41345689       1.39823759       3.63133324       0.00130566      -0.00435567       0.00129316
C        6.18772826       3.54470272       3.62791123       0.00451097       0.00104867       0.00291407
C        4.98246994       5.70606136       3.79992345      -0.00102047       0.00502366       0.00119443
C        3.74282064       7.79163763       3.86658577       0.00116110      -0.00427515      -0.00942866
C        2.48023811       9.92804617       3.73920751       0.00818041      -0.00523521       0.01066173
C        9.86919915       1.39851565       3.65521411      -0.00645517       0.01456173      -0.01044894
C        8.63542105       3.54591658       3.55821081       0.00223773       0.00016193       0.00715979
C        7.41111201       5.69518417       3.55069085      -0.00132450      -0.00496760       0.00384302
C        6.18633247       7.84080038       3.65019458       0.00582476       0.00496692       0.00625114
C        4.94385430       9.95707474       3.70851020      -0.00570738       0.00296495      -0.00890531
Nb       2.50388483       4.98119093       4.82068588      -0.00459978       0.00439215      -0.01043238
O        2.36100649       4.98345229       6.60940600      -0.00035424      -0.00018037       0.00186840
O        2.28169474       4.98606889       8.03100266      -0.00566552      -0.00043932      -0.00193068
H        3.22936418       4.99019951       8.28823430      -0.00671435       0.00001903       0.01209442
