52
Lattice="12.336457 0.0 0.0 -6.168228499999997 10.683685154694365 0.0 0.0 0.0 15.0" Properties=species:S:1:pos:R:3:initial_magmoms:R:1:forces:R:3 energy=-458.83082514919624 free_energy=-458.83082514919624 stress="-0.0022738175349766273 -0.00029413613312807786 4.53247358770978e-06 -0.00029413613312807786 -0.008667562607093532 -4.261211735503956e-06 4.53247358770978e-06 -4.261211735503956e-06 -1.3883826537671794e-05" pbc="T T T"
C       -0.00323723       0.01367269       3.86720278       0.00000000      -0.00094683      -0.00282648       0.00027342
C       -1.23219271       2.16031707       3.79119658       0.00000000       0.00107210      -0.00719917      -0.00008941
C       -2.46913017       4.30055836       3.71494919       0.00000000       0.00075143       0.00337911       0.00327224
C       -3.70673122       6.43073959       3.77885658       0.00000000      -0.00053885       0.00250783       0.00314046
C       -4.94800070       8.55124567       3.83334540       0.00000000       0.00221865      -0.00384350       0.00842025
C        2.46701101      -0.01002458       3.79598048       0.00000000      -0.00682047      -0.00181005       0.00172332
C        1.22894329       2.11055661       3.59277677       0.00000000       0.00579179       0.00594617       0.00196838
C       -0.02228816       4.25746597       3.47718566       0.00000000       0.00776958       0.00690496       0.00417495
C       -1.24009860       6.43417198       3.69025162       0.00000000       0.00025219       0.00037983      -0.00026871
C       -2.45767643       8.54894668       3.89970199       0.00000000      -0.00431470      -0.00293200      -0.00300458
C        4.93349454       0.01662293       3.92575853       0.00000000       0.00306210       0.00436083       0.00290509
C        3.70672502       2.10710698       3.58237231       0.00000000       0.00004674       0.00608538       0.00896007
C        2.47545642       4.16628330       3.31479144       0.00000000       0.00302540      -0.00295600       0.00413150
O        0.83651904       6.25034985       2.50248148       0.00000000       0.00867924      -0.00517304       0.00005742
C        0.00092601       8.58329602       4.15490809       0.00000000      -0.00315097      -0.00073834       0.00142491
C        7.38973584       0.07510166       4.14105054       0.00000000       0.00475313       0.00058081      -0.00610407
C        6.16122591       2.16301699       3.80157028       0.00000000       0.00070173       0.00271941      -0.00279654
C        4.95339016       4.25858123       3.37016760       0.00000000      -0.00431739      -0.00201841       0.00312333
S        3.97186224       6.36053580       1.91309353       0.00000000      -0.00309793      -0.00378134      -0.01191615
C        2.46963967       8.68311145       4.31154029       0.00000000      -0.00240435       0.00765063       0.00186137
C        9.88138046       0.07020605       4.09514892       0.00000000      -0.00083043      -0.00386543       0.00093913
C        8.63330953       2.18394176       3.91107899       0.00000000      -0.00540108      -0.00279034       0.00324671
C        7.39778827       4.29955434       3.69409796       0.00000000      -0.00662867       0.00328710       0.00376046
C        6.16377676       6.43654871       3.56597520       0.00000000       0.00126795       0.00009429       0.00554641
C        4.92914045       8.57483024       3.99955870       0.00000000       0.00092237       0.00282336       0.00417030
C       -0.00363503       1.43290531       3.75540920       0.00000000       0.00629835      -0.00255665      -0.00107735
C       -1.24230708       3.57848396       3.66886908       0.00000000       0.00677974       0.00032826      -0.00887395
C       -2.46479857       5.72166266       3.72812649       0.00000000      -0.00233877       0.00449892      -0.00686601
C       -3.70377461       7.84496497       3.83016826       0.00000000      -0.00045529      -0.00215803       0.00209406
C       -4.94070508       9.97466322       3.83860995       0.00000000      -0.00539890      -0.00689883       0.00687312
C        2.46819089       1.40430636       3.65408898       0.00000000       0.00075682       0.00085287      -0.01361891
C        1.23695118       3.53609436       3.42886164       0.00000000       0.00578244       0.00419105      -0.00039762
C       -0.08203756       5.67795121       3.26501068       0.00000000       0.00132593       0.00325612      -0.00147586
C       -1.22120712       7.84319286       3.92257653       0.00000000      -0.00366665      -0.00137952      -0.00823794
C       -2.46419465       9.97473199       3.88330306       0.00000000      -0.00317228      -0.00015152       0.01001601
C        4.93467509       1.43260536       3.77474309       0.00000000       0.00219083       0.00542657      -0.01060448
C        3.70678821       3.53145377       3.37732554       0.00000000      -0.00018221      -0.00102706       0.00224894
C        1.24224485       8.00223399       4.35649950       0.00000000       0.00049503       0.00521098       0.00128154
C       -0.00747595      10.01797719       4.10108433       0.00000000       0.00408274       0.00281152      -0.00033335
C        7.39158322       1.48328305       3.96977980       0.00000000      -0.00201582      -0.00241309      -0.00021532
C        6.16753398       3.57854531       3.63341091       0.00000000      -0.00321801      -0.00047314      -0.00851566
C        5.01059957       5.67979863       3.09812533       0.00000000      -0.00159443      -0.00450427       0.00216784
C        3.68906623       7.97404013       4.19673304       0.00000000      -0.00398664       0.00543349       0.00121780
C        2.46965603      10.10600654       4.24992830       0.00000000       0.00083880       0.00187933      -0.00415221
C        9.87502855       1.47993064       3.94972345       0.00000000      -0.00412906      -0.00766252      -0.00284572
C        8.63203812       3.59594305       3.78058414       0.00000000      -0.00583053       0.00230858       0.00722265
C        7.38916819       5.72379988       3.68585244       0.00000000       0.00109228       0.00444424      -0.00366995
C        6.15058193       7.84368029       3.78315887       0.00000000       0.00341270       0.00241252       0.00406650
C        4.93776372      10.01091797       4.00900328       0.00000000      -0.00175563       0.00127320      -0.00602181
Nb       2.39389911       6.34769339       3.81738713       0.00000000       0.00291702      -0.01852072      -0.00487008
O        2.57055750       5.16780537       6.73073634       1.00000000       0.00444217      -0.00268280       0.00118986
O        2.49145237       5.74921745       5.53872602       1.00000000      -0.00453333      -0.00068511       0.00447766
