51
Lattice="12.336457 0.0 0.0 -6.168228499999997 10.683685154694365 0.0 0.0 0.0 15.0" Properties=species:S:1:pos:R:3:initial_magmoms:R:1:forces:R:3 energy=-448.78787219800125 free_energy=-448.78787219800125 stress="-0.0009967409033274015 -0.002251489829517957 0.0002217318277859556 -0.002251489829517957 -0.0004574826769322408 6.726554211783633e-05 0.0002217318277859556 6.726554211783633e-05 9.03261636063001e-05" pbc="T T T"
C       -0.03341094      -0.03970770       3.83438584       0.00000000       0.05116974       0.06995743       0.00220966
C       -1.27531330       2.10014136       3.99902346       0.00000000      -0.05463673      -0.10219100       0.04980334
C       -2.49704174       4.23713854       3.72718294       0.00000000      -0.05549750      -0.00259522       0.10664968
C       -3.70010338       6.37821783       3.50863291       0.00000000      -0.04948849      -0.02640509       0.02878494
C       -4.94989482       8.51839578       3.57239805       0.00000000       0.00809620       0.02754308       0.04130412
C        2.44355096      -0.05178782       3.79098933       0.00000000      -0.00157483      -0.03224093      -0.05590645
C        1.21798623       2.04059768       4.21786129       0.00000000       0.04260860      -0.00830541       0.01575863
C       -0.12872863       4.28353528       4.33734825       0.00000000      -0.13269555      -0.06440514      -0.00011992
C       -1.27229608       6.38247736       3.84337140       0.00000000      -0.06027410       0.14705722      -0.00714059
C       -2.48168759       8.51289699       3.64714837       0.00000000      -0.03450882      -0.01358139       0.11773127
C        4.90749161      -0.03254385       3.62585162       0.00000000       0.00187301      -0.08141536       0.02727740
C        3.62793149       2.05010675       3.46940370       0.00000000      -0.07017401      -0.10846360       0.08163515
C        1.12642351       6.41906545       4.37250346       0.00000000       0.03800738       0.01837806       0.02608171
C       -0.01857274       8.50649228       3.81705823       0.00000000       0.03953888       0.00710880      -0.03101327
C        7.36963419      -0.03773067       3.62689093       0.00000000       0.06366083      -0.10720970       0.09217407
C        6.12425084       2.10960590       3.39909119       0.00000000       0.01633314       0.07895922       0.09540706
C        4.95412561       4.32040888       3.19532962       0.00000000       0.05624488       0.03996077      -0.05045205
O        3.77206674       6.40539478       3.60558094       0.00000000       0.16844716       0.05263087      -0.05095915
C        2.46395049       8.47949247       3.77885351       0.00000000      -0.04475623       0.06461273       0.03444696
C        9.82768486      -0.03871089       3.72584228       0.00000000       0.09899964       0.00271152       0.00250675
C        8.60176492       2.10275783       3.65030594       0.00000000      -0.03593161       0.01412203      -0.02168040
C        7.38206695       4.24010731       3.40922507       0.00000000       0.06706691       0.10086284       0.06062541
C        6.18767016       6.40811809       3.38210112       0.00000000       0.05355682      -0.00107131       0.01934757
C        4.92209391       8.52828969       3.55434650       0.00000000      -0.09791561      -0.11722977       0.10797777
C       -0.03616084       1.37611840       4.07042664       0.00000000       0.04031574       0.07523036      -0.12855459
C       -1.28906817       3.53070537       4.02675693       0.00000000      -0.09539883      -0.12281088      -0.04208587
C       -2.47907205       5.66156705       3.66051975       0.00000000      -0.05390627       0.02905837       0.07317062
C       -3.70801950       7.80302210       3.55928680       0.00000000      -0.00274505      -0.02495022       0.00691069
C       -4.96357326       9.93154917       3.75361535       0.00000000       0.03761894       0.07172516      -0.02472399
C        2.44001435       1.36508682       3.87078958       0.00000000      -0.05726651      -0.05466814       0.00977071
P        1.27105105       3.57706024       5.07794706       0.00000000       0.00547182      -0.10062097      -0.05653296
C       -0.06501360       5.70238758       4.19131932       0.00000000      -0.03052959       0.03368039      -0.04628189
C       -1.25523672       7.79909676       3.76280604       0.00000000       0.01244099       0.10672634      -0.08022358
C       -2.48628238       9.93438255       3.69759735       0.00000000      -0.04093851      -0.04983885      -0.13029495
C        4.88892596       1.39877166       3.48002200       0.00000000      -0.00688892      -0.04141624      -0.01270509
S        3.39208618       3.64229326       2.83880428       0.00000000       0.01875217      -0.01238004      -0.01013287
C        1.21302793       7.76466137       3.99931899       0.00000000       0.00009459       0.05495433      -0.08376343
C       -0.02646889       9.92926846       3.67795142       0.00000000       0.02417821      -0.05838481      -0.04245964
C        7.35875395       1.39638115       3.54985626       0.00000000       0.00973528      -0.05899761      -0.06353787
C        6.13485883       3.53675078       3.30996495       0.00000000       0.08805101       0.12669073      -0.02842862
C        5.00071148       5.70160375       3.39270892       0.00000000       0.02590166       0.05704128      -0.01600467
C        3.71485767       7.83764249       3.66724358       0.00000000      -0.06689316      -0.02830525      -0.00645068
C        2.43559105       9.91709368       3.68264996       0.00000000       0.11498984       0.00787316       0.05561882
C        9.83393070       1.39296357       3.80797208       0.00000000      -0.03269773      -0.00974472      -0.11645655
C        8.61148934       3.52621618       3.58890970       0.00000000      -0.00017190       0.04428214      -0.06206500
C        7.40896317       5.66467995       3.40687831       0.00000000       0.00185997      -0.01422938      -0.03456366
C        6.16753081       7.82834955       3.47772770       0.00000000      -0.03346812      -0.02835723       0.03341819
C        4.90001630       9.94902356       3.69889283       0.00000000       0.06112963      -0.06088877       0.01682712
Nb       2.98831634       5.55875614       5.43453969       0.00000000       0.02036958       0.11165243       0.27288968
O        3.11212043       6.88807388       6.59000419       1.00000000      -0.06418064      -0.19113890      -0.05954996
O        3.90426803       4.13129317       6.05755903       1.00000000      -0.04397392       0.17902667      -0.11623962
