51
Lattice="12.336457 0.0 0.0 -6.168228499999997 10.683685154694365 0.0 0.0 0.0 15.0" Properties=species:S:1:pos:R:3:initial_magmoms:R:1:forces:R:3 energy=-695461.4734400274 free_energy=-695461.4734400274 stress="-857.9595072651845 1.5597154137146878 482.55343314202963 1.5597154137146878 971.8192841896996 154.7600569005056 482.55343314202963 154.7600569005056 508.34390438597836" pbc="T T T"
C        2.90334809       3.33667840       2.24572795       0.00000000   85857.00900587   -2637.97201135  140582.82710974
C       -4.40685179       3.41115618       3.16056831       0.00000000   -7007.71652549   -4484.25424113   -7233.03407633
C       -7.56233672       6.93394121       1.96341732       0.00000000   88901.27666348  112344.12181703   -2802.28320856
C       -2.75105452       1.23173120       2.19677731       0.00000000     -89.68630975      87.24267444      50.43448224
C       -7.18905701       7.30399406       1.92151625       0.00000000  -74776.31984228 -124178.04670596    3545.13662507
C       -2.68336624       1.76736939     -10.91317541       0.00000000    -546.15899157     338.21455336    -167.99696957
C        3.72753459       2.95992751       4.09194940       0.00000000  -94902.92408369   25848.33839182  -25041.18095857
C        2.28132243       3.97093551       4.52188369       0.00000000 -1007220.11762678  233173.55333236  382526.73081235
C       -9.20337487      14.24571623      16.92534974       0.00000000   -1030.30333118    -191.44961840    1660.89111628
C       -3.43988983       8.57074100       4.88915826       0.00000000     -85.82904879    -336.23705669      -3.07699031
C        8.11215799       2.17802830       1.77551721       0.00000000    -284.64433664     929.97309864     825.77370050
C        7.19395079       6.93244180      12.12289502       0.00000000     -11.43098389      -3.89891077      26.71242241
C        1.67441030       5.07171619       6.21024349       0.00000000   34300.57284039   62147.37861845 -132080.90268919
C       -4.18824719       5.86073482       4.87083578       0.00000000    4267.53802493     878.04748705    -633.12224258
C        5.83240220       0.92081048       0.85488854       0.00000000   -1517.96621714    1637.26629446   -1098.97516291
C        7.24172576       3.24183476       3.02533302       0.00000000   12999.19097801    1607.94577850    1179.07842534
C        7.22843059       4.58884122       1.30387350       0.00000000    5696.28753740    -278.43149219   -3492.07110116
O        6.30935427       7.46202800       2.24519543       0.00000000    2147.46389137    -593.30073929    3826.27125308
C        1.67373125       5.93409426       6.03868825       0.00000000  100761.62633618  -70550.38879762 -154311.30248248
C        8.66615521      -3.87342040       0.96904323       0.00000000   -4921.21307403    3599.53695067   -7280.59358793
C       13.98333518       2.72864353       1.09542886       0.00000000    4397.50554746     959.17770991    3311.60747845
C        6.69613551       4.92906373       2.57245284       0.00000000   13832.44988526    -903.42852385   -6227.39100719
C        6.68840140       4.12709747      12.86314670       0.00000000     -26.29564670       9.82624745      81.44081308
C        6.63550633       5.68951520       3.07410087       0.00000000   10348.55475056    7938.82539499   -2792.61651821
C        2.42250666       2.97462044       4.13539454       0.00000000    9928.08458439  142089.04991344   25648.31739615
C        0.19321322      -2.89490103      15.59145427       0.00000000   -8231.56206154   -1095.56934083    8877.57025341
C       -4.10805170      -3.62142489       7.27565638       0.00000000   -2511.11782515    7536.51175058    4858.96654716
C       -4.20392894       8.38069003       3.56681449       0.00000000   -1288.51666141   -1059.16900870    -852.18203164
C       -4.52067020      12.81373921      -7.95342920       0.00000000   -1312.13884056   -3603.80028757    3112.87766020
C        3.45910710       2.88709170       2.69216434       0.00000000  104807.87917160  144668.66767425  364236.49872699
S        4.28177071       3.84339468       2.50699225       0.00000000   60248.22976565 -305092.10469067  109106.22858754
C        0.31451518       9.40183860       3.16461548       0.00000000     167.65179240    -207.66040499     -41.87720324
C       -3.43947298       3.82459747      -0.38810888       0.00000000    -115.58841740     131.34331845      28.64876005
C       -4.54673599       9.72570496       3.85507124       0.00000000    -205.63108862     -94.36570348       8.75677235
C       20.36628229      -7.86860649      -1.80566892       0.00000000      63.01518879      16.64806285     222.72188323
S        5.03475559       4.00484357       3.35612658       0.00000000  192938.49374149 -365035.71034489     368.46582555
C        2.90190242       8.16027185      -0.74398863       0.00000000      37.13885508    -277.66136829     421.75526776
C        5.70382320      18.25769127      -3.26964320       0.00000000       0.10829749       0.42634501       0.03371136
C        4.38692302       2.37888035       1.09607761       0.00000000   17213.57942745  -19314.52790670  -34104.23852993
C        5.64394133       2.99620306       6.20215128       0.00000000   11392.97547211   -9528.79751509    5648.55228936
C        5.94868426       7.02217354       2.55491406       0.00000000   12403.55598036   24476.80140868  -18987.59416381
C        1.30320574      11.11475338       3.10601370       0.00000000     184.21315975     -20.29716903     -24.19231688
C       -1.19871364      18.10977504       9.00178397       0.00000000      79.40139830      43.81654851      49.73494429
C       -0.34243667      -1.06123314       4.36315056       0.00000000     171.74439483      20.67804648    -205.00521929
C        5.83725408       6.41305235       5.25207110       0.00000000   32976.91061399   21549.63076458   16361.15996984
C       11.37409438       1.02768204       3.92921424       0.00000000    -426.06496407    -410.90900629      62.28908600
C        3.80401839       9.37157622       8.34463905       0.00000000      12.79714833     -18.32902983      -8.15940233
C       -2.57623627       2.86672031      14.63615584       0.00000000       2.63746438      12.04068651     -19.38479177
Nb       3.33459096       4.35153327       4.20358947       0.00000000 2237382.05073571 8131247.55809170 -5013714.55417076
O        4.82735185       4.97878430       5.77606733       1.00000000  -17666.66496138  -92942.79095972 -160458.63267190
O        3.16323037       4.56227914       4.31459550       1.00000000 -1819342.05181495 -7920433.52012688 4494950.88557674
