51
Lattice="12.336457 0.0 0.0 -6.168228499999997 10.683685154694365 0.0 0.0 0.0 15.0" Properties=species:S:1:pos:R:3:initial_magmoms:R:1:forces:R:3 energy=-443.322378347109 free_energy=-443.322378347109 stress="-0.007237792279523948 -0.0007281927685293461 4.93514622671628e-07 -0.0007281927685293461 -0.0059139651907218075 2.2835582731996453e-05 4.93514622671628e-07 2.2835582731996453e-05 1.1629538117435021e-05" pbc="T T T"
C       -0.06495917       0.01335441       3.60939716       0.00000000      -0.00941909       0.00242245       0.00004635
C       -1.29849205       2.16196532       3.55687589       0.00000000       0.00047628       0.00012282       0.00216473
C       -2.55462520       4.29676147       3.80969393       0.00000000       0.00914394       0.00041137       0.00755304
C       -3.77134969       6.43536558       3.88626096       0.00000000      -0.00170049       0.00525167      -0.00110928
C       -4.99262818       8.57221093       3.78990769       0.00000000      -0.00091613      -0.00407141       0.00659143
C        2.41061849      -0.02152636       3.55873409       0.00000000      -0.00123664      -0.00489547       0.00476715
C        1.17060104       2.05337195       3.18668167       0.00000000       0.00159814       0.00596690       0.00431093
C       -0.15789109       4.35787587       3.67599607       0.00000000       0.00713685      -0.00586265      -0.00740666
C       -1.34081288       6.44072313       4.14350414       0.00000000       0.00178094       0.00158836      -0.00129298
C       -2.52937874       8.56890560       3.95504895       0.00000000      -0.00266459      -0.00976764      -0.00514998
C        4.87667472       0.01116725       3.72794383       0.00000000       0.00181109      -0.00553051      -0.00592859
C        3.65044308       2.06169032       3.11366797       0.00000000       0.00600022       0.00808273      -0.00306838
P        1.28447868       6.30249578       5.01165808       0.00000000       0.00268072      -0.00443089       0.00049123
C       -0.06989510       8.59372852       4.19136685       0.00000000      -0.00204474       0.00943285      -0.00382709
C        7.33809902       0.03129107       3.85403414       0.00000000       0.00213428      -0.00339121       0.00536150
C        6.11204084       2.15191704       3.54465607       0.00000000      -0.00079169       0.00192490      -0.00306770
C        4.91219881       4.33943952       3.34749281       0.00000000      -0.01135542       0.00450191       0.00952132
C        3.70346146       6.47266729       3.89985587       0.00000000      -0.00464587      -0.00012514       0.00171489
C        2.41245683       8.60867636       4.09770011       0.00000000       0.00241730       0.00691538       0.00038405
C        9.80863774       0.02995542       3.75849078       0.00000000      -0.00221303       0.00374082       0.00357615
C        8.57247869       2.15880122       3.71114266       0.00000000      -0.00588695      -0.00524706      -0.00541852
C        7.33726800       4.29247860       3.70811446       0.00000000       0.00201025       0.00614370       0.00030924
C        6.13696634       6.45888012       3.72976385       0.00000000       0.00201978      -0.00318533      -0.00353279
C        4.87239737       8.58163036       3.82734137       0.00000000       0.00613692      -0.00736857      -0.00566132
C       -0.07204347       1.43328148       3.44633514       0.00000000      -0.00078128       0.00474275       0.00206927
C       -1.33086403       3.57937359       3.66643863       0.00000000       0.00816135      -0.00448556      -0.00042943
C       -2.55398703       5.72015482       3.94870245       0.00000000      -0.00097840       0.00510789       0.00688503
C       -3.76478614       7.85946709       3.88731098       0.00000000      -0.00407789      -0.00174306       0.00491984
C       -4.99714451       9.98396968       3.66278707       0.00000000      -0.00810513      -0.00349556      -0.00234858
C        2.40620960       1.36779882       3.24031962       0.00000000       0.00479756       0.00621719       0.01120362
S        1.22064469       3.73762841       2.83727784       0.00000000      -0.01378601      -0.00001682       0.01088125
C       -0.14889686       5.67196123       4.19523555       0.00000000       0.00010558      -0.00711540      -0.00079488
C       -1.30873061       7.86812301       4.15519798       0.00000000      -0.00021642       0.00296357      -0.00557658
C       -2.52433100       9.97770244       3.75882316       0.00000000       0.00075788      -0.01120280       0.00096720
C        4.88107180       1.41737011       3.44970371       0.00000000       0.00350233      -0.00233093      -0.00180337
P        3.75909177       3.59517833       2.14832663       0.00000000       0.00571567       0.00545202      -0.00420630
C        1.18417639       7.95092445       4.38690405       0.00000000      -0.00122468       0.00894694       0.00012734
C       -0.06535827      10.00413364       3.93731521       0.00000000       0.00237723       0.00300208      -0.00338193
C        7.34136953       1.44536373       3.70750616       0.00000000      -0.00480358      -0.00832128      -0.00076534
C        6.13573762       3.56659507       3.52673942       0.00000000      -0.00375526       0.00716912      -0.00111667
C        4.90138157       5.76444481       3.67012824       0.00000000      -0.00120190       0.00733328      -0.00201588
C        3.63969767       7.87765484       3.95383544       0.00000000       0.00210685       0.00065500      -0.00558115
C        2.40794395      10.01567647       3.90559886       0.00000000       0.00224522       0.00475344       0.00249562
C        9.81393285       1.45225781       3.67478753       0.00000000      -0.00346383       0.00112467       0.00222623
C        8.56231484       3.58033571       3.74805748       0.00000000       0.00454841      -0.00018691      -0.00447446
C        7.34417782       5.72489703       3.76982159       0.00000000       0.00319699       0.00505743      -0.00317237
C        6.11090436       7.87221785       3.78967635       0.00000000       0.00648500      -0.00814442      -0.01055496
C        4.87175414       9.99758013       3.74276347       0.00000000      -0.00570078      -0.00370519       0.00140354
Nb       3.08399003       4.56829722       4.40551082       0.00000000       0.00462343      -0.00626119       0.01214697
O        4.58253532       3.97509439       7.09616693       1.00000000      -0.00328720      -0.00391045       0.00777983
O        3.92635040       4.24639931       5.97744711       1.00000000       0.00028677      -0.00423578      -0.01821255
