51
Lattice="12.336457 0.0 0.0 -6.168228499999997 10.683685154694365 0.0 0.0 0.0 15.0" Properties=species:S:1:pos:R:3:initial_magmoms:R:1:forces:R:3 energy=-1248452.5142130887 free_energy=-1248452.5142130887 stress="887.3751737006082 374.4630352299373 -295.0168124844961 374.4630352299373 1076.040564690895 -720.6451733346054 -295.0168124844961 -720.6451733346054 553.1076626497905" pbc="T T T"
C       -4.86746143      -3.56141772       2.57342178       0.00000000      86.26424025    -471.23062647      65.53125259
C        1.04630024       7.46765017       1.48625992       0.00000000     -20.79577118      -9.01229926      19.44757520
C       -3.59392064       2.67989129       5.94260369       0.00000000    -396.47728308     -71.38297650      51.83961243
C       -6.92666247       7.82840380       4.05323595       0.00000000    -244.07668687    -302.87848450      29.27827350
C       -4.19038330      10.95001376       4.68382133       0.00000000     576.66150055    2817.10401098    1935.85429514
C        2.55850715       0.15035927       1.56331862       0.00000000     464.83118305    -663.57217831    -602.83223576
C       -7.35045044       0.67953708     -11.86456575       0.00000000     140.15116984     -47.45572415     -19.44923478
C        4.18247866      -2.88133821       7.85628945       0.00000000      27.21789450      19.24725751     -10.04696995
C        1.21116977       1.58693455       1.79353373       0.00000000     891.89201257     592.48135265    -908.28421768
C       -1.69302257       7.49516490       6.37581428       0.00000000    -104.50199175     394.54419561    -123.38101508
C        3.63995835       0.34356974       1.26934760       0.00000000      42.55196441     -45.44207098     -77.71159023
C        4.07208988       1.73232670       1.80188284       0.00000000      25.45466763      37.07396720      91.56750230
C        1.37634191       4.28370508       5.80264030       0.00000000  757967.83563473 -738885.24640039 1273435.51964734
C        1.29866695       6.44521493       5.23443966       0.00000000    7240.12238925  -18036.87809027    -292.54937337
C       -1.33911067      10.14037767      -1.03132034       0.00000000      -2.69355900       0.84766576       2.54329905
C        3.55717224       8.18262586      -1.40389216       0.00000000       0.24387100      -1.99376355      -4.46179922
C        1.94873434       1.57349058       3.64147758       0.00000000    2676.86119434   -3522.99705606    -854.86160847
N        2.03985773       5.94270582       9.02596391       0.00000000    -703.30990859    4136.80222275    5314.14069970
C        2.75510997       6.24872162       9.73314182       0.00000000     425.02151458     429.30703657     334.85594942
C       12.20255689       1.51368156       4.25544361       0.00000000   -4803.05781119   -6928.33755105   -3747.70573451
C       11.26445849       2.23653344       3.94823031       0.00000000   -3154.92059921     555.93029313   -1115.84835120
C        5.83196634       8.36702044       3.71625639       0.00000000    -105.50594456    -219.97412673    -226.75184996
C        5.43725746      10.54662096       2.09222518       0.00000000    -326.13936550   -1043.79785407    -874.54976273
C        6.13132496       4.35102266       7.78739416       0.00000000       3.41501486     425.12762406     206.07324602
C       -4.19099278       3.84443202       5.95935248       0.00000000      90.11987731     -82.82305276     -65.05052769
C        5.60498093       4.95771625      -1.67115785       0.00000000      -0.95071719       1.42655011      -2.26975394
C       -0.00655193       7.79690885       4.21707938       0.00000000     692.50851376    -931.59103623     233.61171511
C       -2.87143251       7.10200316       3.83112708       0.00000000      67.29177963     -20.92682676      13.94526047
C       -0.92639704       7.25093838       3.40743878       0.00000000    -518.45217173    -193.01843970    -232.27601206
C        0.38528896       1.46939875       1.02201973       0.00000000     -79.96368286     198.95927562   -1098.90128974
N       -0.96936305       3.97053598      -4.63944119       0.00000000     249.73595971      48.69286784    -877.81582350
C       -0.42888071       2.20381834       3.24482538       0.00000000   -1739.29752319    1501.42438678   -1341.22246805
C        2.06721434       5.36084295      -1.18408615       0.00000000       0.42342042      -0.16672133      -2.03214728
C       -6.83156791       7.42106439      11.70616288       0.00000000      -8.53974017      -8.36591792      -5.12823111
C        0.66167872      -0.42078364       4.60912567       0.00000000    2557.28805392     180.65153412     918.07528838
C        3.17136639       3.07493921       6.49129474       0.00000000  -78292.35111833   -6195.10935096   16232.09578598
C        5.65554996       5.45504358       6.61949453       0.00000000    -268.27089644     354.97083605     621.77455769
C        7.38842327       6.03795759      11.28109317       0.00000000      -5.08444514       3.45407367      -0.93744285
C       11.90314021      -0.35181760       8.35140351       0.00000000     -74.92330532     283.47850533     -86.32950673
C        4.89462048      10.32314814       3.08460053       0.00000000    -842.75446492   -1251.05786866    -308.87546395
C        2.66830742       2.13386361       6.24839562       0.00000000  -59521.98811254   53379.51042560  -19560.68229000
C        3.13858107      18.35683359      -1.18174663       0.00000000       0.40516476       0.10575161      -0.08118346
C        4.68818541       5.64510114       7.41633017       0.00000000     100.72011626    -734.21306223    -749.91683440
C        6.83700009       0.54552431       3.61391556       0.00000000     -26.04908978     -14.58260532     -13.70554257
C        6.70773840      10.49888149       1.42750417       0.00000000     -32.24230668    -599.42855643     -65.88858021
C        6.84758568      11.38525433       2.05861936       0.00000000     375.27990489   -1646.22525104   -2697.77194582
C       13.05174108       6.78634666       4.44043291       0.00000000    1212.34671177    2039.16447714     713.65689587
C       11.35380733       8.89837033       5.80494420       0.00000000     -34.53294117     -12.60706081      61.30102447
Nb       1.25828796       3.57935379       6.45538730       0.00000000 8750287.21018932 5901798.93697668 -3729393.53148360
O        1.68144257       2.67447955       6.76306311       1.00000000  -58481.21944260  654670.67567634  -73891.40748933
O        1.43097002       3.73811197       6.33841203       1.00000000 -9316413.75506433 -5841929.60201068 2538971.14587859
