53
Lattice="12.336457 0.0 0.0 -6.168228499999997 10.683685154694365 0.0 0.0 0.0 15.0" Properties=species:S:1:pos:R:3:forces:R:3 energy=-474.94538190402045 free_energy=-474.94538190402045 stress="-0.002066139681036079 -0.00028275544243999126 -8.56773348129089e-06 -0.00028275544243999126 -0.0028207510445207116 1.0201888040368357e-05 -8.56773348129089e-06 1.0201888040368357e-05 2.142977799542779e-05" pbc="T T T"
C        0.04936888      -0.01418302       3.66174142       0.00296599       0.00043719      -0.00352857
C       -1.18454326       2.12324609       3.72153091      -0.00006512       0.00446210      -0.00019203
C       -2.41665346       4.26100273       3.70143383      -0.00401890      -0.00312034       0.00130535
C       -3.65031670       6.39648070       3.63351386      -0.00363389       0.00032948      -0.00562676
C       -4.88261974       8.53440221       3.62183404       0.00081871       0.00170367       0.00161189
C        2.51713747      -0.01732624       3.63119210      -0.00177334      -0.00146729       0.00328099
C        1.28149617       2.10839848       3.80159803      -0.00274763       0.00010561      -0.00294657
C        0.04199401       4.25367488       3.93709446       0.00083115       0.00268736      -0.00102076
C       -1.18720294       6.40191241       3.74572690       0.00335648      -0.00248130       0.00065486
C       -2.41892161       8.53397665       3.60832048       0.00043892       0.00130905      -0.00232301
C        4.98474481      -0.01454173       3.64524376       0.00146107       0.00077954      -0.00002431
C        3.75032893       2.11107072       3.78978595       0.00015940      -0.00200202      -0.00108020
C        2.51302682       4.14680560       4.29542998      -0.00093022       0.00161001      -0.00016025
C        1.20933848       6.44343174       4.22365927      -0.00149337       0.00032293       0.00555721
C        0.04293922       8.53613798       3.75248837       0.00205418      -0.00298086       0.00096461
C        7.45118754      -0.01282595       3.71131962      -0.00262775       0.00303955      -0.00411770
C        6.21623748       2.12447367       3.71002099       0.00290435       0.00128983      -0.00083979
C        4.98878799       4.25739413       3.92937277       0.00172796      -0.00003915      -0.00326886
C        3.83748849       6.45608637       4.27635394      -0.00190188      -0.00077166      -0.00549772
C        2.51805045       8.54604811       3.93587667       0.00102554      -0.00014613       0.00180237
C        9.91852120      -0.01217920       3.72041162       0.00020710       0.00144661       0.00243548
C        8.68422083       2.12508309       3.68262423      -0.00233184      -0.00246156      -0.00329350
C        7.44967197       4.26174981       3.69921417      -0.00105321      -0.00278236       0.00211198
C        6.22365709       6.40283273       3.76552000      -0.00241373       0.00219526       0.00202954
C        4.99350972       8.54081998       3.78601836       0.00441406       0.00022184       0.00126955
C        0.04986698       1.40867366       3.71370321      -0.00147766       0.00101416       0.00049864
C       -1.18178274       3.54873838       3.77201927       0.00027414       0.00409635      -0.00078161
C       -2.41422992       5.68683972       3.67706592      -0.00101828      -0.00202737       0.00011937
C       -3.65051907       7.82070892       3.60501268      -0.00149616       0.00192039       0.00000342
C       -4.88510873       9.95729265       3.62403443       0.00009863      -0.00036483      -0.00216845
C        2.51665111       1.40334764       3.73269755      -0.00232536      -0.00243331      -0.00167538
C        1.28186459       3.52763588       4.01948015      -0.00300915      -0.00000676       0.00242014
C        0.05226437       5.69641149       3.95887439       0.00284128      -0.00026437       0.00496364
C       -1.18492881       7.82241190       3.68563462       0.00135399      -0.00152294       0.00251216
C       -2.41692642       9.95683182       3.61205138      -0.00001123       0.00131228       0.00351577
C        4.98226049       1.40951677       3.69985273       0.00340049       0.00115331      -0.00109330
C        3.74700834       3.53154271       4.00711837       0.00078468      -0.00042501       0.00390900
C        1.27433704       7.81775339       3.96356296       0.00134094      -0.00277915       0.00083131
C        0.04929598       9.95549593       3.68726716       0.00078373      -0.00077537       0.00053458
C        7.44941714       1.41161822       3.68578704      -0.00105114       0.00157995      -0.00730863
C        6.21287155       3.55107481       3.76275178       0.00146017      -0.00080604      -0.00117224
C        4.98752448       5.69796418       3.98226597       0.00108507      -0.00059459       0.00708815
C        3.76366711       7.82947488       4.00260880       0.00334067      -0.00009662      -0.00084203
C        2.51705392       9.95707322       3.77532273      -0.00259816       0.00122825       0.00091105
C        9.91892045       1.41157944       3.69133525      -0.00055677       0.00258440       0.00194340
C        8.68457365       3.55089712       3.67727833      -0.00354715      -0.00557509      -0.00026822
C        7.44991010       5.68736251       3.68218475      -0.00435115      -0.00077322       0.00464527
C        6.22146792       7.82454092       3.71309303       0.00297226       0.00142335      -0.00064885
C        4.98501071       9.95793322       3.70738943       0.00309626       0.00074008       0.00130057
Nb       2.56907538       5.59799740       5.92409180      -0.00087351       0.00116676       0.00559556
O        3.94811308       5.05735543       6.86685571      -0.01340447      -0.00234923      -0.00312261
O        1.00567239       5.92888344       7.05714255      -0.00084882       0.02090127       0.01373494
H        0.64753389       6.65980117       7.58578249       0.01636269      -0.02201401      -0.02454945
