52
Lattice="12.336457 0.0 0.0 -6.168228499999997 10.683685154694365 0.0 0.0 0.0 15.0" Properties=species:S:1:pos:R:3:forces:R:3 energy=-448.59205807354937 free_energy=-448.59205807354937 stress="-0.006915721193279157 -0.0031332287552381906 9.947214893650978e-06 -0.0031332287552381906 -0.006744714516071853 1.7136696864102227e-05 9.947214893650978e-06 1.7136696864102227e-05 -1.6500922538515555e-05" pbc="T T T"
C       -0.03677595       0.03797275       3.90897372      -0.00253523      -0.00435087      -0.01249917
C       -1.30105026       2.15269397       3.96868525      -0.01356194      -0.00172993      -0.00354562
C       -2.53066745       4.30424970       3.96101377       0.00490581       0.00614631      -0.00316959
C       -3.73234033       6.44993201       3.88745779       0.00838152      -0.01270738       0.00309942
C       -4.95562307       8.59444648       3.88352051      -0.00272745      -0.00517200       0.00963194
C        2.42202046       0.03517804       3.74489224       0.00219341       0.00099823      -0.00444165
C        1.14673100       2.12283048       3.70603223      -0.00494514      -0.00080374       0.00172946
C       -0.13224175       4.26185261       3.79139738      -0.00457660       0.00543780       0.00954849
C       -1.28140199       6.42543214       3.74522007       0.00292528       0.00963563      -0.00646672
C       -2.48841173       8.57236220       3.78733522       0.00136867       0.00376379      -0.00248864
C        4.88993778       0.03435916       3.74695847      -0.00675856       0.01433970      -0.00164189
C        3.65548634       2.12467460       3.37046331      -0.00105369       0.01217586       0.00654806
S        1.31769115       6.32372370       2.92442598      -0.01370252      -0.01185669       0.00372990
C       -0.03070380       8.57472074       3.69382462       0.00432326      -0.00062767      -0.00185782
C        7.34894622       0.04177089       3.87729164      -0.00273989       0.00331249      -0.00227118
C        6.11458422       2.18165094       3.72437861       0.00034095      -0.00267185      -0.00382234
C        4.94167013       4.35406467       3.46542884       0.00332458       0.00945922      -0.01594602
C        3.74606096       6.51709898       3.93198353       0.00564583       0.00071229      -0.01327507
C        2.43436892       8.60818563       3.82229219       0.00457688       0.00317886      -0.00018062
C        9.82137382       0.03941227       3.98430919       0.00960613      -0.00906600       0.00051417
C        8.57263897       2.17290434       3.96280343       0.00586599       0.00242170       0.00795829
C        7.35547656       4.31239701       3.87353283      -0.00360303      -0.00848070      -0.00070457
C        6.17493452       6.47907154       3.82496809      -0.00259388       0.00084829      -0.00821956
C        4.90877495       8.60311135       3.93657300      -0.00709565      -0.00959712      -0.00982940
C       -0.05594116       1.46041760       3.87260351      -0.00759564       0.00004141       0.00774552
C       -1.31391060       3.56458750       3.95696261      -0.00482089       0.00139209      -0.00889650
C       -2.51163614       5.72236181       3.88792993       0.01408519       0.00176191       0.00194605
C       -3.72715843       7.87284170       3.85246602       0.00428452      -0.00951924       0.01177215
C       -4.96973192      10.01785898       3.85670376       0.00227399      -0.00355941      -0.00659895
C        2.39122710       1.46659803       3.59108767      -0.00096109       0.00082366       0.00202738
O        1.07871220       3.54168108       3.62227138      -0.00481138       0.00300788       0.00312352
C       -0.11795823       5.63255221       3.58615249      -0.00773782       0.00500855      -0.00121491
C       -1.25913009       7.85233110       3.71634157       0.00341874       0.00698832      -0.00356021
C       -2.50756956      10.00408343       3.75260238       0.00092653       0.00757721       0.00790710
C        4.88335933       1.46155184       3.63391175      -0.00312172       0.01179419      -0.00760556
S        3.82368495       3.56066776       2.29229641       0.00964815       0.00547688       0.00393897
C        1.22333758       7.92845959       3.56216592       0.00930202       0.00035176      -0.00311869
C       -0.04085365      10.00674460       3.79385730      -0.00967635       0.00345785      -0.00142245
C        7.33942842       1.46800627       3.87912520       0.00556687       0.00177456       0.00452801
C        6.14305007       3.59203078       3.71602284      -0.00761119      -0.00638172       0.01467294
C        4.93495334       5.78323865       3.72968473      -0.00234338       0.00108295       0.00726138
C        3.67471072       7.90514633       3.89828950      -0.00210763      -0.00452042      -0.00547792
C        2.41822087      10.02418528       3.92896868       0.00552164       0.00445051      -0.00686414
C        9.81367195       1.45857316       3.99627999      -0.00203896      -0.00730981       0.00721568
C        8.57610198       3.59383895       3.95756765       0.00586939       0.00388681       0.00740380
C        7.37769970       5.74332286       3.86913412      -0.00409746      -0.00729934       0.00167729
C        6.15098307       7.89313243       3.90133992      -0.00970439      -0.00228489       0.00564262
C        4.89655714      10.01967006       3.96241472       0.00235669      -0.01187019      -0.00310403
Nb       2.91977635       4.64707369       4.20966432       0.01598330      -0.00508556      -0.00450894
O        3.37092155       4.24925209       5.90738226       0.01369096      -0.00754532       0.00194552
O        3.66216799       3.77921193       7.21269608       0.00548160       0.00222486       0.00926256
H        4.12326033       4.54705575       7.61758016      -0.01934646      -0.00109172       0.00190194
