53
Lattice="12.336457 0.0 0.0 -6.168228499999997 10.683685154694365 0.0 0.0 0.0 15.0" Properties=species:S:1:pos:R:3:forces:R:3 energy=-469.57133378539163 free_energy=-469.57133378539163 stress="-0.0020611395084334286 0.002698518464631537 5.455708833267645e-06 0.002698518464631537 -0.0028992708186113014 -7.027203293307268e-07 5.455708833267645e-06 -7.027203293307268e-07 1.790979984868212e-05" pbc="T T T"
C        0.05960093       0.02913343       3.71782791       0.00131780       0.00013914       0.00043099
C       -1.15718554       2.17730103       3.86764613       0.00146021      -0.00009080      -0.00217038
C       -2.38396178       4.30821939       3.82477872       0.00288260       0.00075008      -0.00611904
C       -3.63456438       6.43598454       3.64901490       0.00259088       0.00241500       0.00409587
C       -4.89458789       8.56456665       3.56848329      -0.00735341      -0.00340686      -0.00315492
C        2.52049746       0.02166701       3.69713369       0.00696539      -0.00400832       0.00640349
C        1.30039435       2.15814716       3.89279393       0.00653778       0.00395961      -0.00176838
C        0.08289439       4.33234311       4.07651726      -0.00555403      -0.00027104      -0.00274026
C       -1.17678100       6.45717471       3.85154513      -0.00516820      -0.00520289      -0.00052462
C       -2.41906263       8.57508182       3.67911342       0.00121917      -0.00048667      -0.00299609
C        4.99339123       0.02470694       3.71206609      -0.00205121       0.00240377      -0.00014477
C        3.77321383       2.14417290       3.77365808       0.00356862      -0.00625948       0.00080594
C        2.59439875       4.19736092       4.23655280       0.00300697      -0.00353051       0.00297040
N        1.16144956       6.56825742       4.35475917       0.00075240       0.01260739      -0.01378509
C        0.04082367       8.58178056       3.79353084      -0.00376589       0.00505986       0.00274802
C        7.46506791       0.03089411       3.79001317      -0.00556254      -0.00303275       0.00683779
C        6.24560346       2.15387626       3.74038520       0.00312257      -0.00015036      -0.00216689
C        5.02764803       4.27800042       3.62608640      -0.00167946       0.00589270      -0.00660588
S        3.63551421       6.37088473       2.62828797      -0.00085899       0.00179036       0.00010216
C        2.50903944       8.57231811       3.75206143       0.00762156      -0.00076807       0.00162219
C        9.93472559       0.03272389       3.76663276      -0.00623864      -0.00417939      -0.00157322
C        8.71281694       2.16756635       3.79533146       0.00751338       0.00112273       0.00271274
C        7.48728942       4.29464010       3.66561968       0.00906028       0.00188206       0.00942646
C        6.23814551       6.42445803       3.42889763      -0.00088840       0.00025769      -0.00307116
C        4.98083340       8.57494177       3.50125670      -0.00858388      -0.00673171       0.00525211
C        0.06862519       1.45561034       3.83400949       0.00544363       0.00478496      -0.00616006
C       -1.14760898       3.60761064       3.92621056      -0.00239508      -0.00091445      -0.00881315
C       -2.39701903       5.73070146       3.77156375      -0.00346836      -0.00257333       0.01062821
C       -3.65142496       7.85795924       3.62060214      -0.00236461       0.00242655       0.00319451
C       -4.88402916       9.99466135       3.65421127       0.00230375      -0.00309809       0.00256214
C        2.52796707       1.44330462       3.78840499       0.00493739      -0.00414793       0.00368331
C        1.32289537       3.59065643       4.09571171      -0.00175759       0.00323746      -0.00035424
C        0.04904355       5.78013520       4.09343112      -0.00159035       0.00296218       0.00531537
C       -1.18872670       7.86935865       3.77029496      -0.00168950      -0.00407830      -0.00049354
C       -2.41329954       9.99920827       3.68207499       0.00468202      -0.00107866       0.00014574
C        5.00490140       1.44341386       3.72655510       0.00251777      -0.00194505       0.00096456
C        3.79009619       3.57023692       3.85985848       0.00334740      -0.00513561      -0.00089801
C        1.24872152       7.87560152       3.94137333       0.00296206       0.01429907      -0.00511300
C        0.05897688      10.00498586       3.74941490      -0.00749197       0.00264088      -0.00353522
C        7.47624729       1.45182607       3.77579059       0.00407875      -0.00061565       0.00543863
C        6.25989622       3.57391538       3.68065132       0.00210515       0.00517048       0.00937818
C        5.05952603       5.65399283       3.29537262      -0.00839205       0.01049147       0.00056327
C        3.72260186       7.92419750       3.40071240      -0.00031159      -0.00831002      -0.00474590
C        2.52745124      10.00470589       3.78888570      -0.00508532      -0.00576198      -0.00105245
C        9.94584126       1.46093710       3.81737866       0.00251870      -0.00253712       0.00101683
C        8.72103125       3.59049550       3.76248306       0.00866779       0.00182699       0.00895105
C        7.47635078       5.71705596       3.58436992       0.00504219       0.00172288      -0.00351088
C        6.20961503       7.85041455       3.45722819      -0.00998143      -0.00454539      -0.00167081
C        4.99296928      10.00167144       3.67664636      -0.00503315      -0.00355689      -0.00219085
Nb       2.50746938       5.67524853       5.74453405      -0.00701145      -0.00300378      -0.00157726
O        4.05967439       6.45672097       5.98148682       0.00046648       0.00063851      -0.00532276
O        1.61154076       5.00308043       7.31867177      -0.00289351       0.00681696      -0.00134381
H        1.52324302       5.25577184       8.25332212       0.00047790      -0.00587768      -0.00164732
