51
Lattice="12.336457 0.0 0.0 -6.168228499999997 10.683685154694365 0.0 0.0 0.0 15.0" Properties=species:S:1:pos:R:3:initial_magmoms:R:1:forces:R:3 energy=-1028414.8695496895 free_energy=-1028414.8695496895 stress="1189.6501488675178 959.7927882848386 -525.3973770025309 959.7927882848386 4146.148054061282 -889.1310222645417 -525.3973770025309 -889.1310222645417 158.15011554478136" pbc="T T T"
C       -3.89677084      -2.22630595       5.80349931       0.00000000  253861.02041977  598544.90712880 -663966.68029554
C        8.19513973      -0.99381487       3.85278037       0.00000000   -5285.21753371    4238.39143091  -13595.88652756
C      -12.53478965       2.73601788       4.34334247       0.00000000   -1815.89640021   -3271.93583381    1272.20227292
C       -0.58799063      -1.54271543       1.12014029       0.00000000     -11.69375802       3.04295808      38.38964605
C       -2.74112964      11.19545913      -2.05732737       0.00000000      -1.03589442      -1.52723616      -0.60109970
C        4.31501105     -12.03120886      -6.80256466       0.00000000   -3172.85472185    -625.40458713   -2982.56578817
C        0.67917985       5.49856718       5.73563756       0.00000000 -213593.14020572  105163.14087553  -62759.49288374
C        3.76387474       5.74995676      -3.11255923       0.00000000  -20460.96976353   11500.56039348   -9185.09472109
C        2.91330241       5.31894351      -2.66313386       0.00000000    1097.60710009     195.83998902    -235.10859530
C        1.03453471       8.97489374       3.45495066       0.00000000   -1976.88215469    -770.44639254   -5465.17710131
C        6.57537062       0.98581887       5.30974617       0.00000000    2465.90298052   35673.40351606   24197.90991933
C        2.05228533       5.59442427       6.06774500       0.00000000 9287369.03203958 21710006.60667413 -5900056.36684768
S       -7.34582374      -6.70653190       7.61734071       0.00000000   11104.57105434    2954.11187022   -1100.79530635
C       -0.01975704      10.02409058       4.82877127       0.00000000   -1898.89054140     179.08312987    1184.45329930
C        7.55895636       1.95003784       5.50201104       0.00000000      77.26033382   -2063.03244399    -112.38541729
C        8.11538509      -0.57149175       2.47641259       0.00000000     602.91572896     271.70280622    2878.19950662
C        1.26466959      15.39740118       6.25564907       0.00000000     296.89119264     -19.58878249       0.86784187
C        7.05839153      11.37311633       9.20789383       0.00000000     -77.39421145     453.26119513    -270.83282092
C        3.47989016       6.74048929       3.53702949       0.00000000  -15173.85357639     234.57610748   34651.25991383
C        8.37208130      -2.36879661       6.01865637       0.00000000 -243922.63782190 -395014.71318612  688474.84657079
C        7.56507333       0.50028148       4.78594703       0.00000000   -3774.90030995    3198.00219845     733.10402646
C        4.31331499      10.53047478       0.63893752       0.00000000      -0.25034096     -14.31524295       8.21458532
C        7.57876271       8.67119734       9.66091810       0.00000000      15.37572811       3.01117486     -24.70094992
C        2.06121214       7.91771554       7.66584973       0.00000000   -8099.77761876   61608.73351136   49676.77162724
C       -2.14779511      -1.16536472       4.37896584       0.00000000   13575.43479302    3954.91158351   -9421.89246308
C        0.56307264       3.95069845      11.92418412       0.00000000      -2.58070349      -6.24387523    -175.66656046
C        1.96880737       9.66391667      10.52050166       0.00000000      37.05351017      44.80034738    -283.11452897
C       -3.32294875       5.16919208      -6.23004699       0.00000000     372.29741029     -94.78843410    -162.81296378
C        0.39703154      11.26323060       5.04242467       0.00000000    2790.07640964  -36131.21837188  -25786.34858699
C        0.55270683       4.01807505       7.26920336       0.00000000  -15359.21107474  -20735.17192153  -13381.13078586
O        0.46538461       6.26340992      11.36880223       0.00000000    -243.48227756       3.40345803     530.43735550
C        0.75127548      -0.89946802       0.14661972       0.00000000      -5.28455077      -4.46872370       3.63763394
C       -8.17186530       5.52514076      -2.93347981       0.00000000   19396.59844603  -11703.08229758    9345.88808810
C       -9.00262443       2.42886104       4.56058022       0.00000000     459.40488432   -2109.63736997    -740.13356176
C        0.92151880       3.94966788       6.84509796       0.00000000 -405813.18057813 -569976.91953309  305775.68155940
S        3.46342548       6.14974489       2.43540864       0.00000000    7865.40111863    6824.12069999  -21175.10910159
C        1.97554137       7.92179669       3.10814027       0.00000000   -1910.38786443   -5735.26990724    5936.97196739
C        2.61524127      11.24639274       2.93142614       0.00000000    -462.86138153   -1977.32855912    1975.42446507
C       10.60514002       6.93937917       5.58505597       0.00000000   -1140.60496315    2905.43331351    -601.07975700
C       10.87693973       7.64073194      -7.93541910       0.00000000    -614.12551255    2723.29078576    -320.83718684
C        2.94818259       5.50465113       5.81091188       0.00000000 -1994422.17714489 2795482.20254548  170856.98153934
C        4.97907126       3.17562593       3.33271931       0.00000000    2425.06435971    -582.06942902   -2043.21569935
C        2.19022905      10.47385621       4.91614902       0.00000000   -3776.88511945  -28475.62701436   19909.54936528
C        3.36514067       5.09575154       4.40471676       0.00000000   17982.74627749   51407.16218160   30007.43677941
C        6.83024452       8.67227106      -4.60726369       0.00000000     -40.56095105      21.04606009      15.93762664
C        4.83948100       4.97457742       8.63662235       0.00000000    2221.78205163    1709.60003041     387.52304566
C       18.32333158       5.59619399      -0.25013176       0.00000000      25.22630636      -2.09136393       6.43764089
C        4.76964549      11.21630341       1.91471248       0.00000000    -180.27623516    -200.59792983     303.43144875
Nb       2.26047035       5.97683682       5.94286118       0.00000000 -6401907.02151162 -23974009.26427652 5304020.39664165
O        1.81779029       3.20155336      10.41309544       1.00000000    -456.91912416    -798.21184249     469.74962915
O        2.24387136       6.76351249       5.85948493       1.00000000 -278440.70829948 -344981.39141060   81185.32555438
