52
Lattice="12.336457 0.0 0.0 -6.168228499999997 10.683685154694365 0.0 0.0 0.0 15.0" Properties=species:S:1:pos:R:3:forces:R:3 energy=-462.01665321566435 free_energy=-462.01665321566435 stress="-0.006301759485821661 -0.0008771291370334585 -1.137191348615902e-05 -0.0008771291370334585 0.0011980914207743042 7.662304303244821e-08 -1.137191348615902e-05 7.662304303244821e-08 -6.416665078419906e-06" pbc="T T T"
C        0.00108858       0.00572001       3.70074092      -0.00132156       0.00279789       0.00098042
C       -1.24758181       2.11766772       3.67325966      -0.00051390       0.00079806       0.00675048
C       -2.47659893       4.26247646       3.60497837      -0.00095547      -0.00066682      -0.00656742
C       -3.69995927       6.41575345       3.58488377      -0.00139675      -0.00657712       0.00608664
C       -4.92574068       8.56315091       3.64420747      -0.00112804       0.00300962      -0.00160191
C        2.46426004       0.03394380       3.72658532       0.00218649       0.00293343       0.00804337
C        1.20164183       2.17047381       3.87067731       0.00147951      -0.00557671      -0.00346109
C       -0.04803169       4.23448255       3.85127752      -0.00295139       0.00122768      -0.01003377
C       -1.26238789       6.40885977       3.68457070       0.00030493      -0.00087908       0.00033269
C       -2.47050664       8.56297162       3.63867096       0.00185478       0.00079353       0.00222637
C        4.93628352       0.00408984       3.69909646      -0.00140854       0.00359511       0.00343315
C        3.70779532       2.16080696       3.88638296      -0.00305399      -0.00279208      -0.00022173
C        1.13932983       6.41003888       4.04476892      -0.00136983       0.00865576      -0.00254707
C       -0.00370101       8.53796477       3.73611981      -0.00331719      -0.00352727       0.01476297
C        7.40933876      -0.02842885       3.68662807      -0.00573756      -0.00158568       0.00742693
C        6.18176981       2.12429110       3.69052101      -0.00257739       0.00214894      -0.00173596
C        4.98018984       4.28169045       3.88349598      -0.00154137       0.00076420       0.00003087
N        3.80652004       6.42120099       4.04614489       0.01287733       0.00644512       0.00274454
C        2.48263865       8.49972548       3.84465295       0.00079614       0.00080844      -0.00207337
C        9.86728195      -0.03000027       3.68538379       0.00352584       0.00079963       0.00664582
C        8.63508343       2.11699421       3.61133123       0.00023483       0.00009827       0.00190678
C        7.41491296       4.26893987       3.61923821       0.00607208      -0.00215122      -0.01199506
C        6.19321297       6.42623216       3.70069469      -0.00032056      -0.00031159      -0.01115371
C        4.94801170       8.52986923       3.74557770       0.00102070      -0.00210328       0.00345354
C       -0.01058875       1.43154681       3.73738584       0.00041135      -0.00017722      -0.00435065
C       -1.25535005       3.53533184       3.67877909      -0.00569753       0.00064404       0.00343982
C       -2.47777611       5.69351818       3.60446547       0.00141940      -0.00359274      -0.00595589
C       -3.69748671       7.84532651       3.60950532       0.00122936      -0.00361501       0.00425678
C       -4.92970178       9.99142141       3.68715515       0.00232629       0.00479760       0.00227553
C        2.45521004       1.46205372       3.84281708       0.00030534      -0.00340465       0.00523134
N        1.13062016       3.54090708       4.03010227      -0.00654972      -0.00474314      -0.00514361
C       -0.04266970       5.67971785       3.86196138       0.00425692       0.00441678      -0.00760251
C       -1.24362114       7.83778687       3.67546762       0.00144981      -0.00126005      -0.00407101
C       -2.47110157       9.99049704       3.68442005       0.00169136       0.00364845       0.00425756
C        4.94206848       1.42375419       3.74863445      -0.00397865       0.00340726      -0.00289501
C        3.79828714       3.55018592       4.06432370      -0.00422461      -0.00032102      -0.00099307
C        1.23001786       7.80059570       3.87694080       0.00011202       0.00425560      -0.01111864
C        0.00214079       9.95794124       3.69669451      -0.00626160      -0.00593988       0.00403176
C        7.40848126       1.39928825       3.64592589      -0.00194753      -0.00065043       0.00441397
C        6.19996749       3.55323689       3.70522054       0.00480913       0.00277733      -0.00479895
C        4.98600132       5.72667466       3.87337474       0.00056360       0.00214514      -0.01206649
C        3.73577075       7.79111738       3.87927574       0.00268447       0.00114384      -0.00070915
C        2.47361542       9.92777549       3.72893051       0.00016661      -0.00149817      -0.00234813
C        9.86326462       1.39826830       3.63735112       0.00046416       0.00435667       0.00551533
C        8.63705561       3.54682047       3.58809466       0.00387271      -0.00174717      -0.00546788
C        7.41408258       5.69985266       3.61775342      -0.00506388      -0.00514483      -0.00698340
C        6.18527234       7.84378602       3.68765987      -0.00135170      -0.00196967       0.00382905
C        4.93641686       9.95554034       3.70132312      -0.00006098      -0.00168536       0.00744515
Nb       2.46283159       4.98135439       4.79790911      -0.00046892      -0.00330972       0.00855557
O        2.42909444       4.98504265       6.59543663       0.00568257      -0.00178653       0.01428898
O        2.34480769       4.98917085       8.01420749       0.00006471      -0.00136790       0.00320956
H        3.29060078       4.99291975       8.27658636       0.00133624       0.00191596      -0.00967948
