51
Lattice="12.336457 0.0 0.0 -6.168228499999997 10.683685154694365 0.0 0.0 0.0 15.0" Properties=species:S:1:pos:R:3:initial_magmoms:R:1:forces:R:3 energy=-1106098.8987495669 free_energy=-1106098.8987495669 stress="4105.0916267160355 -548.6109536085694 -934.1586030301346 -548.6109536085694 1334.7903047979687 -221.02619168907458 -934.1586030301346 -221.02619168907458 1325.4397654828774" pbc="T T T"
C       -0.51555451      -1.90959624       5.83505318       0.00000000    -117.88759465       1.54760672     -38.61354190
C       -4.83994336      -9.30623281      14.24116702       0.00000000     254.56767422     799.86099987    -924.49041246
C       -4.47097591       7.11956092       5.90830761       0.00000000     -22.69278472      -9.61843853     -14.78999010
C       -1.59923747       4.00739031       3.00812942       0.00000000    9393.92488996    4430.87503583   -7776.74914952
C      -10.07584497       6.58617395      -2.67778480       0.00000000     436.91528417     416.39344682    -463.09784472
C        5.80028953       1.96540010       6.65000504       0.00000000     -57.68886852      70.80102414     -96.35091228
C        1.68758217       0.80429399      12.98075767       0.00000000    -165.83380536   -1087.95898885    -770.50261805
C        1.12640249       4.76760396       1.86151132       0.00000000 7037841.64139669 -683547.20294845 -2483689.03963300
C       -1.46831435       4.10903284       3.85809148       0.00000000    2688.32336393    1438.42536379    -575.43594027
C       -8.23554736       8.01682423       1.85451952       0.00000000   -4158.31107828   -3803.72684565    -812.95434236
C        4.91409231       0.24452749       7.37970315       0.00000000      -1.50406483      18.69532164     -13.76837679
C        4.73907796       7.93284695      -0.43342145       0.00000000    -852.37254135    -817.20225988     535.65475266
C        2.09843193       4.58319854       1.09080960       0.00000000 -2367040.56102814  662449.09971825 1815794.44080724
C        2.49588751       5.78912426       0.75810792       0.00000000 -285787.22042266 -410622.86956117  468668.04619998
C        7.47581437       0.40642022       6.17966371       0.00000000       4.93416170     -16.00151016     -20.30541956
C        7.59959791       5.98008991       1.99579582       0.00000000      33.61892980      55.01945096      21.02046590
C        5.11167874       5.96020655       7.97920080       0.00000000      -8.92435119     -16.01813927     -52.33592271
S        2.51916411      14.43083569       4.90989691       0.00000000     281.27078771      91.61886940     -66.92265074
C        2.26413063       9.42274107       5.25840933       0.00000000     415.06388325     620.70064118     376.53490004
C        6.52201873      -3.64031721       7.55496951       0.00000000      -2.60738157      -3.17219293       2.18206231
C        5.39710548       3.55349805       2.81952016       0.00000000   22269.94789736   -4214.90481649   20658.45556266
C       11.60844356       6.20889098      -1.88265808       0.00000000   -1154.53525959     853.96248202   -1869.51596251
C       11.64929184      -0.70690985       4.84173920       0.00000000     -18.56855563     -45.88362712      16.56895646
C        2.97627933       9.24058424       2.36176203       0.00000000      76.19640856     592.47146655     -67.59963934
C        3.74058395       3.52787219       1.62801668       0.00000000  -57076.40159147  163138.31223097  163364.35237318
C        3.99282377       3.71476860       3.73587233       0.00000000  -60758.98401550   31353.40880322  -63505.79903423
C       -2.38315729       3.30389161       8.18926065       0.00000000      -0.04035776       0.05168669       0.75808454
C       -2.42566719       9.93435233       2.97090849       0.00000000      61.17544584    -197.81415923      43.12572319
C       -5.83827182       8.56545138       5.90412774       0.00000000      93.94807532     -46.05913246      -1.18497777
C        1.71696869       7.60956546       3.25479689       0.00000000    2981.97254411   26733.67276088   11061.96795703
P        1.50233343       3.08589020       2.12874343       0.00000000  255561.24412077  803311.00389071 -214129.91155217
C        2.21013818       6.04292912       1.83037277       0.00000000   50692.99594842 -261733.60145800  -91045.36022787
C        3.44891758       6.85986975       0.32521645       0.00000000   48108.57431792   60477.84517370  -25971.05166674
C       -1.01772774      12.20114604       3.57152259       0.00000000     377.67296455      17.91981931     677.25471414
C        6.29748245       2.14293786       8.12128645       0.00000000     -10.59682151       4.84313371     -21.21112709
P        4.80010802       3.62979359       1.97941360       0.00000000 -308325.66580723   67220.49229192  -27563.25671060
C        1.75526350       8.40722569       4.66541403       0.00000000      41.09575817    -620.24584767   -1511.10554797
C       -6.02786540       3.32344128       1.12495373       0.00000000    2880.36364541     215.25145572    -187.31117958
C        5.69029546       2.77179726       3.14353050       0.00000000     804.33398878   -2350.34940235    -731.95935028
C        3.77408019       4.20769787       2.87919071       0.00000000 -163547.15640739   23951.44063799 -138853.84451082
C        6.01469242       5.53887021       6.17900320       0.00000000    -101.39895399     -52.58241513    -132.72558831
C        8.82313786       6.11107561       0.84392714       0.00000000    -441.71031478     112.16707002     -72.17278115
C        1.15875201       8.86596397       5.91484640       0.00000000    -258.46766662      83.07652267     433.54539585
C        6.85899236      -0.88574749       3.53804137       0.00000000    -372.89273338     893.13049768     -23.03700767
C        3.76165312       5.82664420       2.91048753       0.00000000  -48736.53655468 -114444.05539592  -31774.42002145
C        7.62403106      11.23907183       7.07544201       0.00000000       6.74278697       5.67593438      -4.31024535
C        6.88897294      10.50773501       1.88248193       0.00000000    -819.30772974   -3439.18307973    -119.42747641
C        4.75210324      11.57978194      -0.05190105       0.00000000   -1245.96849058   -1344.07427074    -647.09036445
Nb       1.68918828       4.72073258       1.66237963       0.00000000 1211418.64349866 -2478870.07477815 2405484.48733432
O       -2.03836527       0.19019624       4.64774599       1.00000000      39.26653722      31.31013243      17.18550502
O        1.95403885       4.62162470       1.81251913       1.00000000 -5345680.59912836 2117893.52579869 -1793607.92906832
