51
Lattice="12.336457 0.0 0.0 -6.168228499999997 10.683685154694365 0.0 0.0 0.0 15.0" Properties=species:S:1:pos:R:3:initial_magmoms:R:1:forces:R:3 energy=-445.7684141826075 free_energy=-445.7684141826075 stress="-0.002901448439458417 -0.002804348608837068 8.841157082736556e-05 -0.002804348608837068 -0.005232866769105953 1.0409183971114343e-05 8.841157082736556e-05 1.0409183971114343e-05 -0.00012278857056316866" pbc="T T T"
C        0.02214690       0.01696743       3.76897930       0.00000000      -0.02614774       0.00087426      -0.00276952
C       -1.24400340       2.14228419       3.55893183       0.00000000      -0.02011938       0.05324029      -0.03732932
C       -2.47574882       4.30244432       3.76477069       0.00000000       0.03417246      -0.03207454      -0.02242013
C       -3.64904244       6.44962444       4.01797490       0.00000000       0.03641724       0.00573956      -0.00742767
C       -4.88004423       8.59165058       4.01861591       0.00000000      -0.00217369      -0.03444512      -0.01979226
C        2.49382327      -0.00540816       3.64007572       0.00000000       0.02088622      -0.01285618       0.00234715
C        1.21593228       2.02377072       3.09231782       0.00000000      -0.02806096      -0.06468213       0.00413105
C       -0.17640589       4.30165738       3.02391453       0.00000000      -0.02831715      -0.00661371      -0.01940044
C       -1.23250661       6.44366088       3.54077820       0.00000000       0.00490826      -0.04118372       0.01641263
C       -2.41520999       8.56750143       3.79169632       0.00000000       0.03348245       0.05574372      -0.02385271
C        4.96274909       0.03737907       3.71345831       0.00000000       0.00011274      -0.01536780       0.01624912
C        3.72140939       2.06816625       3.26121521       0.00000000       0.03468862      -0.00752051       0.01047810
S        1.43496492       6.39216946       2.76350837       0.00000000      -0.02454892      -0.05458594      -0.02474284
C        0.04599734       8.57797145       3.64270595       0.00000000      -0.04087411      -0.01395337       0.03153212
C        7.41992687       0.04181655       3.88691287       0.00000000      -0.05100592       0.04933095      -0.01171790
C        6.16504435       2.19254476       3.94365601       0.00000000      -0.06741396      -0.04755020      -0.00133707
C        5.05307063       4.39504907       4.43608950       0.00000000       0.06011921       0.03147115       0.03531800
C        3.80096280       6.49228620       4.30551926       0.00000000       0.10951360       0.01857901       0.00005150
C        2.50327510       8.59405730       3.89939233       0.00000000       0.02572544      -0.00406087       0.00167179
C        9.89172589       0.03524397       3.93070700       0.00000000       0.02609401       0.02668919       0.00289489
C        8.63963168       2.17544922       3.93404720       0.00000000       0.07086874      -0.02370421      -0.02086794
C        7.43228278       4.31688480       4.16433685       0.00000000      -0.00168283      -0.02550109      -0.00828338
C        6.27700987       6.49607064       4.32922010       0.00000000      -0.08233338       0.02353636      -0.00913194
C        4.97392365       8.59172520       4.11574981       0.00000000       0.00652223       0.04101369       0.00745594
C       -0.00347253       1.41846940       3.46205353       0.00000000      -0.04633691       0.00520300       0.04490323
C       -1.29269812       3.56035259       3.44491384       0.00000000       0.01806729       0.02629915       0.02204420
C       -2.45025141       5.72728599       3.78844100       0.00000000       0.03426815      -0.04215418       0.00587478
C       -3.65033083       7.86998683       3.95968323       0.00000000       0.05458204       0.03348791      -0.00746544
C       -4.90683222       9.99318542       3.81088345       0.00000000       0.00228721      -0.02197147       0.03049447
C        2.46654986       1.37346015       3.32551794       0.00000000       0.02673633      -0.03470631      -0.02208484
S        1.19556173       3.55822565       2.25081770       0.00000000       0.01181509       0.08767316      -0.00872350
C       -0.11301586       5.68690926       3.15061143       0.00000000      -0.01590898      -0.00568377      -0.05407647
C       -1.18761629       7.86384474       3.63903096       0.00000000      -0.03468912      -0.03188052       0.04359014
C       -2.42819488       9.99332885       3.71811705       0.00000000       0.01572786       0.03006183      -0.01835798
C        4.95488878       1.46256451       3.66843361       0.00000000      -0.01526638      -0.04316275       0.01024581
O        3.71941634       3.28379332       2.76659501       0.00000000       0.03912837      -0.02742542       0.03732262
C        1.30511266       7.92662418       3.54629251       0.00000000      -0.00837059       0.01012932       0.00519201
C        0.03361324      10.00762906       3.78026783       0.00000000      -0.03262532       0.00312659      -0.00606352
C        7.39727252       1.47359177       3.94561529       0.00000000      -0.02178139       0.05327988       0.01007117
C        6.17967083       3.61347297       4.20832075       0.00000000      -0.02227328      -0.04882924       0.00590863
C        5.03891967       5.79117806       4.39595798       0.00000000       0.00017836      -0.01220947      -0.01154687
C        3.73341433       7.87376115       4.11398784       0.00000000       0.06853817       0.00173095       0.00791128
C        2.48926852      10.01514680       3.94475150       0.00000000      -0.00157182       0.03392249       0.01179683
C        9.87959376       1.45664103       3.82251306       0.00000000       0.06011814       0.00556584       0.02058487
C        8.64282322       3.59817345       3.97454880       0.00000000       0.02409305      -0.04299423      -0.02660172
C        7.46870955       5.74572229       4.21156926       0.00000000      -0.06579009       0.01610085      -0.01168821
C        6.23156756       7.89878920       4.18537057       0.00000000      -0.05588287       0.03436160      -0.00482491
C        4.96178847      10.00452738       3.95513650       0.00000000      -0.02162057       0.00570970      -0.01090001
Nb       2.93028557       4.56950354       4.17245182       0.00000000       0.00762732       0.09625168      -0.13247726
O        1.55786030       4.57850208       5.53587234       1.00000000      -0.03651150       0.02303490       0.04262980
O        2.74915742       3.67813036       5.88839199       1.00000000      -0.07537177      -0.07704025       0.09677171
