52
Lattice="12.336457 0.0 0.0 -6.168228499999997 10.683685154694365 0.0 0.0 0.0 15.0" Properties=species:S:1:pos:R:3:initial_magmoms:R:1:forces:R:3 energy=-461.3281569129922 free_energy=-461.3281569129922 stress="-0.0014410227177205188 0.002424513356109758 -0.0004114296431758084 0.002424513356109758 -0.006455078630533903 -1.578659056417387e-05 -0.0004114296431758084 -1.578659056417387e-05 0.0009263082938030663" pbc="T T T"
C        0.07421914      -0.03451638       3.55001043       0.00000000       0.01976240       0.02841213      -0.04120729
C       -1.13734367       2.11589191       3.51069142       0.00000000       0.01026425       0.01111213       0.03266292
C       -2.37390002       4.24549071       3.65318874       0.00000000      -0.01156744      -0.04871791       0.04683183
C       -3.64136537       6.37096741       3.68451041       0.00000000       0.00568407      -0.01888443       0.02563056
C       -4.88818224       8.49235142       3.60081296       0.00000000      -0.00007580       0.03097427       0.04340954
C        2.53549082      -0.05912143       3.62354193       0.00000000      -0.03865509      -0.01883279       0.00605107
C        1.32912315       2.11298224       3.53356299       0.00000000      -0.00585415      -0.00610867       0.03666169
C        0.10077799       4.22796108       3.80614611       0.00000000       0.00003418       0.01672485       0.07970089
C       -1.19129887       6.34304192       4.11995294       0.00000000       0.02503563       0.00203777      -0.04281572
C       -2.40890082       8.49053039       3.83311541       0.00000000       0.01046320       0.00066276      -0.00473982
C        4.99746499      -0.03883241       3.71769236       0.00000000      -0.01921516      -0.01364711      -0.01452671
C        3.77943128       2.07016354       3.56990266       0.00000000      -0.00815133       0.01215369      -0.07209963
C        2.62311825       4.19989728       3.39370286       0.00000000      -0.04312038       0.14609882       0.07907932
N        0.71110997       5.78959045       5.55362756       0.00000000      -0.38180007       0.11710297      -0.46924827
C        0.03979773       8.53254628       3.97387689       0.00000000       0.09548952      -0.02433692      -0.01420284
C        7.46120288      -0.00246497       3.65108484       0.00000000      -0.02176623       0.01318740       0.00116832
C        6.25140016       2.09482348       3.57078049       0.00000000      -0.00140547      -0.00592587       0.00643808
C        5.04218656       4.19719690       3.44176117       0.00000000      -0.00993239      -0.00063361      -0.03341556
S        3.36775219       6.16518962       3.18656596       0.00000000      -0.03751815      -0.03644914       0.18427160
C        2.50882854       8.61036576       3.78217553       0.00000000       0.01627864      -0.03612522       0.00692716
C        9.95094276      -0.00123174       3.54389807       0.00000000       0.03702550       0.01146217       0.02663413
C        8.72706978       2.11677794       3.53232339       0.00000000      -0.04164882       0.02418154      -0.00632482
C        7.49601979       4.24018117       3.53429602       0.00000000      -0.02631862      -0.01098673      -0.01198942
C        6.20617384       6.35802861       3.48336753       0.00000000      -0.00523267       0.00175943       0.00652386
C        4.98609749       8.50686649       3.58876615       0.00000000       0.01239209      -0.01281664       0.00923485
C        0.09179664       1.39952186       3.52628969       0.00000000       0.00236696       0.01350149       0.00150536
C       -1.12970778       3.53881997       3.61816930       0.00000000       0.03409907       0.01969389      -0.00373767
C       -2.39943022       5.66117695       3.81376385       0.00000000       0.02670179      -0.04278694      -0.01945360
C       -3.64606139       7.78756054       3.70692377       0.00000000      -0.01323449       0.00457604       0.04683196
C       -4.87094691       9.92001704       3.58615496       0.00000000      -0.02449021       0.02283798       0.03871733
C        2.54196402       1.37043549       3.56996438       0.00000000      -0.01020059      -0.01816347      -0.00632705
C        1.38062328       3.57607607       3.57440715       0.00000000      -0.01791431       0.01123018      -0.00543443
C       -0.04153710       5.48804171       4.43945394       0.00000000      -0.03904140       0.04755332      -0.01384205
C       -1.18837719       7.77504743       4.03556958       0.00000000       0.05435728       0.01417018      -0.01793061
C       -2.40435268       9.91842303       3.73079558       0.00000000      -0.02339478      -0.00869379       0.00896842
C        5.01255641       1.37820691       3.61710087       0.00000000       0.01031741      -0.01289286      -0.00230388
C        3.79157464       3.49599550       3.46515956       0.00000000      -0.03541377       0.01835711      -0.06466743
C        1.29606445       7.95009281       4.04281034       0.00000000       0.01344404      -0.05011735       0.01894680
C        0.05515446       9.95663429       3.77541359       0.00000000      -0.00492013      -0.02851531      -0.00551567
C        7.48302852       1.40788935       3.57642383       0.00000000      -0.02373033       0.02658297      -0.01342703
C        6.27314149       3.51186686       3.51201948       0.00000000       0.00913386      -0.03251196       0.00428241
C        5.02324309       5.58541218       3.36788065       0.00000000      -0.08283463       0.02142569       0.07780674
C        3.72525683       7.84742861       3.70958025       0.00000000      -0.07879389      -0.13046448       0.04090827
C        2.53693751      10.01967390       3.62173476       0.00000000      -0.00562542      -0.00344044       0.03545167
C        9.96265879       1.41570124       3.51476787       0.00000000      -0.00984497       0.03255709      -0.04428209
C        8.73460773       3.53542504       3.55224572       0.00000000      -0.04540405      -0.00294831       0.01897118
C        7.46686547       5.65815684       3.55061298       0.00000000       0.00221625      -0.00752656       0.01457750
C        6.20649996       7.78377125       3.55119969       0.00000000       0.02054308       0.00763762      -0.06938717
C        5.00486160       9.94531346       3.56586840       0.00000000       0.05778878      -0.01471871      -0.02389442
Nb       2.20268652       7.08268929       5.72991358       0.00000000       0.98551248       0.34729410       0.94539661
O        1.94310028       7.96587347       7.24398646       1.00000000       0.18009556       0.04955726      -0.65899023
O        1.98938198       5.11230737       5.89100274       1.00000000      -0.56190131      -0.46659963      -0.18382662
