52
Lattice="12.336457 0.0 0.0 -6.168228499999997 10.683685154694365 0.0 0.0 0.0 15.0" Properties=species:S:1:pos:R:3:forces:R:3 energy=-448.71329361034276 free_energy=-448.71329361034276 stress="-0.005763287665771587 0.0012026295498868916 1.5309294004065673e-05 0.0012026295498868916 -0.009440049241487555 5.0869835186051486e-05 1.5309294004065673e-05 5.0869835186051486e-05 1.3395299704851908e-06" pbc="T T T"
C        0.12364533      -0.05321762       3.51714786       0.00279629       0.00496206       0.00448116
C       -1.09774874       2.11283092       3.48614314      -0.00506735       0.00087649       0.00051930
C       -2.32404582       4.23878649       3.70227346       0.00113010       0.00320850       0.00736132
C       -3.57118779       6.37772938       3.78090491      -0.00417433      -0.00182587      -0.00067273
C       -4.81356163       8.50091224       3.74471891       0.00716306      -0.00139817      -0.00235840
C        2.58992698      -0.10182473       3.38573936      -0.00469470       0.00289545      -0.00139433
C        1.36505935       2.00159175       3.10996216       0.00029242       0.00181322      -0.00674284
C        0.14661455       4.28294980       3.69411360      -0.00065409      -0.00627419       0.00274503
C       -1.13822315       6.41064298       3.75331377       0.00018343       0.00250124       0.00521456
C       -2.34159610       8.50837873       3.61900717       0.00300642      -0.00535335       0.00034620
C        5.07183746      -0.04751975       3.53650267      -0.00561605      -0.00605241      -0.00037271
C        3.80792900       1.99956377       3.54737586       0.00628707       0.00681093      -0.00171503
C        1.28338821       6.46894326       4.09495981       0.00993074      -0.00719876      -0.00096771
C        0.13301637       8.53759116       3.74597060       0.00249170      -0.00270479      -0.00157808
C        7.53565196      -0.01368839       3.66420507      -0.00028774      -0.00380218       0.00974012
C        6.29867149       2.10830474       3.71531883       0.00613565       0.00130435      -0.00005133
C        5.15433996       4.26670598       4.21137256      -0.00028450       0.00200170       0.01444592
P        3.76433347       6.40816521       5.23411492       0.00355185      -0.00195779      -0.01005990
C        2.60102150       8.58373199       4.04517034      -0.00808940       0.00175524      -0.00270657
C       10.00718987      -0.01198806       3.69461373       0.00094703       0.00724154      -0.00155862
C        8.77172781       2.11493662       3.65031231      -0.00222454       0.00081119      -0.00582505
C        7.55051359       4.24482832       3.84703796       0.00343023       0.00242579      -0.01154161
C        6.34410132       6.40152114       4.16070745       0.00006377       0.00216013       0.00346224
C        5.07690502       8.55401887       4.06567420      -0.00213734       0.00318952      -0.00011008
C        0.12586908       1.36894420       3.33189917       0.00015398       0.00343084       0.00641064
C       -1.09997690       3.52159284       3.61434147      -0.00278080      -0.00125427      -0.00198442
C       -2.34319805       5.67017636       3.73525245      -0.00309484       0.00388348       0.00285932
C       -3.57514457       7.79679594       3.70882648       0.00531708      -0.00487946       0.00311689
C       -4.81848602       9.90172945       3.52441100       0.00106026      -0.00001301      -0.00213037
C        2.58843949       1.29824102       3.27225008       0.00198046       0.00439320       0.00239862
P        1.56759341       3.73118264       2.70908221       0.00583183      -0.00282583      -0.00517016
C        0.09089967       5.73078935       3.89255896      -0.00064306      -0.00271356       0.00491939
C       -1.10628524       7.82127724       3.70252934       0.00570525       0.00118788      -0.00652346
C       -2.33203557       9.91365563       3.49962573      -0.00830203      -0.00559868       0.00093948
C        5.07528544       1.37188318       3.59283875       0.00372778      -0.00125469       0.00189035
P        3.59228012       3.51955337       4.31526278      -0.00209689       0.00421040       0.00725573
C        1.36610340       7.85608920       3.96282442      -0.00155727      -0.00563561      -0.00395922
C        0.13604005       9.94720994       3.63756991      -0.00245962      -0.00418993      -0.00353532
C        7.53220638       1.40622504       3.65496864       0.00251934      -0.00566987       0.00598775
C        6.32283842       3.52317634       3.90332294       0.00245679       0.00581494      -0.00138099
C        5.18473361       5.66007714       4.48295933      -0.00297622       0.00291408      -0.00570989
C        3.83157360       7.94101712       4.37165580      -0.00683202       0.00690708       0.00221378
C        2.60266285       9.97473153       3.78216224       0.00183318       0.00213889       0.00001501
C       10.00602330       1.40576753       3.58831387      -0.00534128       0.00676301       0.00169741
C        8.77661897       3.53486150       3.71616023       0.00554974       0.00104433      -0.00407252
C        7.54816200       5.66936780       3.91976837      -0.00409322       0.00023490      -0.00153244
C        6.30919323       7.81986850       4.02707975       0.00264328       0.00063496      -0.00614146
C        5.06989490       9.95055964       3.74820818       0.00096364       0.00719156       0.00314439
Nb       1.67898923       4.77998756       5.20285343      -0.00901700       0.00209364      -0.00443760
O        0.55032378       5.02197285       6.63583663      -0.00110724      -0.00536089       0.00200912
O       -0.40805929       5.38677142       7.60794768      -0.01059834      -0.00462064       0.00223118
H       -0.15762172       4.82787468       8.37547014       0.00697750      -0.01621656      -0.00117202
