53
Lattice="12.336457 0.0 0.0 -6.168228499999997 10.683685154694365 0.0 0.0 0.0 15.0" Properties=species:S:1:pos:R:3:forces:R:3 energy=-463.85148209797353 free_energy=-463.85148209797353 stress="-0.0030972347234988038 -0.0006395665580691233 -6.834134598033336e-07 -0.0006395665580691233 -0.009492767074503524 2.156845273526433e-06 -6.834134598033336e-07 2.156845273526433e-06 -1.7412844093486844e-05" pbc="T T T"
C        0.04092334       0.00955032       3.86394159      -0.00590711      -0.00260566      -0.00911846
C       -1.19542357       2.14721143       3.76149337       0.00556425       0.00283309      -0.00134675
C       -2.43350522       4.29201316       3.72988758      -0.00654011       0.00460936      -0.00702099
C       -3.66953660       6.42295245       3.82707107      -0.00473132      -0.00668071       0.00112067
C       -4.90419770       8.54588036       3.88465689      -0.00337196       0.00679077      -0.00441315
C        2.50971815      -0.01825270       3.78924830      -0.00169189       0.00127661       0.01406924
C        1.27306459       2.11100617       3.61018862      -0.00525394      -0.00494258      -0.00107068
C        0.01327800       4.24735660       3.55257974      -0.00247408      -0.00066866      -0.00911611
C       -1.20565924       6.42541830       3.77879994      -0.00420478       0.00466897      -0.00641679
C       -2.41205389       8.54067820       3.93535258       0.00191859       0.00477859       0.00415229
C        4.97681413       0.00571300       3.91202562       0.00656470       0.00119412      -0.00623942
C        3.74644791       2.10210787       3.60613535      -0.01062147      -0.00701236       0.00054507
C        2.51947409       4.18317780       3.54463845       0.00501679       0.00404781      -0.00271137
O        1.02326688       6.27231228       2.97280578       0.00441773       0.00235677      -0.00306701
C        0.04339622       8.58074721       4.24748937       0.00391888      -0.00536743       0.00509600
C        7.43278618       0.06411265       4.10806929      -0.00469501      -0.00363826       0.01732762
C        6.20333539       2.14956918       3.77964648       0.00081335       0.00454440      -0.00252453
C        4.98595534       4.25392419       3.48001578       0.00572992      -0.00010271      -0.00193846
S        3.83554168       6.37472775       2.26210696       0.01060263      -0.00175403      -0.00804586
C        2.51143073       8.69307717       4.43699404       0.00174788      -0.00605265      -0.00248917
C        9.92102587       0.06270759       4.07096397      -0.00188825      -0.00304135       0.00784900
C        8.67162537       2.17151282       3.86519114       0.00509396       0.00364311      -0.00432076
C        7.43501182       4.29370877       3.71788867      -0.00041317      -0.00174428       0.00258628
C        6.19700357       6.43384176       3.67699199       0.00301328      -0.00000529      -0.01080798
C        4.97883453       8.58098250       4.11320036      -0.00262491      -0.00173173      -0.00613236
C        0.03827692       1.42647880       3.73751808      -0.00093437      -0.00312113      -0.00415821
C       -1.20873112       3.56559021       3.67660126      -0.00538459       0.00496619      -0.00305628
C       -2.43099785       5.71266519       3.77601621      -0.00284138       0.00096725      -0.00303982
C       -3.66102415       7.83758733       3.87516536      -0.00257282      -0.00204878       0.00853746
C       -4.89732185       9.96868623       3.85117613      -0.00314527       0.00690906       0.00406367
C        2.50948939       1.39726764       3.65632176      -0.01132384      -0.00635374      -0.00423695
C        1.28591599       3.54426529       3.52901999       0.00171455      -0.00336133       0.00169227
C       -0.03750087       5.66553271       3.43769938       0.00265880       0.00683206       0.00314476
C       -1.17695404       7.83871102       4.00090598       0.00222581       0.00291204      -0.00677544
C       -2.42129796       9.96634400       3.88560181       0.00369233       0.00767862       0.01246942
C        4.97769073       1.42033123       3.75709944      -0.00275396       0.00355317       0.00123759
C        3.74051695       3.53290423       3.49341248       0.00366148      -0.00405946       0.00423779
C        1.28288248       8.02689182       4.54663089       0.00490030       0.00336337       0.01029848
C        0.03572901      10.00748148       4.10680333       0.00055346      -0.00911618       0.00192756
C        7.43374301       1.46841556       3.92098929       0.00109565       0.00112586       0.00137418
C        6.20703896       3.56950056       3.66018444       0.00445903       0.00335144       0.00055920
C        5.02093975       5.68264403       3.27982209       0.00101626       0.00173034      -0.00135301
C        3.74573972       7.99392246       4.40638212      -0.00047410      -0.00250111      -0.00731432
C        2.51146523      10.10068484       4.24393028      -0.00365450      -0.00483477       0.00479260
C        9.91147183       1.46669382       3.89976748       0.00734767       0.00091222       0.00340419
C        8.66852982       3.58668934       3.77000368      -0.00277637       0.00402263       0.00022559
C        7.42486193       5.71817324       3.74519344      -0.00285641      -0.00832303      -0.00435271
C        6.19115032       7.84226722       3.88313965      -0.00129430       0.00072399      -0.00317850
C        4.98206783      10.00888603       4.03028869      -0.00295883      -0.00424643       0.00521648
Nb       2.50267186       6.29274295       4.37030833      -0.00032787       0.00079861       0.00879225
O        3.13558810       5.57971855       6.08826696       0.00930221      -0.00224791       0.00639221
O        1.57936483       5.65204043       6.32936038       0.00616098       0.00776959      -0.00658735
H        1.56962565       6.26311189       7.09270002      -0.00547389      -0.00279847      -0.00027942
