52
Lattice="12.336457 0.0 0.0 -6.168228499999997 10.683685154694365 0.0 0.0 0.0 15.0" Properties=species:S:1:pos:R:3:forces:R:3 energy=-451.42431677969114 free_energy=-451.42431677969114 stress="-0.00395467461840763 -0.002138179888505087 -1.1136353508734131e-05 -0.002138179888505087 -0.006271962137998637 -1.0894176579052642e-05 -1.1136353508734131e-05 -1.0894176579052642e-05 8.88320542379696e-06" pbc="T T T"
C        0.00029689      -0.05187412       3.72641727       0.00990468       0.00665594       0.00581907
C       -1.24106201       2.08783619       3.85395418      -0.00185086       0.00901774      -0.01181839
C       -2.48121022       4.23407493       3.74805256      -0.00147723       0.00007112       0.00178538
C       -3.69486657       6.37431554       3.62500411      -0.00226618      -0.00244154      -0.00547146
C       -4.92505503       8.50428977       3.63912757       0.00573937      -0.01416794       0.00642248
C        2.47454739      -0.07224566       3.59125721      -0.00428974      -0.00625345       0.00146894
C        1.26429544       2.01868365       3.98396690      -0.00260857      -0.01306410      -0.00110106
C       -0.11181659       4.23341750       4.32051424       0.00926400      -0.00178914       0.00855079
C       -1.27487510       6.38931676       3.97690965       0.00019019       0.00440275       0.00134241
C       -2.45428470       8.50211397       3.67043368      -0.00507173       0.00545864       0.00066938
C        4.94055437      -0.04003608       3.51972261      -0.00496137      -0.00679736      -0.00749159
C        3.67420385       2.02512893       3.28862703      -0.00252853       0.01449157       0.00221733
P        1.28430694       6.39010332       5.01313397       0.00112126       0.00424765       0.00432786
C       -0.00767573       8.54410111       3.92681376       0.00153057      -0.00644003      -0.00434843
C        7.40461193      -0.02591778       3.62643109      -0.01221116       0.00715555       0.00722156
C        6.15862991       2.11232834       3.34502256      -0.00339902       0.00050853       0.00248149
C        4.97773304       4.30842147       3.32910290       0.00199559       0.00501969      -0.00390993
C        3.83551341       6.38721964       4.28830000       0.00638561      -0.00092973      -0.00897272
C        2.48892078       8.55168355       4.02742126      -0.00589159       0.00896784      -0.00683088
C        9.87327403      -0.03206960       3.71666325       0.00177978      -0.00636347      -0.00055070
C        8.63417561       2.10408660       3.56761205       0.00419221      -0.01153638       0.00485254
C        7.40650402       4.24447586       3.48234676       0.00199301      -0.00165199       0.00066352
C        6.19421155       6.38863453       3.64761791       0.00405749       0.00529770      -0.00655833
C        4.94441298       8.50746777       3.81781161      -0.00205482       0.00512845      -0.01179092
C        0.00203493       1.36917646       3.86593377      -0.00019517       0.00982132       0.00071036
C       -1.27170045       3.50485636       3.95996440       0.00474597       0.00474505      -0.00849443
C       -2.47914080       5.66049204       3.75655351      -0.00134621       0.00225521      -0.01177204
C       -3.69138773       7.79468701       3.63072745       0.00439198      -0.00652832       0.00613854
C       -4.93394797       9.91789786       3.65631164       0.00152375      -0.01073991      -0.00770512
C        2.47324863       1.34034976       3.62237012      -0.00142668      -0.00843727      -0.00534171
P        1.37411337       3.50373165       4.88885863       0.00164562       0.00359150      -0.00399581
C       -0.12844471       5.64685658       4.34370346       0.00421108       0.00084971       0.00829908
C       -1.23440541       7.80814282       3.86897732      -0.00463178       0.00624962      -0.00860609
C       -2.45408467       9.91940996       3.57019309      -0.00636764       0.00066540       0.00668955
C        4.92907893       1.38875378       3.35175054      -0.00230427      -0.00070299       0.00313017
S        3.50310745       3.65198575       2.72216982      -0.00579492      -0.01008528       0.00091934
C        1.23456882       7.92261197       4.22948875       0.00611934       0.00413035       0.01698464
C        0.00313755       9.94821636       3.66739863      -0.00561851      -0.00685331       0.00718295
C        7.39258933       1.39933750       3.48596977      -0.00440835       0.00221625      -0.00385449
C        6.16484486       3.54041245       3.34722077      -0.00205647       0.00365363       0.01564074
C        4.95867871       5.68094132       3.77099884       0.01287155      -0.00074181       0.00707184
C        3.72645183       7.79220354       4.06129173      -0.00322796       0.00817642      -0.00528615
C        2.47462953       9.95007746       3.76338034      -0.00887907       0.00804092      -0.00941703
C        9.86939340       1.38972306       3.68958770       0.00408786      -0.00884479       0.00217449
C        8.63416012       3.52767311       3.57044451       0.00255099      -0.01019610       0.01271076
C        7.40984327       5.66715941       3.55452198      -0.00008252       0.00191889      -0.00509153
C        6.18013465       7.80342240       3.70520820      -0.00136205      -0.00090158       0.00353306
C        4.93560712       9.92765254       3.74616554       0.00953032       0.00691453       0.00138277
Nb       3.14973010       5.05106129       5.98442165       0.00059367      -0.00047284      -0.00364629
O        4.24319704       3.64959714       6.04981958      -0.00308317      -0.00388343       0.00380068
O        3.01907922       5.95036517       7.68140896      -0.00589806      -0.00425880       0.00219556
H        2.96555269       6.05524303       8.64227911       0.00486773       0.00442962      -0.00433222
