52
Lattice="12.336457 0.0 0.0 -6.168228499999997 10.683685154694365 0.0 0.0 0.0 15.0" Properties=species:S:1:pos:R:3:forces:R:3 energy=-462.17917643735984 free_energy=-462.17917643735984 stress="-0.0053001333087279705 6.946002612661377e-06 -1.0219040207366483e-06 6.946002612661377e-06 0.0011649047857595503 2.5293149282166974e-05 -1.0219040207366483e-06 2.5293149282166974e-05 7.199175187871206e-06" pbc="T T T"
C       -0.00130334       0.01631521       3.72490057      -0.00295018      -0.00071460       0.00117849
C       -1.24498260       2.13734577       3.70460706       0.00066451      -0.00308083      -0.00043467
C       -2.47632277       4.27888831       3.59667524       0.01033398       0.00473732      -0.00118691
C       -3.70079156       6.42774694       3.55108737      -0.00534961      -0.01171745       0.01141397
C       -4.93013107       8.57290501       3.63107557      -0.00030733       0.00105871       0.00359134
C        2.46788023       0.03183006       3.76578608      -0.00550499       0.00761384      -0.01484176
C        1.22546416       2.16759391       3.91500062       0.00226173       0.00004843      -0.01252136
C       -0.03350540       4.29244170       3.85822554       0.00433894      -0.00627865       0.00338454
C       -1.25662837       6.43555704       3.64747299       0.00918774      -0.00072084       0.00290611
C       -2.47129684       8.57263477       3.63229745       0.00245715       0.00328876       0.00274369
C        4.93673985       0.01558321       3.72919677       0.00132564       0.00466385       0.00102103
C        3.70967704       2.16721357       3.91912801       0.00019671      -0.00444235      -0.00464548
N        1.12182353       6.43739972       4.01659972      -0.00090249       0.00878900       0.00604005
C       -0.00607722       8.54221114       3.71901277       0.00086205      -0.00025789       0.00298451
C        7.40767513      -0.01690862       3.70129570       0.00251539      -0.00474915      -0.00123695
C        6.18027765       2.13718607       3.71450015      -0.00402222       0.00229063      -0.00709839
C        4.96827809       4.29248443       3.86742168      -0.00540858       0.00340734       0.00044184
N        3.81364634       6.43936510       4.02439760       0.00310725      -0.00348334       0.00415764
C        2.46758977       8.49572330       3.82432596       0.00118458      -0.00369866      -0.00023869
C        9.86353626      -0.01724088       3.69860044       0.00509967       0.00415230      -0.00107444
C        8.63580790       2.13042678       3.62851332      -0.00416609       0.00718644       0.00097949
C        7.41041005       4.27944586       3.60312534      -0.00210997      -0.00601967      -0.00685853
C        6.19088349       6.43549755       3.65159518      -0.00286670       0.00465537      -0.00062725
C        4.94169286       8.54296135       3.71865549      -0.00827531      -0.00462897       0.00931152
C       -0.00769497       1.43661062       3.77847040       0.00227847      -0.00233980      -0.01061020
C       -1.25712132       3.56562734       3.69391032       0.00397689      -0.00434575       0.00104078
C       -2.47780707       5.70908989       3.57629240       0.00666404       0.00215810      -0.00139469
C       -3.70076534       7.85639256       3.58887679       0.00115745      -0.00803406       0.00904128
C       -4.93150341       9.99826648       3.70784206      -0.00193778       0.00225545      -0.00986241
C        2.46773310       1.45203119       3.88890779      -0.00206679       0.00078602      -0.00899349
C        1.15989310       3.57570450       4.05499012       0.00404646      -0.00234319       0.00036655
C       -0.05076695       5.73637623       3.82624580       0.00600729      -0.00433706       0.00783240
C       -1.24565614       7.85365786       3.65176925       0.00464533       0.00090615       0.00096636
C       -2.46946521       9.99770064       3.71060963      -0.00168984       0.00994910      -0.01412483
C        4.94296021       1.43595213       3.78518605      -0.00070760       0.00241668      -0.00947664
C        3.77460259       3.57509938       4.06234925      -0.00163000      -0.00359458       0.00348071
C        1.20665421       7.80558718       3.84733862      -0.00100080       0.00628560       0.00622526
C        0.00220546       9.96958790       3.70649747      -0.00081561      -0.00300932       0.00809855
C        7.40823211       1.41324895       3.66831489      -0.00396932      -0.00133992      -0.00422511
C        6.19186465       3.56570830       3.70474172      -0.00469898       0.00077848      -0.00468793
C        4.98527348       5.73630918       3.83229255       0.00350326       0.00339665       0.01250427
C        3.72906472       7.80710528       3.85046949      -0.00484257      -0.00925223      -0.00107646
C        2.46719695       9.93453155       3.72984279       0.00844337      -0.00245299       0.00529272
C        9.86351703       1.41283545       3.66267239      -0.00353979       0.00798948       0.00023806
C        8.63514119       3.55995724       3.58662835       0.00671131       0.00758719       0.00155828
C        7.41233504       5.70961180       3.57983085      -0.01083049      -0.00933234       0.00129197
C        6.18070404       7.85373493       3.65173788      -0.00473286       0.00461313       0.00636535
C        4.93318419       9.97012680       3.70420124      -0.00252953      -0.00315539       0.00151662
Nb       2.46692625       5.03909609       4.82170620      -0.00553473       0.01757476       0.00192050
O        2.45553750       4.77243076       6.60144067      -0.00014715       0.00154230       0.00008174
O        2.39240207       4.62593422       8.01454149      -0.00069555      -0.01407002       0.00627663
H        3.27889964       4.94077340       8.29544136       0.00226369      -0.00273208      -0.00903606
