52
Lattice="12.336457 0.0 0.0 -6.168228499999997 10.683685154694365 0.0 0.0 0.0 15.0" Properties=species:S:1:pos:R:3:forces:R:3 energy=-451.2336889683501 free_energy=-451.2336889683501 stress="-0.005562403350395179 -0.0021919934668277155 -2.9232294583015053e-05 -0.0021919934668277155 -0.007744906426602339 1.6103983974012812e-05 -2.9232294583015053e-05 1.6103983974012812e-05 7.058846799890236e-07" pbc="T T T"
C       -0.03414664      -0.05878868       3.69146964       0.00682021      -0.00744511       0.00123635
C       -1.27518167       2.07564276       3.90282826      -0.00538342       0.00211547      -0.00637396
C       -2.51329112       4.22300722       3.79413897      -0.00101775       0.00626264      -0.00623624
C       -3.71483192       6.36487325       3.61722753       0.00383217       0.01237803       0.00209600
C       -4.94965125       8.50079254       3.58236415      -0.00456473      -0.00209963      -0.00404079
C        2.43744694      -0.07749070       3.64121040       0.00286922      -0.00638033       0.00420558
C        1.20684023       1.97947922       4.11399603      -0.00497646       0.00002749       0.00480319
C       -0.18977207       4.21921846       4.47752303       0.00939397       0.00130935       0.00889183
C       -1.30322239       6.37489631       4.04686797      -0.00455248      -0.00006140       0.00740030
C       -2.48379528       8.49457909       3.70570448       0.00988903      -0.00995182      -0.00442232
C        4.90428235      -0.04604172       3.58444534      -0.01223853      -0.00600397      -0.00013354
C        3.62976349       2.03513851       3.42982172       0.00945316      -0.00784975      -0.00054214
P        1.27850188       6.38303417       5.07788429       0.00663138      -0.01046235       0.00681701
C       -0.03756161       8.53135119       3.96580610      -0.00251898       0.00432368       0.00059520
C        7.36839606      -0.03462150       3.64243193      -0.00060414      -0.00726648      -0.00646624
C        6.13199001       2.09729498       3.43614330      -0.00261968      -0.00718809      -0.00482164
C        4.94223578       4.27565052       3.50254689       0.00026139       0.01295190      -0.00051266
C        3.77874093       6.39953684       3.97971145      -0.00691394       0.00000745      -0.00077107
C        2.44642116       8.54057257       3.93425950       0.00485474       0.00170952       0.01189454
C        9.83972279      -0.04238174       3.66532339       0.00143529       0.00984518       0.00069471
C        8.60325119       2.09235160       3.59785053      -0.01097488       0.00481663      -0.00279622
C        7.38187075       4.23032328       3.50604114      -0.00352119       0.00390029       0.00352903
C        6.18791312       6.39625918       3.54050783       0.00088757      -0.00003009      -0.00358827
C        4.90982705       8.50476290       3.66499807       0.00572701       0.00847900       0.01235871
C       -0.04293303       1.35357427       3.90038821       0.00003492       0.00304485      -0.00535112
C       -1.31079285       3.48890300       4.04257419       0.00104661       0.00582505      -0.00370692
C       -2.50313079       5.64980318       3.79454033      -0.00285093       0.00461333      -0.00033511
C       -3.71681926       7.78722423       3.62083827       0.00307455       0.00878850      -0.00003232
C       -4.96436848       9.91415232       3.63518784       0.00310315      -0.01191846       0.01224346
C        2.42695091       1.33667458       3.71971167       0.00348608      -0.00274589      -0.00699998
S        1.20068432       3.40007801       5.09994025       0.01280232      -0.00700349      -0.00651286
C       -0.17075684       5.62593645       4.46936237      -0.00350530       0.00992127      -0.00232712
C       -1.26442029       7.79707197       3.92092427       0.00774146      -0.00704864      -0.00446858
C       -2.48849174       9.91316480       3.62396902      -0.00413420      -0.01212069      -0.00327917
C        4.88978097       1.38099054       3.44649457       0.00088469      -0.01058041      -0.00178419
P        3.36394128       3.71596578       2.95489781      -0.00813301      -0.01181092       0.00653185
C        1.21120181       7.90381108       4.23333851      -0.00355191      -0.00069287      -0.00077965
C       -0.03338881       9.93913802       3.70943431      -0.00888402       0.00228236      -0.00546495
C        7.36622442       1.38551205       3.52917685      -0.00260854      -0.00685097       0.00035492
C        6.15116277       3.51678208       3.43803491      -0.00853389      -0.00038465       0.00631506
C        4.96052127       5.70574064       3.65847064       0.00047934       0.01147217       0.00271938
C        3.68152066       7.79652841       3.86189973       0.00584792       0.00422549       0.00205773
C        2.43673305       9.94083726       3.71402124       0.00637810       0.00102902       0.00361912
C        9.84206209       1.38067687       3.69596267      -0.01326540       0.00737125       0.00689261
C        8.60327529       3.51478820       3.60350093      -0.00576760       0.00605775      -0.00282961
C        7.39554989       5.65937429       3.52522608       0.00581282       0.00454818      -0.00291613
C        6.15440795       7.80506641       3.58063557      -0.00264286      -0.00087839      -0.00727695
C        4.90190625       9.92094941       3.65689289       0.00483652       0.00899805      -0.00395629
Nb       3.29258429       4.83494762       5.50494128      -0.00169385      -0.00257596      -0.00481985
O        3.84136717       3.24521468       6.07800572      -0.00156752      -0.00471796      -0.00041706
O        3.74578477       6.05560681       6.93760283       0.01093818       0.00807084      -0.01075397
H        3.70925674       6.38232849       7.84775310      -0.00149663      -0.01030647       0.00946035
