52
Lattice="12.336457 0.0 0.0 -6.168228499999997 10.683685154694365 0.0 0.0 0.0 15.0" Properties=species:S:1:pos:R:3:initial_magmoms:R:1:forces:R:3 energy=-583602.1751170853 free_energy=-583602.1751170853 stress="1947.1697360722067 -528.6671848340281 1426.5102024061737 -528.6671848340281 752.5119114793644 -4.358904000165562 1426.5102024061737 -4.358904000165562 2524.2588588772064" pbc="T T T"
C        0.14922649      -0.84465940       0.92157406       0.00000000   -1882.97229178   -2968.80057990   -2081.82947008
C       -4.66758540      -0.02770572       0.28041088       0.00000000      -0.71281598      -6.48726862       0.39160083
C       10.32824347       1.58681777       0.88629496       0.00000000      -1.95414800       7.37334123      10.35045274
C       -8.11667096      11.07060736       4.91115385       0.00000000     -17.28404654     -33.33646849      28.21131796
C       -6.59779667       7.66167869       0.86924483       0.00000000      11.54874973      89.43562034      -6.29858231
C       -0.50740103      -0.73707853       3.49727106       0.00000000     -14.41408795      -7.44313333      13.83927873
C        3.71068292       1.08358640      -3.26270350       0.00000000       0.53356395      -0.40738252      -0.27384879
C        2.52424088       1.64570378       0.43548894       0.00000000       2.34866131       8.15136394       2.77657694
C       -2.41601168       7.13850966       3.50048011       0.00000000    -552.89978840     289.98721260    -962.59393951
C       -5.74166730      10.23287893       1.22319798       0.00000000    1821.90614247    2904.38067759    2090.92088678
C        3.73521949       3.64394414       5.21965146       0.00000000    -349.24839418    1690.90500949    1660.64789437
C        3.57581410      10.80282950      -4.86386614       0.00000000     499.02323779    1240.06739513    -316.29808170
C        1.58996497       4.94764974       6.16376807       0.00000000  -53952.49060412  165087.50903864  142194.80843056
C        0.26094206       6.88914007       6.69715552       0.00000000  644615.42626806 -473019.89603263  933177.10867539
C        2.58608109       5.87494891       5.31753642       0.00000000   -9403.28466981   -3224.80733672  -48088.73663444
C        1.54135990       2.16160331       5.62863747       0.00000000    -159.48914714     -12.10407340     630.50489082
C       12.00852453       2.83040775       4.60746105       0.00000000     383.61851755     302.83874151     618.36688765
C        8.09774480       1.37447065      -3.23930128       0.00000000     -28.80297304      10.48421143       8.45813342
C        1.13987774       9.80822754       3.45275543       0.00000000     212.16256047     344.84556700    -358.19931230
C        1.94129893       8.24065951       7.72296326       0.00000000 -107066.03688132 -196186.46227259 -212780.61722479
C       12.68092793       2.37757558       5.65958945       0.00000000      60.25598501     716.70113627     979.72421790
C        9.41331229       3.65546507       2.98797308       0.00000000     -10.95140198      -2.95584026     -10.75923439
C        9.48867214       7.58324654       1.94585082       0.00000000    -132.18337479       0.01593448     -85.76298831
C        2.61186768       5.60551182       1.43787522       0.00000000     -12.65335159     -19.35794535      70.18536302
C        3.34427735       3.32438284       6.11574762       0.00000000   -1922.01403957    3448.88989298    3668.83945305
C       -5.64624318      -2.65236141       1.24636464       0.00000000     -21.63483744       8.08319937     -77.87649522
C        1.66969223      -0.07529022       1.94797278       0.00000000      42.40846643     -23.80996740      -1.40220597
C       -8.03213533      10.74354616       3.14201726       0.00000000      -9.31910486     -12.68955531       5.98763212
C       -4.55909047       8.35279483       5.98848244       0.00000000    -207.17078116      43.87247660     -46.59925486
C       -3.40571257      14.12565299       1.54006282       0.00000000     -22.04814437      39.06052795     103.93324399
C        6.85063066       2.21973646       7.78416186       0.00000000       8.19533419     -35.33262423       1.10251349
C        2.51293863       2.31066927       3.59927710       0.00000000      24.74571488     -53.51039395     -80.06591483
C       -0.07104799       4.81619794       7.16092493       0.00000000   87867.84740996  137010.18384803  -32185.46354245
C        0.07113550       6.94886231       6.61274765       0.00000000 1812600.72227497 -624688.29846195  969750.36030061
C       -2.65725286       6.67175389       4.73091189       0.00000000   -8723.34675556   -2268.05027675   -6122.83323909
C        4.72036942      -3.18609624       2.39027293       0.00000000    -124.40565481      66.53084036    -478.34269968
C        3.65970756       6.40240902       1.59782486       0.00000000      18.05022484      -0.39418737      53.80560450
C        1.69001749       8.77151983       9.08755431       0.00000000   21340.16214107   11905.37454785   53212.52176372
C       -1.50489035       7.93561117      15.23031318       0.00000000      17.53651251      -2.89350409      36.39956527
C        2.43556510       4.46478874      -0.84172563       0.00000000       1.83840663       0.68651917       1.40529298
C       19.81688583      -1.66029510      -0.65525093       0.00000000       0.34482900       1.62237782      -6.71170980
C        2.61913436       6.10780221       5.96995366       0.00000000 -162764.31102853   48158.95645091  158047.74056761
C        3.06769505       9.63314699      10.02366438       0.00000000    3530.79978905    8643.42570783    5531.40398549
C        1.68957138       6.28070763       5.64667302       0.00000000 -174573.01247319   65219.59266753  278156.31255137
C       10.44457033       1.06489630      -0.12653148       0.00000000       2.13074736      -5.59944977     -11.69635132
C       10.27288271      -1.34337022       2.71541713       0.00000000     -20.06813222     -25.94918860      21.78364828
C        8.73211930       2.59003271       2.50583716       0.00000000       1.42343311       1.95743428       0.72059819
C        3.08455040       9.02373895       8.06569257       0.00000000   18726.43619802   25595.70176291    1060.38065593
C        3.76143687       5.45554741       0.60874818       0.00000000     -19.45701094      -2.12610445      43.58614339
Nb       1.47455328       6.42853410       7.91118907       0.00000000  881483.32195233 5311889.46295008 6967241.47026934
O        1.29878036      14.62323746      10.84780477       1.00000000       0.49100547      -1.82785868      -0.22376517
O        1.53347299       6.47542631       8.09424035       1.00000000 -2951281.11218688 -4482123.55654699 -9214721.46390141
