51
Lattice="12.336457 0.0 0.0 -6.168228499999997 10.683685154694365 0.0 0.0 0.0 15.0" Properties=species:S:1:pos:R:3:initial_magmoms:R:1:forces:R:3 energy=-955821.130389709 free_energy=-955821.130389709 stress="-159.99953824577125 -226.988176736824 -93.35113171445072 -226.988176736824 -588.7210845536647 262.64727465183677 -93.35113171445072 262.64727465183677 130.28600726506008" pbc="T T T"
C        0.94606779       2.71617577       5.18099545       0.00000000  -36252.50005682  -15603.70025605   -4644.14284894
C        1.61940784       2.67875533       5.22937687       0.00000000   29455.64831875  -31448.69758957   -3167.03588896
C        0.07206522      -0.33934219       5.69227162       0.00000000     258.12208160     411.04555376      42.21901838
C       -5.43189308       8.55408635      -0.28831125       0.00000000       1.65369508       1.02840969      -5.25125685
C       -9.03659962      10.89502307       7.07970437       0.00000000     -43.17787907     735.94838960     208.09871001
C        9.92820374      -2.03063237      -5.64337972       0.00000000    -453.40155912     -73.19021736    1033.32204319
C        5.66933889      -0.92577345       5.06419330       0.00000000   -7203.50753424    -768.07176312    5208.44326351
C        1.21475667       5.89181435       3.22411866       0.00000000  -37327.62051041   25358.34713672 -111153.87402023
C       -2.00584172       6.45240832       0.99686522       0.00000000      75.26423110      37.39809931     -34.67547921
C       -7.60853381       7.64913919       3.84783186       0.00000000  -52491.96160326  -43822.57760159   34073.15430656
C        4.39062778      -9.29103948       2.68970740       0.00000000       6.19802246      22.47446606       3.07400215
C        2.70733799       0.99204467      10.16521947       0.00000000     -73.03469575      81.05683837      23.52019513
C        2.32346909       4.78462949       5.91731574       0.00000000  199894.44187452  837759.40909375 -531625.31843631
C        5.36472672      14.26459514       0.76889570       0.00000000      71.75627203     -28.80885407      52.41114268
C        8.07730476      -7.60976746      -4.23714132       0.00000000       2.08993082      -6.44571937      27.64905626
C        3.80449366       2.38980992       3.21272422       0.00000000     261.64409916    1166.65991707    1869.98615797
C        6.45889810       2.81460922       4.68909727       0.00000000    -117.22843083    -526.99504562     511.36994248
N        3.94911781       6.80071129       6.48097940       0.00000000  200659.01594122   56287.63474164 -145498.90412760
C        1.33220986       8.42470646       8.56621287       0.00000000     530.38570740    1141.55533342     869.31113211
C       16.87589348       4.17737114       3.92709341       0.00000000  -57403.70472024   87326.65572807   71420.05161544
C        5.13859389       6.79627039       4.99869906       0.00000000 -468103.12352695 -224961.76965266   73468.03613988
C       10.03991965      -0.95698613       8.41216040       0.00000000    -140.25979005    1212.95021861     439.48871621
C       22.08186446       5.30455246      -2.68168638       0.00000000       0.10937674      -0.08027239      -0.50736619
C       -5.42381181      14.51899451      -2.11847572       0.00000000       0.83870443       4.21185887       1.48517280
C       -2.11473686       1.48390351       5.91036512       0.00000000       9.89275969      38.45303579      -0.31030897
C       -4.29713538       4.88964810       4.06452707       0.00000000    2410.33307308    -536.60226201    -670.89773461
C       -7.61942852      -1.39705789       5.85975818       0.00000000   12227.04631340  -53646.40434564   20329.97776201
C       -6.38445106       3.87175934      10.75024968       0.00000000      10.82362775     -16.04387751      23.20764417
C       -3.48120819      13.76989978       4.74012960       0.00000000   34373.10176359 -153394.89265938  -40993.67527294
C        3.98550499       4.81756995       3.39968807       0.00000000  -39511.17717749  137009.37232535  179479.18555012
C        1.49175144       8.96625991       0.87062289       0.00000000     -36.03134065      12.67655346     -45.11322914
C       -2.17576084       8.92750211      10.69098660       0.00000000      -1.22619279      -1.41610651       9.63755857
C        0.61548360       5.96545375      -1.65028645       0.00000000       0.92876773      -5.58320022       0.35800576
C       -3.65238795       9.96940707       5.29929070       0.00000000     708.51164513     824.74872259    1143.68430465
C        4.41546805      -0.71100271      -9.32055597       0.00000000  -63879.39202574   43713.43694316    3231.98470721
N        2.89446025       5.71154409       5.37808667       0.00000000 -5707633.87563646 10549397.74590137 -1372176.47421939
C       -2.81932521       4.78889349       4.45367181       0.00000000     -11.63382477     -37.10109929     -14.59031575
C       -1.29810661       9.85854837       5.50921088       0.00000000   58161.78158729    9883.69495875  -29838.31812189
C       11.31908949       6.72428533       1.19714113       0.00000000      58.13098044       5.17537969     -12.33635184
C       -2.26067481       1.39582333       8.93924782       0.00000000     -17.22328946     -18.99199990      37.34209785
C        4.06495588       6.72981602       4.79055763       0.00000000 1080019.57574138 1088632.11711588 -647236.09559882
C        3.19048500       0.42513269      -4.81951634       0.00000000      68.09872281     -78.06941462      -4.53608111
C        3.06155264       8.43005107       7.75972670       0.00000000   -3186.24423648    -456.37593476     479.08801553
C       10.07254685       4.68243857       9.30103594       0.00000000     -10.17916111      -5.74028485      14.31295580
C        7.54668559       7.51030087       7.80357215       0.00000000    1319.57795303     480.73236592     814.81971828
C        4.42108628       2.03499546       4.52021923       0.00000000   -1438.77412407    1136.21448528    -741.88115849
C        9.59410420       6.10992063       1.15533905       0.00000000    -113.44803875     -54.91058764      20.34909127
C        7.06959995      14.13058461       2.25924984       0.00000000   -1120.97213939   -3117.35543606   -4976.68789597
Nb       2.85309637       7.55536829       4.87871868       0.00000000  -64499.38760581  452045.02009870 -110708.51359328
O       -0.05897936       6.72997667       5.75698493       1.00000000  -14806.17208345   -6480.47182184    1763.29462473
O        2.90768875       5.71713660       5.37615803       1.00000000 4935290.28599250 -12759635.46766886 2606950.27665579
