51
Lattice="12.336457 0.0 0.0 -6.168228499999997 10.683685154694365 0.0 0.0 0.0 15.0" Properties=species:S:1:pos:R:3:initial_magmoms:R:1:forces:R:3 energy=-447.86300048634934 free_energy=-447.86300048634934 stress="-0.0014399732261800014 0.0018214955458882092 6.211260282849385e-05 0.0018214955458882092 -0.0067781560437797 -4.671419544819709e-06 6.211260282849385e-05 -4.671419544819709e-06 0.0006045854712974891" pbc="T T T"
C        0.01476821      -0.01828953       3.41283443       0.00000000      -0.05498866       0.00694402      -0.00162809
C       -1.21033429       2.14059322       3.28692514       0.00000000       0.00409898      -0.03814194      -0.02184897
C       -2.44758795       4.27201941       3.41170670       0.00000000       0.01505798       0.02567046      -0.00703017
C       -3.68433553       6.39983436       3.53434299       0.00000000       0.01160714      -0.04545568       0.02450772
C       -4.93086237       8.52279233       3.56015127       0.00000000       0.05540939       0.01241254      -0.00184646
C        2.48416229      -0.06996919       3.44808782       0.00000000      -0.03766493       0.02699067      -0.02971643
C        1.27665729       2.04990278       3.22309042       0.00000000       0.05507800       0.08932114      -0.02285863
C        0.00298999       4.33933677       3.33331312       0.00000000      -0.01986669       0.01653026       0.04913191
C       -1.22824796       6.41955207       3.60753499       0.00000000       0.01434183      -0.04307320      -0.01482079
C       -2.45310496       8.52528954       3.54412964       0.00000000       0.05655660      -0.03890601       0.03373046
C        4.95744502      -0.03129937       3.61884207       0.00000000       0.00690682      -0.01929486      -0.00790792
C        3.68685767       2.02053433       3.81027104       0.00000000       0.01395252       0.03084767       0.02186135
C        1.13293430       6.42373150       4.28150193       0.00000000       0.02766400       0.05478162      -0.00969338
C        0.01932025       8.53213271       3.78408980       0.00000000      -0.05927545       0.00522895       0.00435113
C        7.41570127      -0.00386176       3.65374890       0.00000000       0.05696544       0.00290412      -0.01208107
C        6.18754353       2.12209596       3.72029567       0.00000000      -0.01316843      -0.01392886       0.00375324
C        5.03320636       4.28171982       4.15178182       0.00000000      -0.05537316      -0.00181746      -0.01712267
P        3.71788753       6.45889979       5.07175958       0.00000000      -0.05757164      -0.02388937      -0.01852824
C        2.47463139       8.58605926       4.01790590       0.00000000      -0.02247988       0.02679175      -0.01497099
C        9.88478040       0.00644214       3.56356857       0.00000000       0.01085315      -0.01964099       0.00550004
C        8.65219175       2.12986560       3.47595980       0.00000000      -0.00389236       0.07378017       0.04833253
C        7.42756263       4.26374325       3.63376195       0.00000000      -0.02075845      -0.00150922       0.01819200
C        6.22373300       6.41911295       3.88543406       0.00000000       0.00199921       0.01937718       0.03330874
C        4.96565262       8.57992308       3.86356175       0.00000000      -0.03410425      -0.06518731       0.02117376
C        0.01898316       1.40831976       3.26835456       0.00000000       0.04443475       0.03584477      -0.01571351
C       -1.19763348       3.57567735       3.30115603       0.00000000      -0.01522380      -0.02281550      -0.00224068
C       -2.44877114       5.69531654       3.49116515       0.00000000       0.00629388      -0.00541101      -0.01631611
C       -3.69033059       7.81827055       3.53464984       0.00000000       0.05969852      -0.02935894      -0.02933818
C       -4.92817992       9.93357405       3.44645945       0.00000000      -0.04848309       0.03255153       0.00075711
C        2.48091689       1.33232640       3.47044326       0.00000000       0.02950784       0.03282269      -0.01502989
P        1.58925665       3.73721789       2.82673003       0.00000000       0.01332931      -0.00311574       0.00548597
C        0.01427866       5.72950829       3.72153067       0.00000000       0.05133745       0.01507872       0.04496644
C       -1.21872556       7.83106171       3.65242486       0.00000000      -0.00301618      -0.06975736      -0.00700813
C       -2.44184632       9.93427553       3.52734375       0.00000000      -0.02318887      -0.00710513       0.05454810
C        4.95297607       1.39115404       3.72682786       0.00000000      -0.00712255      -0.02091486       0.01648784
P        3.45538716       3.58815883       4.55553983       0.00000000      -0.03891892       0.01509437      -0.02264886
C        1.23810961       7.81492582       4.05246944       0.00000000      -0.03395753       0.07553934      -0.05148409
C        0.02064095       9.95004615       3.68204771       0.00000000       0.02497056      -0.01073120       0.00081256
C        7.41545316       1.41886703       3.59326815       0.00000000       0.00906036       0.02216907       0.00507564
C        6.20141281       3.54579076       3.81819920       0.00000000      -0.03425624      -0.01092882      -0.00173734
C        5.07354690       5.69177829       4.26904060       0.00000000      -0.05817759      -0.03023317       0.00705916
C        3.73442315       7.96610944       4.22283976       0.00000000      -0.06390403      -0.04954070      -0.01586064
C        2.48036635       9.97960320       3.72094707       0.00000000       0.04044241      -0.00926711       0.00857994
C        9.89226329       1.42726302       3.41466288       0.00000000      -0.01590737      -0.00820963      -0.00386372
C        8.65642154       3.55520985       3.47876868       0.00000000       0.01018996       0.07478628      -0.00287065
C        7.42966677       5.68913790       3.64985360       0.00000000      -0.00925702      -0.01282234       0.01143738
C        6.18579497       7.83622324       3.77584401       0.00000000       0.04080887       0.01825446       0.03621190
C        4.95448649       9.98135731       3.58978507       0.00000000      -0.03491774      -0.06765370      -0.00072971
Nb       1.84917201       4.98552009       6.12935100       0.00000000      -0.07300036      -0.08693895       0.23664458
O        2.47243271       5.17092311       7.80033451       1.00000000      -0.07960582       0.11105396      -0.54886127
O        0.25112338       4.15992579       6.18128557       1.00000000       0.25751605      -0.06912669       0.22184712
