52
Lattice="12.336457 0.0 0.0 -6.168228499999997 10.683685154694365 0.0 0.0 0.0 15.0" Properties=species:S:1:pos:R:3:forces:R:3 energy=-458.93819584687975 free_energy=-458.93819584687975 stress="-0.0022077257266812367 0.000153822968199853 -9.305912679398816e-06 0.000153822968199853 0.0029962424820663956 -2.9719304359356553e-05 -9.305912679398816e-06 -2.9719304359356553e-05 -1.9541404110822223e-05" pbc="T T T"
C        0.00166027       0.00082433       3.68948982      -0.00276900       0.00397143      -0.00552812
C       -1.24114569       2.12446962       3.71090537       0.00331968       0.00752383      -0.00325196
C       -2.46860242       4.26443300       3.69646553       0.00275437       0.00391966      -0.00027523
C       -3.69912959       6.40821590       3.66675784       0.00060771      -0.00645350      -0.00398582
C       -4.93105133       8.55222926       3.66552880      -0.00364706       0.00086777      -0.00110833
C        2.46929762       0.03048398       3.69266920       0.00660938      -0.00032353       0.00406809
C        1.21129901       2.16775048       3.78010171      -0.00195278      -0.01205011       0.00546853
C       -0.02410467       4.25723892       3.86895638       0.00339476      -0.00427378      -0.00208836
C       -1.24141226       6.41034267       3.75305391      -0.00290478       0.00038833       0.00329013
C       -2.46958773       8.55072238       3.68476822       0.00058271      -0.00376833       0.00613945
C        4.93310286      -0.00345740       3.70932740       0.00296420      -0.00009538      -0.00184880
C        3.72330382       2.11338966       3.75243998      -0.00194238       0.00116835       0.00659653
N        1.16339586       6.42366792       3.97466796      -0.00595562       0.00785374      -0.00463477
C       -0.00438505       8.52562005       3.75977018       0.00248629      -0.00381515       0.00191917
C        7.40698361      -0.02929395       3.71983294      -0.00730378      -0.00980851       0.00632267
C        6.17842677       2.12306122       3.71848654      -0.00029387       0.00253868       0.00117567
C        4.98802947       4.27580909       3.83885548      -0.00134436      -0.00404654      -0.00855914
N        3.76634085       6.41322699       3.94325631       0.00232709      -0.00408001      -0.01806220
C        2.46724116       8.48736458       3.80731652       0.00598154       0.00859406       0.01483475
C        9.86612010      -0.02955414       3.70894802      -0.00250268      -0.00277001      -0.00194799
C        8.63606799       2.12057559       3.68966403       0.00152785       0.00125892      -0.00248933
C        7.40662755       4.26727201       3.69494256      -0.00135069       0.00711823       0.00589944
C        6.18017140       6.40987082       3.70747648       0.00055894       0.00215163       0.00481172
C        4.93793188       8.52352453       3.72632469      -0.00617373       0.00045731      -0.00873313
C       -0.00012644       1.43245747       3.71565616      -0.00394542       0.00392124      -0.00448359
C       -1.24083745       3.54486193       3.73933965       0.00118285       0.00418775       0.00192184
C       -2.47000542       5.69143362       3.69676859       0.00165263      -0.00185602      -0.00599759
C       -3.70028545       7.83573105       3.66414867      -0.00324231      -0.00306196       0.00326003
C       -4.92846937       9.98555183       3.67662979      -0.00102222       0.00789656       0.00794002
C        2.47741468       1.47879630       3.73918093       0.00232245      -0.00171484       0.00559843
N        1.16839157       3.53963246       3.93411647      -0.00345461      -0.01463771      -0.00110039
C       -0.02696797       5.69986209       3.88659735      -0.00171770       0.00077242      -0.00094368
C       -1.24153302       7.83251948       3.72897972       0.00080492      -0.00364351       0.00006775
C       -2.47233477       9.98686589       3.69255007       0.00615718      -0.00227213      -0.00982259
C        4.93547298       1.42928389       3.72034543      -0.00120062       0.00179943      -0.00251403
O        3.76847456       3.54492224       3.74775997      -0.00074167       0.00145637       0.00685422
C        1.21505355       7.79853042       3.84590483       0.00683559       0.00677680      -0.01121036
C        0.00171207       9.95422970       3.72644610      -0.00281482      -0.00915273      -0.00998091
C        7.39937426       1.40659385       3.70261625      -0.00248113      -0.00420206      -0.00475150
C        6.17414306       3.54811617       3.74478181       0.00074274       0.00317933      -0.00633011
C        4.95905278       5.69226790       3.82589506       0.00423191      -0.00497001      -0.00129409
C        3.71757749       7.78708958       3.81885701      -0.00088706       0.00203247       0.00793200
C        2.46859860       9.92597663       3.73714667      -0.00481389       0.00238820       0.00835185
C        9.86676969       1.40317992       3.69389903       0.00528898      -0.00393713      -0.00039518
C        8.63566659       3.54863127       3.68068234      -0.00089261       0.00728797       0.00766161
C        7.40349474       5.69057498       3.67726650       0.00194336       0.00348350       0.00039138
C        6.17635658       7.83024372       3.69112929      -0.00504966       0.00013104      -0.00316250
C        4.93396136       9.95312533       3.70341027      -0.00103827      -0.00355217      -0.01308112
Nb       2.42622813       4.98906160       4.66605368       0.00142103      -0.00862695       0.01528296
O        2.30187508       5.05254928       6.42755950       0.00498009       0.00907257       0.01166495
O        2.12394547       5.10657661       7.84829891      -0.00108351       0.01060997       0.00778115
H        3.04644084       5.01485352       8.17532298       0.00184796       0.00030450      -0.00765352
