51
Lattice="12.336457 0.0 0.0 -6.168228499999997 10.683685154694365 0.0 0.0 0.0 15.0" Properties=species:S:1:pos:R:3:initial_magmoms:R:1:forces:R:3 energy=-442753.40089524654 free_energy=-442753.40089524654 stress="1108.0100240090705 -1248.0300472817735 402.31124778002044 -1248.0300472817735 1250.2745615830495 -346.2051987193771 402.31124778002044 -346.2051987193771 396.09581418406833" pbc="T T T"
C       -1.01552327       0.02943392       9.29227030       0.00000000       1.02074687       1.57320683       0.93003513
C       -1.79499994       3.77498381       0.93013745       0.00000000     179.60632952       1.04541601     119.79026952
C       -5.81398154       7.51323566       6.46741261       0.00000000      10.44878602     172.13363533     175.28942265
C       -2.44809334       5.56659437       0.95503661       0.00000000      66.31165387      -4.35072627      43.15658860
C       -5.44817834      11.03396769       4.99957318       0.00000000    -958.39885719    1592.45607752      12.98751038
C        4.34270752       1.01129085       4.99117657       0.00000000     841.07808282   -1882.31355175    2921.77056248
C        1.18390915       1.72770199       2.65536678       0.00000000   35157.95170074   57400.73470024   30345.40226161
C       -2.29337447       4.92130688       5.92544155       0.00000000     248.78014771      76.47662831    -203.95618321
C       -3.23918081      10.31713905       1.82948014       0.00000000     442.96504761   -1003.64847564   -1948.82189460
C       -2.14380106       9.34197153       2.17966183       0.00000000   -1566.50660713    1908.66400764     939.62923753
C       10.00204751      -2.89927125       3.80114059       0.00000000    7163.10277523    4065.07962061   -4223.56850859
C        2.41216426      -0.26394952       3.59094362       0.00000000  -10555.61935957    4451.48272164    7495.58735404
N        1.49702013       4.80787073       3.66438574       0.00000000 2382327.63504611 -2127626.09481677   78971.14530782
C       -6.83322904       6.05377616       5.44884805       0.00000000     847.30439278     199.91365850       5.66406290
C        7.98030235      -1.35977570      -3.04781522       0.00000000       4.67952732      -2.93658120       1.69235751
C        5.45723502      -3.36589632       7.71292066       0.00000000     -43.47318372      46.09662643      76.02967067
C        7.92828504       4.37756310       4.96677831       0.00000000     431.89583193     358.63110273    -297.04737165
N        3.80210977       5.38054122       3.33420792       0.00000000  315910.47414356   70461.40144020  -50152.25007905
C        2.44408643       8.22520183       4.52268729       0.00000000     143.49293078    2994.53225699     564.78136601
C       10.03962645       4.34813734       9.06733420       0.00000000       3.13196582      -3.48873165       4.91295050
C        9.75858213      -2.41727630      -2.29980490       0.00000000      -4.55560234       2.54300892      -1.89275137
C        5.44652324       1.20242168       1.62938623       0.00000000     135.49891992      -5.31062782    -271.05688323
C        5.96831749       3.83581429       2.62438474       0.00000000    1231.34840176     443.57310860   -1104.51569053
C        5.92933151       5.05564560       6.02241878       0.00000000    -617.35217646   -1370.85793977     478.03409671
C       -0.01190232       2.57512729       4.09202132       0.00000000   25083.75873722   -3773.07558913   -1775.82766207
C        0.73994924       2.57867588       4.95285357       0.00000000  100933.44087415   41170.30412387  -72784.25899531
C        0.37866615      16.92656568       1.59639488       0.00000000    1147.44239658     624.62903121    -868.14789889
C       -3.75407241       5.92580553       3.65996049       0.00000000     -32.75852178     -21.79179809      27.90218368
C      -11.74455333      16.62401299       4.77186228       0.00000000    1731.28230980     646.42400266     299.79181272
C        0.27431579       1.30599611       3.27765097       0.00000000    1302.10460006    3899.95285592   -1522.35846391
N        8.39977851       3.37040317       3.27578780       0.00000000     265.36982774      10.41152652      80.99706741
C       -5.72343553       2.71826692       5.53086085       0.00000000    1316.11814410     254.81580521    2257.13091553
C       -2.76409429       9.80619324       3.03663465       0.00000000   43415.70814604  -57047.83500733   -8771.79474448
C       -3.07773955      10.16000317       3.11621922       0.00000000  -31364.88337879   35552.40030980   -5414.15194883
C        2.87244901       1.06076187       6.36403667       0.00000000     -78.51468227     747.44192319     364.93915007
O       10.76438609      13.49930674       9.59100429       0.00000000     -26.71214920       4.35778306    -104.75083130
C        5.29613763       7.06137633      -7.76464160       0.00000000     461.88508765     780.97213043     814.72672947
C        3.22329914       7.61470936       4.29978079       0.00000000   -8114.87283511    2328.49538713    2571.98382623
C        5.96126345       0.24248663       1.09349336       0.00000000      81.19666953     -54.93229318     -78.58711924
C        4.55719309       1.13921344       6.12184532       0.00000000    -416.07847170    -367.63911674     334.58966597
C       14.84052659       7.52129833       9.67243263       0.00000000      -1.80774996       0.11078196       0.91111223
C       -0.62799063       0.51047944      -0.64211895       0.00000000       2.48579210      -3.76700545       3.41601009
C        4.58267735       6.80792158       3.56340325       0.00000000    4495.52224543    2933.82143969   -2952.87554075
C        6.00594281       2.26004296       4.86083562       0.00000000    -448.24155614     996.26022296   -2334.77716642
C        7.75509329       0.96835526       5.79262079       0.00000000     244.08317522     -75.83218795      58.13327877
C        3.17039272      12.85887414       4.61095466       0.00000000     -78.54176389     -87.87935220       2.23605513
C        8.37087909       9.48676509       4.56667730       0.00000000    -212.16065654   -2791.85720876    1060.85837810
C        4.90797348      11.30046633       2.69295793       0.00000000     497.59570744      35.33172115      -8.43309313
Nb       2.35070356       3.94216601       3.73167588       0.00000000 -2082787.68011644 4109578.99846341 -1312005.61935218
O        3.17939392       3.47517672       4.84547528       1.00000000 -532929.30897951  475313.34762158 -608633.81249692
O        2.23712017       4.12284511       3.71834200       1.00000000 -255887.25349567 -2622930.80133656 1945424.08543617
