52
Lattice="12.336457 0.0 0.0 -6.168228499999997 10.683685154694365 0.0 0.0 0.0 15.0" Properties=species:S:1:pos:R:3:forces:R:3 energy=-461.72275755447265 free_energy=-461.72275755447265 stress="-0.003365061090800758 -2.1027763147138545e-05 2.5829921808929016e-06 -2.1027763147138545e-05 0.003629403426814967 2.0822493152095543e-06 2.5829921808929016e-06 2.0822493152095543e-06 6.490447123471436e-05" pbc="T T T"
C        0.00245056       0.00556471       3.70211500      -0.00030679       0.00476330      -0.00263129
C       -1.24142297       2.12487103       3.69053533      -0.00627123      -0.00432148       0.00174174
C       -2.47186330       4.26712178       3.64051022      -0.00468463      -0.00642732      -0.01076578
C       -3.69902884       6.41354078       3.62070321      -0.00168253      -0.00062025       0.00210110
C       -4.92930211       8.55916877       3.66007157      -0.00800985       0.01127639       0.00023379
C        2.46838147       0.03984872       3.72360855       0.00438857       0.00824693      -0.00506546
C        1.21375828       2.17176298       3.84290911       0.00016809      -0.00329630      -0.00562325
C       -0.03472080       4.25952005       3.85783331       0.00111935       0.00454587      -0.01399468
C       -1.24479507       6.41448175       3.70544596      -0.00155829      -0.00086347       0.00030712
C       -2.46894624       8.55931529       3.65892474      -0.00219538       0.00415539       0.01791904
C        4.93458574       0.00515864       3.70113943       0.00203459       0.00767062       0.00274230
C        3.72354726       2.17147387       3.84098298       0.00132769       0.00017212       0.00292293
N        1.15271175       6.41507799       3.98126932      -0.01215474       0.00127658      -0.00278279
C       -0.00261695       8.52677088       3.73309662       0.00429429      -0.00890663       0.00832346
C        7.40776139      -0.03055802       3.69054002      -0.00204538       0.00303373       0.00991324
C        6.17832432       2.12492852       3.69174263       0.00775502      -0.00196750       0.00793317
C        4.97276227       4.26075824       3.85991055      -0.00053920      -0.00495595      -0.01408412
N        3.78669537       6.41713008       3.99038109       0.01437001      -0.00448054      -0.00631700
C        2.46895080       8.48321438       3.81178106      -0.00151876      -0.00810339       0.01124817
C        9.86563964      -0.03003502       3.69104027       0.00369392      -0.00933877       0.00459697
C        8.63644973       2.11929401       3.64040326       0.00629094       0.00429251      -0.01032851
C        7.40962185       4.26700036       3.64105993       0.00073803       0.00215065       0.00362570
C        6.18296617       6.41479809       3.70586284      -0.00088861      -0.00203560       0.00196794
C        4.94040951       8.52726551       3.73521455       0.00435516      -0.00338750       0.00136794
C       -0.00283623       1.43507630       3.73430280      -0.00248451      -0.00124101       0.00318690
C       -1.24525403       3.54724769       3.70377547      -0.00235434      -0.00076526       0.01470325
C       -2.47154897       5.69502334       3.63892095      -0.00104227      -0.00696498       0.00645768
C       -3.69896317       7.84217623       3.63914772      -0.00655018       0.00122773      -0.00985713
C       -4.92855941       9.99198184       3.69115007       0.00501605       0.00933147       0.01325914
C        2.46862482       1.47917266       3.81332881       0.00013040      -0.00123847       0.00788296
N        1.15082985       3.54594522       3.98691479       0.00422738       0.00286437      -0.01106655
C       -0.03401819       5.70160607       3.85649952      -0.00055121       0.00681477      -0.00352587
C       -1.24126793       7.83696337       3.69227514       0.00266386       0.00022601      -0.00875291
C       -2.47096620       9.99198580       3.69158584       0.00455276       0.00837056       0.00206437
C        4.93993382       1.43462545       3.73328768       0.00009456       0.00856215       0.00435917
N        3.78689286       3.54561390       3.98763402      -0.00478540       0.00868074       0.00384439
C        1.21448863       7.78996950       3.83894868      -0.00400120      -0.00337746       0.00112922
C        0.00234467       9.95611914       3.70200878      -0.00072956      -0.00559836      -0.01151523
C        7.40589855       1.40224433       3.66070030       0.01042948       0.00297094       0.00210654
C        6.18264660       3.54767890       3.70753266       0.00237684      -0.00386785      -0.00177831
C        4.97261152       5.70252187       3.85912944       0.00419341      -0.00673483      -0.00624911
C        3.72378121       7.79123325       3.84409245       0.00588716      -0.00151940      -0.01108021
C        2.46860890       9.92221062       3.72134889      -0.00066481      -0.00740588       0.00450551
C        9.86708057       1.40243092       3.65874380      -0.00212596       0.00143808       0.01445482
C        8.63704295       3.54814259       3.62309478      -0.00245344       0.00192957      -0.00547750
C        7.40994745       5.69494336       3.64061987      -0.00748269      -0.00017672      -0.00487647
C        6.17925381       7.83730525       3.69047188      -0.00259583      -0.00279436       0.01598477
C        4.93479334       9.95657817       3.70275910       0.00228049      -0.00189044      -0.00746958
Nb       2.47033076       4.98146574       4.72307068      -0.00885471       0.00025020       0.01465907
O        2.44316243       4.98597295       6.49862784      -0.01052407      -0.00319092      -0.00518528
O        2.34006965       4.98694002       7.92712143      -0.00136789       0.00115522      -0.01158802
H        3.28320412       4.99013739       8.20414330       0.00803543       0.00006477      -0.01552732
