53
Lattice="12.336457 0.0 0.0 -6.168228499999997 10.683685154694365 0.0 0.0 0.0 15.0" Properties=species:S:1:pos:R:3:forces:R:3 energy=-470.5286536457161 free_energy=-470.5286536457161 stress="-0.0024408161068636006 -6.080635360504407e-06 -1.5380623525527243e-05 -6.080635360504407e-06 -0.0024407274277952035 2.9311087902308437e-06 -1.5380623525527243e-05 2.9311087902308437e-06 -4.6367065640452104e-05" pbc="T T T"
C       -0.00239080      -0.00372591       3.55464798       0.00296746      -0.00028194      -0.00738775
C       -1.23265872       2.13720558       3.62878464      -0.00331251      -0.00704427      -0.00084923
C       -2.46310824       4.26818664       3.63018816      -0.00430669      -0.00070865      -0.00219412
C       -3.70202531       6.40370589       3.55713759       0.00038040       0.01658462      -0.00194518
C       -4.93676121       8.54194434       3.52957983       0.00626286      -0.00371176       0.01148132
C        2.46624065      -0.00271121       3.53031766      -0.00233048      -0.00693898       0.00389411
C        1.23417258       2.12002422       3.69214286      -0.00348107       0.00243865      -0.00700141
C        0.01553405       4.27849000       3.89017177       0.00118962      -0.00040468       0.00172776
C       -1.24473686       6.41354316       3.69313827      -0.00549242      -0.00428428      -0.00665975
C       -2.46741244       8.54227032       3.53301894      -0.00543207      -0.00474341       0.00088894
C        4.93453880      -0.00337890       3.55884385      -0.00053866       0.00361013      -0.01003866
C        3.69842315       2.12052451       3.69239218      -0.00499397       0.00360395      -0.00021072
N        2.46575253       4.06488925       4.27686803       0.00734641      -0.00034948      -0.00762438
N        1.05698963       6.50675461       4.26846934       0.01181194      -0.00059488       0.00231147
C       -0.01258965       8.54767997       3.69353753      -0.00097880      -0.00274420       0.00111028
C        7.40343717      -0.00866054       3.63007952       0.01050667       0.00847548       0.00083207
C        6.16470150       2.13797338       3.63009440       0.00719255      -0.00969827      -0.00194711
C        4.91648528       4.27940805       3.89278703      -0.00439740       0.00053678       0.00232171
N        3.87811479       6.50919253       4.28348225      -0.00838854      -0.00904774      -0.00902279
C        2.46637403       8.52343993       3.89220455       0.00257568      -0.00159988       0.00327642
C        9.86520487      -0.00911544       3.62843607      -0.01005725       0.00997065       0.00221618
C        8.63418015       2.13212551       3.59853639       0.00272251      -0.00032172       0.00247110
C        7.39548472       4.26855440       3.62946618      -0.00201810      -0.00476910       0.00542471
C        6.17691998       6.41326291       3.69499731       0.00192474       0.00089043      -0.00613988
C        4.94504169       8.54692125       3.69341878      -0.00237770       0.00607293      -0.00433288
C       -0.00395491       1.41944686       3.60623188      -0.00119631      -0.00361323      -0.00026411
C       -1.22467297       3.56254584       3.69832607      -0.00358794      -0.00625055       0.00363545
C       -2.47027593       5.69105727       3.60907595      -0.00997491       0.00735368      -0.00670026
C       -3.70197488       7.82733182       3.52413048      -0.00188556       0.00840502      -0.00100792
C       -4.93787490       9.96858812       3.52216330       0.00091452      -0.00751156      -0.00112662
C        2.46643521       1.41387557       3.62677999      -0.00534175       0.00166579       0.00346971
C        1.23381481       3.50815056       3.94820832       0.00689292       0.00267926      -0.00230265
C       -0.04242055       5.71884160       3.94473998       0.00270752      -0.00013369       0.00464235
C       -1.24048821       7.83404616       3.62993579      -0.00739757      -0.00620424      -0.00619679
C       -2.46624684       9.96882228       3.52486710      -0.00157321      -0.00833864       0.00141515
C        4.93639167       1.41978307       3.60908619      -0.00269944       0.00176014      -0.00493740
C        3.69798116       3.50878076       3.94832345      -0.00030952       0.00191226       0.00176003
C        1.18986655       7.85351096       3.94699237       0.00445666       0.00121525      -0.00261009
C       -0.00076637       9.97004178       3.61002546       0.00797644       0.00642849      -0.00686120
C        7.39983141       1.41999986       3.60148865       0.01054799       0.00180204       0.00738827
C        6.15682297       3.56343163       3.69876393      -0.00515425      -0.00799335       0.00776471
C        4.97467550       5.71966996       3.95126548      -0.00391504       0.00251006       0.00180685
C        3.74293878       7.85367073       3.95142635      -0.00067540      -0.00803506      -0.00351549
C        2.46611662       9.95544591       3.69863909       0.00058307       0.00186030       0.00383076
C        9.86848117       1.41962580       3.60126564      -0.00484741       0.00042925       0.00094427
C        8.63430399       3.55712846       3.60180357       0.00241446      -0.00560198       0.00324916
C        7.40260762       5.69123888       3.60931323       0.00773809       0.00493152      -0.00854007
C        6.17290530       7.83338089       3.62831276       0.00417160       0.00286011       0.00059428
C        4.93291153       9.96925191       3.60635780      -0.00576721       0.01134303      -0.00067120
Nb       2.46103734       5.69485828       5.42270336      -0.00081649       0.00194795       0.01666396
O        2.44722386       5.70307199       7.26668436       0.01750870       0.00035223       0.00502978
O        2.39570567       5.71131843       8.69181107      -0.00064024      -0.00085764       0.00512751
H        3.34651238       5.71864940       8.92728557      -0.00690487       0.00014315       0.00480934
