51
Lattice="12.336457 0.0 0.0 -6.168228499999997 10.683685154694365 0.0 0.0 0.0 15.0" Properties=species:S:1:pos:R:3:initial_magmoms:R:1:forces:R:3 energy=-1601933.5781643768 free_energy=-1601933.5781643768 stress="1118.6380662799156 357.5661743298395 162.53468290176588 357.5661743298395 52.696546810892 -111.34909795335801 162.53468290176588 -111.34909795335801 2010.8623762808636" pbc="T T T"
C        0.21638153      -1.13902602       3.82138328       0.00000000  -12842.16016149    1829.93915246   10547.23610680
C       -2.82838166       2.84101510       3.05477406       0.00000000      24.12841098     -86.53608284     -25.99347103
C        1.96714258      -5.44309790      -0.24611781       0.00000000      13.65243088      -4.49872985       8.32528086
C       -9.71183689       6.17410122       0.57068253       0.00000000      -3.30146156      -2.06137100     -13.22598996
C       -6.97384482       0.27194083       1.07378051       0.00000000       7.20447515       0.52802290       3.70921168
C        5.17450884       0.92025553       4.51432168       0.00000000     -53.13770808     -41.05453932       7.33076142
C       -5.55107977      -2.07500120      -3.78876796       0.00000000  -19030.86457423   18571.05621455   32849.67674984
C       -2.87461839       6.69413118      10.48133019       0.00000000     200.13900981       9.40825159     -80.96184523
C       -6.07109570       9.72486825       4.35736240       0.00000000   -8440.92039230    4529.60823222   18954.03368316
C       -4.01065004      11.99359882       5.22108406       0.00000000     -74.50092177    -158.60558508     -67.49618353
C        9.13185321       3.50919718       2.85549472       0.00000000    -286.34781975     371.08492830     167.02840717
C       20.28235352       1.87837590      -6.10710777       0.00000000      21.10057336    -378.99871252     -79.04414311
N        1.58085306       6.71639829       6.66462068       0.00000000  654051.24776532  115256.22950646   26907.10770998
C       -0.27575500      12.22392326       4.37259934       0.00000000      53.61005640      22.35485051      18.04497994
C        7.13600751       0.10806162       1.03204706       0.00000000      -4.11878736       3.38252647       0.11803831
C       -1.36264002       0.35874431      -1.45887409       0.00000000      -0.70977058      -2.43135316       5.78698494
C        4.04900246       7.63602011       6.50718093       0.00000000  105159.01550882  -11877.33510791 -100594.37256927
N        3.53985185       7.21445914       4.75421056       0.00000000    3984.55821350   -6168.15474758   40124.32768185
C        3.46493986      19.35507305       2.23968469       0.00000000     -41.81722262      25.15652229      -0.86596043
C       12.76495191       2.51542189       5.35097855       0.00000000      33.60100698     154.02179435     -15.58306456
C        9.33310850       3.19943517       2.24482007       0.00000000     105.84566845    -152.82247695    -234.20788009
C        6.97577106       1.16426937       0.21085475       0.00000000      -1.18822128      -1.35260589       0.54484510
C        0.24773800       8.88501361      -1.10434648       0.00000000     -38.30016369      21.19716376     297.11925660
C       10.06105574       5.09343817       3.31158622       0.00000000      61.33956629      37.30798755      52.00104597
C        0.58365423      -1.21552118       3.40289744       0.00000000   21467.67539658   -6671.51167695  -29744.32592255
C        2.09165665       3.82809396       8.26872365       0.00000000   -4889.61815668  -94243.60395428    4752.10729149
C       -5.87277423       6.25997723      12.81032657       0.00000000    -214.74876872     336.43818242    1008.27924414
C       -7.38814865       4.53729423       0.82222929       0.00000000       2.06748931      -3.37760422      -4.10081765
C       -4.78001063       6.89119583       1.39922700       0.00000000       0.34116577      15.44300088      19.55682424
C        0.85304810       2.96007033       9.01600795       0.00000000    2708.66692445    4294.67821921   -2062.05387358
N        2.22630522       5.60735396       7.28153110       0.00000000  593800.63824557  297455.10920832   47855.49295409
C        3.36651830      10.55060612       4.46950688       0.00000000    -493.71465473   -1982.39882589    2138.95350824
C       -2.81530815       6.41972138       1.75538820       0.00000000     -10.55678251       3.75842832     -11.48185718
C       -2.31070363       1.02260261      10.25208376       0.00000000    -168.76483276   -1154.35770599    -580.89340393
C       12.87765350      -4.70985288      -2.90071639       0.00000000     148.27893733    -364.66938420   -1020.61522922
N        3.56206165       5.87584180       9.77251598       0.00000000   40057.53601440   86791.69204399 -164938.91256329
C       -2.95751317       5.18036003       0.43267888       0.00000000      -4.06908655       1.98541571       2.45716625
C       -0.41850054      12.86852811       3.47499742       0.00000000      -3.40848967      16.13847761     -24.16904221
C        8.61945854       2.52901982       4.36085450       0.00000000     -14.26143306     -12.08754669      56.13645912
C       13.75056665       1.13471676       5.90325275       0.00000000     -20.35229882    -310.75900680    -180.41576646
C        1.97292806       5.30293165       6.55609807       0.00000000    4086.07091156  -22690.44048803  -85993.14138746
C       -3.69392567       9.83292132       0.75008613       0.00000000      -1.34740366     -11.64699308      39.13667881
C        2.15454963      14.88375598       2.71093079       0.00000000     134.26571634    -122.11365171      11.80249591
C       11.09089598       2.47673944       0.66468910       0.00000000      -1.32007696      -3.90239981       8.61239278
C       12.33625944       1.37427151       4.51553340       0.00000000     -64.14834293     300.67615299      93.53959360
C        0.79668093      12.07746249       5.41846083       0.00000000      -0.99391022      -3.58475163       3.48611945
C        5.54010283      -0.15447264       2.55089333       0.00000000       0.55012768       1.33460594      -4.10387210
C       10.45316395       7.69932809       6.31472232       0.00000000    2514.92787704    -389.64568564    1460.24572030
Nb       2.55563358       6.98072479       8.19098450       0.00000000 -14777490.06421174 -5092018.68793095 1578820.03254721
O        2.47519037       7.00456442       9.38974906       1.00000000  489934.69380376   72122.74658986 -3372727.92203544
O        2.43413146       7.00252417       8.25580587       1.00000000 12905623.58035799 4636685.36343927 1992191.65713899
