52
Lattice="12.336457 0.0 0.0 -6.168228499999997 10.683685154694365 0.0 0.0 0.0 15.0" Properties=species:S:1:pos:R:3:initial_magmoms:R:1:forces:R:3 energy=-2496795.8980988264 free_energy=-2496795.8980988264 stress="172.6498288453445 233.20842907636523 192.24921897549385 233.20842907636523 199.3627685569736 -615.7570761315919 192.24921897549385 -615.7570761315919 1881.4651738752746" pbc="T T T"
C        1.12853646      -4.67148597      -1.37715457       0.00000000      -4.46584946      -1.20470679      -0.61699989
C       -1.25008367       5.50801474       5.07357609       0.00000000    3676.90452013   -2929.57011065    8117.21563711
C       -3.16988079       2.72774185       3.50634966       0.00000000    3702.20020801    3095.80668965    1736.25059180
C       -4.04440833       3.85050427       4.80561147       0.00000000     195.66191630     121.54240676    -367.88655312
C        1.04493864       8.79863579       4.56636792       0.00000000     -10.32647773      -0.20384665      -5.25352364
C        4.07762563      -1.66351083       4.98338027       0.00000000     -30.17252864     -49.12249306     -20.25325892
C        0.89609559      10.42329433     -11.20717648       0.00000000     -39.58942752      -7.92279693      -8.36660138
C       -2.55931899       1.22134830       4.74389538       0.00000000    1281.68769126      68.83156449    1379.87418110
C       -0.34339602      15.05851875      -7.43835501       0.00000000     432.43128481      80.90751075     -82.37394672
C       -2.51370319       6.14496120      -0.29827279       0.00000000       1.84036599       4.27170022       3.00300975
C        5.58014300       5.73449768      -1.99298882       0.00000000      14.40224995      -3.79816942       2.06990703
C        4.06691781      -3.58271462       2.76281550       0.00000000     137.93576470    -227.80901598     -35.98886943
N       -0.24619321       2.08987760       7.47746172       0.00000000  958812.92119069  330271.16179561 1116917.83526202
N        0.00430999       3.51117075       7.34844948       0.00000000  134965.32968821  -20411.09614192  284345.78135805
C        5.60807651       9.36854401       8.53191479       0.00000000   11555.41368632  -36970.58326100     269.14491183
C        9.50858326      10.27870248       2.71099506       0.00000000       5.71410237     -15.12229556     -12.47296927
C       10.14774581      -4.52572735      -0.45671844       0.00000000      48.21811999      49.48423629      43.14519932
C        3.98906472      -0.71365032      -1.29246509       0.00000000     -14.10483854       9.72529573     -16.53216190
N        1.15321539       2.79717262       7.66465036       0.00000000 -600624.65032852 -688186.65840394 1222354.67079951
C        2.44539096       6.48481299       7.93733084       0.00000000   -1803.75548141   -3806.83450454     484.61617547
C       10.40540919       4.98802848       4.91677713       0.00000000     155.60056649   -3215.12873860    6376.17588696
C        5.03389023       3.50508363       3.35483439       0.00000000      -5.49639655      -3.94170014      29.70323277
C        8.04181252       3.85276575       7.36513229       0.00000000    3182.94811641   -1623.84156691    1148.69211733
C        9.34009248       1.68497171       4.81953696       0.00000000    2135.64056225    -493.88094555    5544.17341020
C        2.78611627       8.57272359      10.84093497       0.00000000     851.29294885    1001.72827179    -471.30060209
C       -0.13568849      -2.60876786       0.20133840       0.00000000       4.78020366      -1.44978953       7.39467977
C        2.93273836       4.92895906       5.61567421       0.00000000   -2382.61701504   -1844.73829737    2550.50714208
C       -4.93199434      12.96982635       6.62241755       0.00000000   76331.92066793  -14747.70276154  -82718.78193112
C       -3.66772602       8.44167187       5.58106835       0.00000000    -279.42277753     610.41188763     312.47193838
C       -3.36931448       8.95331304       5.75651166       0.00000000    -882.90174635    1160.26885755    1162.78649443
C        4.53480707      -2.74636629       3.05412112       0.00000000      52.99213386      13.20703615      35.69498834
C        3.62297949      -3.14559730       3.04748789       0.00000000    -157.08801188      67.26030262     142.16550722
C       -0.99432065       3.41016432       6.05601189       0.00000000   -6423.35329079   31239.09127911  -46741.96026831
C       -0.14853619      15.24302279     -10.14249545       0.00000000     -21.75165595     -23.89737931       7.31730112
C       -6.03361963      12.96689708       2.26714754       0.00000000     -31.70109356      12.53652092     -96.22973829
C        3.29989567       3.79496209       5.15782835       0.00000000   -2554.15202581   -1656.16499373    2921.68448374
C       10.42761592       7.38106811       0.51639578       0.00000000      -2.89774927      -5.94781527      -6.20261458
C        1.52501006       7.46617150       7.88217427       0.00000000    -227.48356008     360.69140658      -4.85997226
C        0.19645282       8.01417965       4.23327165       0.00000000       6.32444275       9.20911416     -11.33139085
C        7.77950338       4.94692111       5.78581346       0.00000000     116.92757044      21.18120990      65.80811957
C       -7.67947338       8.28204802      -1.90876530       0.00000000      -3.48151072      11.51556225      -5.80479601
C        8.38040344      11.22022845       7.55719392       0.00000000  112394.59944894  -61744.18473900  -61360.92037552
C        2.15671421       3.62166611       7.92729186       0.00000000   54948.94496758   33642.69358658   57239.72162297
C       -1.58709535      13.86349092      13.92448272       0.00000000      54.79278782     -35.62806279      11.69195967
C       10.78559139       5.14280581       5.53837150       0.00000000   -2087.02917792    6536.03999206   -9573.74155604
C        8.77409679       2.49871709       3.18385718       0.00000000   -3225.85941216   -2539.23941934   -2480.15657481
C        7.62631992       3.96922074       5.26709002       0.00000000    -303.11816326     -85.42518792     352.35207738
C        2.50484416       4.44894489      -1.57075674       0.00000000    -242.22031600    -155.83239610    -291.83564808
C       10.38151694      10.71073122       1.90242204       0.00000000       1.64715358       1.17433064      -1.08068324
Nb       0.10847873       1.86129589       8.90600580       0.00000000 -2940058.91104750 3925942.17788022 -26610529.70014733
O        0.51739732       1.57902986       9.97537063       1.00000000  792611.75506955  662770.49273488  -32326.89393772
O        0.06057689       1.82960923       8.88935271       1.00000000 1403735.72245335 -4156314.48163300 24133608.59712558
