53
Lattice="12.336457 0.0 0.0 -6.168228499999997 10.683685154694365 0.0 0.0 0.0 15.0" Properties=species:S:1:pos:R:3:forces:R:3 energy=-463.9608705026831 free_energy=-463.9608705026831 stress="-0.0016444920239708763 0.0016541267020110935 -7.309345909231191e-05 0.0016541267020110935 -0.004494875070760299 -9.203945234218244e-06 -7.309345909231191e-05 -9.203945234218244e-06 -3.35678235807975e-05" pbc="T T T"
C       -0.00429137      -0.00157244       3.94492451      -0.00349316      -0.00227221      -0.01677811
C       -1.22824975       2.14096491       3.96463727      -0.00020973       0.00011857      -0.00695607
C       -2.45680002       4.27388282       3.91692487       0.00184510       0.01402429      -0.00311304
C       -3.69637500       6.40745779       3.89647063       0.00105616       0.00303054       0.01609193
C       -4.94228467       8.53906562       3.90439985       0.00665393       0.00795236      -0.00433992
C        2.46001779      -0.01375430       3.89356155      -0.00470009       0.00821103       0.00835758
C        1.24230873       2.13663705       3.96966329       0.00130184      -0.00464242       0.01431219
C        0.02238267       4.28016815       3.79789503       0.01857333       0.00334017      -0.00062282
C       -1.24601640       6.40634134       3.57090204      -0.00715896      -0.00605259       0.00421848
C       -2.46558341       8.53625040       3.71335143      -0.00437719      -0.01180491      -0.00241746
C        4.92234241      -0.00268512       3.76665525      -0.00416817       0.01577778      -0.01131099
C        3.68702347       2.10755151       3.95186042      -0.00518836       0.01159943      -0.00155643
N        2.48027028       4.18690822       4.21783742       0.00228791       0.01747965      -0.01068352
S        1.13157780       6.36059054       2.34853304       0.00195170       0.00737638      -0.01150548
C       -0.03050825       8.58007050       3.35396716       0.00033879       0.00044519       0.01039118
C        7.38725261       0.02130675       3.69369625       0.01118261      -0.00463879      -0.00653477
C        6.16486785       2.12263928       3.92756801       0.00495407      -0.00462764      -0.00199875
C        4.93131592       4.21982218       3.97422410      -0.01690459      -0.01557880      -0.00796354
S        3.83076252       6.36506460       2.66115196       0.00298028       0.00073638      -0.01191235
C        2.43002828       8.61533076       3.35289894       0.00507893      -0.01204959       0.00376956
C        9.86243532       0.01327225       3.82830296      -0.00433933      -0.00361433       0.00261220
C        8.63659798       2.13858654       3.92803100       0.00013139      -0.00048546       0.00670935
C        7.40879432       4.26525832       3.98695263      -0.01044084      -0.00400090       0.01756731
C        6.18230287       6.41220323       3.93976932       0.01547065       0.00899639      -0.00013952
C        4.92681657       8.54750647       3.85076758      -0.00206240       0.01240332      -0.01031686
C        0.00210025       1.42695176       3.96119824      -0.00017030      -0.00741535       0.00163261
C       -1.21994106       3.56444475       3.91827643       0.01188918       0.01036154       0.02470076
C       -2.46443585       5.69554328       3.82589640      -0.00884120       0.00963655      -0.00028866
C       -3.70431855       7.82798632       3.84408548      -0.00239037      -0.00468823      -0.00126225
C       -4.94468518       9.96211764       3.91803865       0.00212104       0.00282467       0.00739663
C        2.46016846       1.40642635       3.95037470       0.00380715       0.00964388      -0.01712933
C        1.26957380       3.55900911       3.98542958       0.00187292      -0.01373067       0.01642862
C       -0.07212951       5.64031721       3.37489435       0.00072891       0.00469608       0.00557514
C       -1.24151476       7.83418389       3.49952587       0.00016582      -0.01065825       0.00619803
C       -2.47455198       9.96324830       3.78472451      -0.00474611      -0.00195287       0.00387459
C        4.92815283       1.41368940       3.88738327      -0.00512351       0.01606188       0.00817052
C        3.67903068       3.51837838       4.02933759      -0.00858950      -0.00579956       0.01848633
C        1.20832421       7.97190046       3.03447408      -0.00479790      -0.01367040      -0.00389820
C       -0.01615311       9.98995265       3.60702303       0.00173627       0.01251118      -0.00966934
C        7.39876994       1.42848887       3.86683893       0.00516380      -0.00577721      -0.00936359
C        6.17512124       3.53851870       3.98884416      -0.01150308      -0.00871507       0.00405954
C        4.97527221       5.65082905       3.80917150      -0.02451229      -0.00096928       0.02046563
C        3.65878759       7.87610133       3.60488436      -0.00143578      -0.00939291      -0.00834537
C        2.45435398      10.01193108       3.62992745       0.00521136      -0.00864326      -0.00010419
C        9.87052286       1.43074913       3.92005550      -0.00365765      -0.00588745       0.00522740
C        8.64276098       3.55971233       3.96771485      -0.00184137       0.00858752      -0.00976205
C        7.40987502       5.69179197       3.97899747       0.00319894       0.00288941      -0.01126227
C        6.14795129       7.82589538       3.89952392       0.00431331       0.01560793      -0.00571190
C        4.92555981       9.97297709       3.88895762      -0.00343333       0.00834646      -0.00136468
Nb       2.94149417       6.15452435       5.06312410       0.01541137      -0.02950214      -0.07297947
O        1.43043566       6.89313841       5.58365979      -0.03017566      -0.06457906       0.06489584
O        4.06887251       5.84513531       6.62585505      -0.02516177       0.03150339      -0.06418011
H        3.75942059       5.56740074       7.50647189       0.06999587       0.01698738       0.05232961
