51
Lattice="12.336457 0.0 0.0 -6.168228499999997 10.683685154694365 0.0 0.0 0.0 15.0" Properties=species:S:1:pos:R:3:initial_magmoms:R:1:forces:R:3 energy=-440.58190489476675 free_energy=-440.58190489476675 stress="-0.002387278183737245 -0.0031553923845178172 -1.0257730171995704e-05 -0.0031553923845178172 -0.004864859013640492 1.1843835632248247e-05 -1.0257730171995704e-05 1.1843835632248247e-05 -1.3722410564287124e-06" pbc="T T T"
C       -0.08241128       0.00343448       3.68060178       0.00000000       0.00043292       0.00306406      -0.01328065
C       -1.34248086       2.12590236       3.96189978       0.00000000      -0.00600661       0.00515226       0.00613667
C       -2.58426421       4.27048335       3.94572555       0.00000000      -0.00492804      -0.00939611       0.00141355
C       -3.76924032       6.41416486       3.72852381       0.00000000       0.00760115       0.00042890      -0.00665836
C       -4.99578476       8.55428117       3.58299462       0.00000000      -0.00712673       0.00986355       0.00446546
C        2.39551533      -0.02839108       3.65987457       0.00000000       0.00497841      -0.00078008       0.00184165
C        1.16085008       2.04180731       4.10606119       0.00000000      -0.00436431      -0.01515270       0.00053883
C       -0.23435490       4.26162040       4.59840503       0.00000000       0.00295215       0.00563089      -0.00800892
C       -1.35123180       6.42161711       4.16590900       0.00000000       0.00331905       0.00027471       0.00109020
C       -2.52468856       8.53668119       3.76206881       0.00000000      -0.00380388       0.00376973       0.00038651
C        4.85904320      -0.00407755       3.57877717       0.00000000       0.00241366      -0.00317298       0.00463624
C        3.57634727       2.07942528       3.38379572       0.00000000       0.00240525       0.00353650       0.01054103
P        1.31975694       6.43154240       5.01491288       0.00000000      -0.00482620      -0.00163741       0.00737461
C       -0.05900734       8.55259964       3.89513037       0.00000000       0.00045968       0.00202352       0.01180266
C        7.31952278       0.00697053       3.56083152       0.00000000       0.00056296       0.01191955      -0.00067774
C        6.06864299       2.15477926       3.40503825       0.00000000      -0.00107068      -0.00068227      -0.00438606
C        4.87314749       4.36594074       3.17156171       0.00000000       0.00541823      -0.00745684       0.01488301
O        3.69282671       6.48969419       3.31319048       0.00000000       0.00521150      -0.00073418       0.00338846
C        2.41545871       8.55049739       3.63909429       0.00000000      -0.00694784       0.00183897       0.00094224
C        9.78641382       0.01391627       3.57411369       0.00000000       0.00520014      -0.00355486       0.00173695
C        8.53955406       2.14672605       3.63798947       0.00000000       0.00103987      -0.00166788      -0.00775550
C        7.31032666       4.28584366       3.53867806       0.00000000       0.00287074       0.00232145       0.00413115
C        6.14223627       6.46301042       3.41083857       0.00000000      -0.00772007      -0.00031484       0.00701797
C        4.87230619       8.57287803       3.43670697       0.00000000      -0.00170312      -0.00012486       0.00564592
C       -0.09712939       1.40948566       3.92744016       0.00000000      -0.00892223      -0.00190355       0.00093385
C       -1.38063286       3.53585336       4.17591798       0.00000000      -0.00449864       0.00350888       0.00866493
C       -2.56463977       5.69869742       3.95158072       0.00000000       0.00709812      -0.01000793      -0.01041992
C       -3.76041884       7.83511736       3.69041989       0.00000000      -0.00539533       0.00694372       0.00461903
C       -5.01138999       9.97072226       3.64359866       0.00000000       0.00011819       0.00933270       0.00186079
C        2.37461831       1.38603554       3.72236803       0.00000000       0.00396365      -0.00608028       0.00479436
P        1.25611678       3.46158041       5.14081437       0.00000000      -0.00119213       0.00308112      -0.00283282
C       -0.20815489       5.67588388       4.57057862       0.00000000       0.00727300       0.00395388      -0.01380661
C       -1.30187401       7.83404077       3.96197289       0.00000000      -0.00177090       0.00212877      -0.00075910
C       -2.53263449       9.95646287       3.64680582       0.00000000       0.00131252      -0.00010296      -0.00232938
C        4.83844334       1.42608230       3.42629565       0.00000000       0.00007393      -0.00391584       0.00683932
S        3.38305428       3.62739319       2.55080180       0.00000000      -0.00784214      -0.00617044      -0.00999285
C        1.19849808       7.89894985       4.04439913       0.00000000      -0.00390068      -0.00833658      -0.00328761
C       -0.07435794       9.97155138       3.65054603       0.00000000       0.00517882       0.00267151      -0.00292855
C        7.30577920       1.43850673       3.51461269       0.00000000      -0.00138607       0.00914420      -0.00275872
C        6.08449487       3.57740822       3.35975660       0.00000000       0.00907346      -0.00112145      -0.00780501
C        4.93824199       5.78829736       3.28544064       0.00000000      -0.00273627      -0.00111528      -0.00931277
C        3.65825332       7.90277630       3.46796079       0.00000000      -0.00391276       0.00422292      -0.00059070
C        2.39374325       9.98026916       3.55108755       0.00000000      -0.00198843       0.00558908      -0.00747119
C        9.77709991       1.43501285       3.71376679       0.00000000       0.00139102      -0.00220946      -0.00121878
C        8.53857412       3.56785064       3.70176064       0.00000000      -0.00551785      -0.00708701       0.00751647
C        7.34306687       5.71101943       3.55618233       0.00000000       0.00135083       0.00524399      -0.00525710
C        6.12090371       7.87342593       3.46121661       0.00000000      -0.00369729       0.00151703      -0.00924617
C        4.85538139       9.99467795       3.55130548       0.00000000       0.00550413      -0.00326269       0.00181652
Nb       3.31960399       4.83937890       4.70985119       0.00000000       0.01033084      -0.00082060       0.01245714
O        5.36294776       4.53558456       6.98579376       1.00000000       0.00236408      -0.00413433       0.01083972
O        4.41809886       4.67065605       6.08973994       1.00000000       0.00135988      -0.00621847      -0.01753074
