52
Lattice="12.336457 0.0 0.0 -6.168228499999997 10.683685154694365 0.0 0.0 0.0 15.0" Properties=species:S:1:pos:R:3:initial_magmoms:R:1:forces:R:3 energy=-2066343.1966967105 free_energy=-2066343.1966967105 stress="7182.505016589139 -2686.027813852271 4804.721480361747 -2686.027813852271 821.4268007469195 -1844.8120669236064 4804.721480361747 -1844.8120669236064 2586.5613054976207" pbc="T T T"
C        4.21087442       0.61836771       1.27806999       0.00000000    6695.24825329   -9511.67100381   -6917.55290629
C        1.38285554       0.11817282       2.91753433       0.00000000   -3298.26059486   -1916.94625332    1240.28107958
C        0.16749842       7.76807640       3.56182385       0.00000000     101.58109667     -84.72953301    -247.90059006
C       -2.91538653       4.65914389      -0.07750437       0.00000000      92.46138756      32.83564676     -74.48722575
C       -6.00073296       6.53234321       2.20205449       0.00000000   -5156.72094933   -4017.14188636   -1697.59095355
C        1.86134268       0.98240026       0.66076555       0.00000000   -1424.95246562    -734.98269374   -1684.29630568
C       -1.33878445       5.13747237       4.56300353       0.00000000     324.53012020    -114.35147819     -64.40720281
C       -0.13271293       4.65579850      -0.29083390       0.00000000     151.10550804     -81.87514241     326.11553981
C      -12.23410505       9.99959499      -0.47758315       0.00000000     203.91336318    -676.36572828    -618.99352453
C       -2.43103094       8.70122025       4.14479081       0.00000000   -1172.81148614   -3023.79208873     491.53482059
C        6.42235827      -3.09666055       4.21777567       0.00000000     149.50443367    -208.59024595      72.65896152
C        0.57021403       3.02097588       1.94869417       0.00000000   -4002.51018808    -275.37955116    -723.02810713
O        3.23153505       3.79285221       3.59703064       0.00000000  -87080.84360590  -26892.65237882 1152885.36289688
S       -5.30373711       8.63433707      19.37828406       0.00000000    -376.15895898     139.98624142    -744.75616901
C       -2.26545046      11.47787642       9.98172120       0.00000000     -15.57383005      -4.36029729      33.20212810
C        4.84969023      -0.91041127       8.81091836       0.00000000     -24.50870087     -54.58902714      75.05631708
C        5.14992432       1.23761416       5.60270884       0.00000000   -3990.35474166    6469.00725342   -9280.28788944
C        3.23444766       3.57598726      -6.89859575       0.00000000    -951.54330545     -69.44192105    2595.06232469
S        6.13894831       3.95356666      -0.96643731       0.00000000    5775.05064144    3013.24341617  -14805.20614635
C        3.19534734      10.31561674       3.96857654       0.00000000   10310.89168317    6412.22850691   -9185.49918683
C        9.01292980      -0.57200750       4.28826937       0.00000000  -10282.48881416   -6369.30881919    9241.97167630
C       14.38451807      -2.75405737       4.59622348       0.00000000       1.24861060      -5.56681055     -88.69856547
C        5.01889467       3.00233017       7.75225419       0.00000000     961.62800175     391.26332587    8314.96461420
C        7.24137094      22.09260967      -7.22298336       0.00000000    -974.44011345    1000.08839958   -2045.98039510
C        6.47591609       5.70882802       6.70403961       0.00000000    2616.29085017    3611.38779260    5607.48068657
C       -1.69061679       3.61077941       3.13671805       0.00000000     613.75783792     -21.94583754     -50.09791484
C        0.24484303      -0.69780105       4.68918352       0.00000000     489.34797073     453.00391071    -444.53765122
C       -3.35629858       4.79942106       9.20678987       0.00000000       7.52359513      -1.84597383      -5.01441947
C       -3.02985204       8.84556127       4.96825958       0.00000000    -183.11767362    -470.91407844      90.05222814
C      -11.93375861      12.02646159       6.83834344       0.00000000   -2507.26340633   -2010.64106458   -4466.99883308
C        2.93075599       0.94399407       1.06884182       0.00000000   -8517.34369735   -3187.67657080   -5373.68117439
C        4.58286893       1.93772169       6.38264315       0.00000000    5144.70133940    3120.95113181   -6850.60371766
C        5.83481444       9.36239378       4.53704862       0.00000000      83.19050800      86.13674780    -200.77677062
C       -1.23503048       6.07361489       9.13784532       0.00000000       0.48227795      -1.26677614       1.93098660
C       -2.83284229       7.08186785       3.96520618       0.00000000       0.04287067      83.46842686     -15.90894912
C        6.50567823       0.45739433       5.56453031       0.00000000    3153.75321523    7278.82079474    3094.06704847
C        3.67922405       3.11889541       3.61017632       0.00000000 -401163.75146453  561128.61274998 -810066.59415322
C       -1.54582289      14.48604647      -0.29890423       0.00000000    1308.70250654      53.31926721    -818.43711696
C       -1.00797668      10.29678432       3.81998741       0.00000000    1827.98170161     374.11902291     -18.63016435
C        9.53127513       0.86518746       4.05286735       0.00000000    2008.91929125   -1113.91981140     422.98444450
C        8.68523983      -1.79199331       4.04727267       0.00000000      -8.27218672      56.27556004      73.60794834
C        4.77459842       3.26964417       3.21116666       0.00000000 -38858540.99672577 13558390.39031723 -22769862.94505292
C        2.01657942       5.39820093       2.11077113       0.00000000   -2956.57640457    6722.32782640     427.03356803
C       -4.37821986      11.42028707      -5.86323394       0.00000000     -21.99688078      -3.63223681      15.75033278
C       14.73972252       1.54649160       3.25593280       0.00000000   59907.41243692   64613.76472579   16458.80593937
C        7.45812930       1.47394739       6.52768133       0.00000000      79.63489973     -93.63471604   -1831.74283292
C        8.32359783      15.48005735       9.32059495       0.00000000     -21.90247974      32.14286851      33.79967999
C        8.35649444       5.30946622       6.62662416       0.00000000    2199.39416157     899.08138725    1778.35859101
C        4.83968039       5.89580634       3.54493546       0.00000000   18765.38965682 -109539.27336848   -4732.05823592
Nb       4.39367445       3.39872082       2.97333737       0.00000000 38905026.23794141 -14936523.67874129 22454773.42262353
O        8.93903296       2.97299119       4.87281274       1.00000000   -4556.91612566     -67.25070225   -1481.89364009
O        5.15066856       4.14464433       3.04103132       1.00000000  369229.37863904  882714.96941664   -3654.89864129
