52
Lattice="12.336457 0.0 0.0 -6.168228499999997 10.683685154694365 0.0 0.0 0.0 15.0" Properties=species:S:1:pos:R:3:forces:R:3 energy=-445.3849239451832 free_energy=-445.3849239451832 stress="-0.003977769569097162 0.0033182749267408533 -4.592673867758491e-06 0.0033182749267408533 -0.008122040532357502 -2.1662340583693545e-05 -4.592673867758491e-06 -2.1662340583693545e-05 7.402847626693986e-06" pbc="T T T"
C        0.09482854       0.01351632       3.55854943      -0.00093900      -0.00572585      -0.00162815
C       -1.11476424       2.18569553       3.47693759      -0.00040887       0.00153163      -0.00343868
C       -2.33491233       4.31228225       3.67819149      -0.00313193      -0.00164990      -0.00065552
C       -3.59986038       6.44173438       3.83190227       0.00153640      -0.00268099       0.00290657
C       -4.85893548       8.55724599       3.80035279      -0.00188220      -0.00078583      -0.00285302
C        2.55888663      -0.02899171       3.54067436      -0.00172647      -0.00577233       0.01389014
C        1.36492839       2.07820962       3.24252081       0.00113438      -0.00070892       0.00528063
C        0.14071449       4.39656812       3.47654956      -0.00003449       0.00341859       0.01267023
C       -1.16741306       6.48853356       3.67746357       0.00024211      -0.00003129      -0.00025852
C       -2.37731614       8.57538438       3.67699975      -0.00783947      -0.00013938      -0.00589860
C        5.03955049       0.02560628       3.65441438       0.00300201      -0.00194629      -0.00083137
C        3.78510065       2.05871327       3.81600248      -0.00041437      -0.00283383       0.00102568
O        1.28189121       6.55508981       3.61749195      -0.00353522      -0.00067591      -0.01072997
C        0.09338386       8.60315795       3.66398273      -0.00385167      -0.00107159      -0.01187951
C        7.50935575       0.04835223       3.65649202      -0.00099039      -0.00211977       0.00832493
C        6.28603891       2.16803181       3.87352532       0.00244639      -0.00160084      -0.00156645
C        5.15591753       4.31759521       4.45017419       0.00657776      -0.00352152      -0.00047539
S        3.74319276       6.51840000       5.22759338       0.00407077       0.00877068      -0.00553673
C        2.55135673       8.59775311       3.87355941       0.00381579       0.00110281       0.00121241
C        9.97592056       0.04385536       3.65002695      -0.00215688       0.00144531      -0.00510154
C        8.75571060       2.18120834       3.68069375      -0.00439740      -0.00103871       0.00525199
C        7.53816151       4.30361511       3.95172347       0.00565270       0.00093717       0.00136688
C        6.30706745       6.45792752       4.23159073      -0.00127396       0.00510902      -0.00626144
C        5.02040385       8.58950793       4.00638628       0.00450912       0.00697274       0.00073930
C        0.11071478       1.44054812       3.38808607      -0.00061080      -0.00352191      -0.00009240
C       -1.11249246       3.60647725       3.52823500      -0.00473483       0.00343662      -0.00504932
C       -2.37152700       5.73631695       3.72970488       0.00308405      -0.00403935       0.00910683
C       -3.61466705       7.85866022       3.77136171      -0.00553092      -0.00163107       0.00185373
C       -4.85323015       9.96686809       3.60726354      -0.00185949      -0.00238341       0.01250846
C        2.57074237       1.37477753       3.48607903      -0.00011365      -0.00803201       0.00530893
P        1.63527695       3.75741149       2.66637079       0.00726665       0.00573782      -0.01082416
C        0.04363672       5.82313788       3.62192142       0.00263444       0.00417353      -0.00747484
C       -1.15204633       7.89517271       3.67113897      -0.00861188       0.00091415       0.00290947
C       -2.36656620       9.98712255       3.61864411      -0.00030633      -0.00088529       0.01159616
C        5.05179516       1.44020546       3.78848624       0.00249833      -0.00070613      -0.00941036
P        3.58009977       3.57154004       4.60988059      -0.01460234       0.00104096      -0.00002339
C        1.30488186       7.95180756       3.76648936       0.00059534       0.00373123      -0.00763755
C        0.10672634      10.02487536       3.64862201       0.00128223      -0.00280839       0.00276502
C        7.51439854       1.47293065       3.72139378      -0.00258156      -0.00218049      -0.00000823
C        6.31721573       3.57949633       4.08196015       0.00964678      -0.00097638       0.00064929
C        5.17033785       5.71376416       4.60797591       0.00405813      -0.00101096       0.00024926
C        3.77537268       7.96246116       4.26296852       0.00764231       0.00656857      -0.00338426
C        2.56986700      10.02096462       3.69471929      -0.00078393       0.00023641       0.00024443
C        9.98697069       1.47292615       3.58231097      -0.00321998       0.00114953      -0.00545075
C        8.76305012       3.60022057       3.75767314       0.00011229      -0.00309144       0.01122150
C        7.52258717       5.72885736       4.00268877       0.00100863       0.00176415       0.00020628
C        6.25875645       7.86756200       4.04460965       0.00087806       0.00402952      -0.00434408
C        5.03200333      10.00254419       3.71324928      -0.00124817       0.00004517      -0.00428558
Nb       1.63454195       4.92695812       4.94486912       0.00526236      -0.00540332       0.00452243
O        0.76219747       4.29814268       6.37788704      -0.00815708      -0.00334159       0.00224895
O        0.03737145       3.70575766       7.43954971       0.01369516       0.00650527       0.00370669
H        0.40014853       4.16870470       8.22648483      -0.00770894       0.00369380      -0.00666642
