51
Lattice="12.336457 0.0 0.0 -6.168228499999997 10.683685154694365 0.0 0.0 0.0 15.0" Properties=species:S:1:pos:R:3:initial_magmoms:R:1:forces:R:3 energy=-444.669709874824 free_energy=-444.669709874824 stress="-0.0020457059947357084 0.0027124490485494787 9.059070469991189e-07 0.0027124490485494787 -0.006350432243263756 -3.0912457891938204e-05 9.059070469991189e-07 -3.0912457891938204e-05 -1.1427205991759478e-05" pbc="T T T"
C        0.03811471      -0.03500908       3.51496402       0.00000000      -0.00177192      -0.00753571       0.00091417
C       -1.17274690       2.13247138       3.39296256       0.00000000       0.00056082       0.00918474       0.00044095
C       -2.40135445       4.25688360       3.57198325       0.00000000       0.00239711      -0.00426506       0.00608044
C       -3.65949294       6.38449292       3.74099641       0.00000000      -0.00085015      -0.00317165       0.00480721
C       -4.91907945       8.50446459       3.73872765       0.00000000       0.00564296       0.00022224       0.00730740
C        2.50165987      -0.07628060       3.61094253       0.00000000       0.00034783       0.00417813      -0.00906105
C        1.32068889       2.03484947       3.28156824       0.00000000      -0.00618475      -0.00957476       0.00400445
C        0.06620541       4.33978639       3.36962334       0.00000000       0.01683519      -0.00009646       0.00326298
C       -1.21941899       6.42576020       3.59052193       0.00000000      -0.01612348       0.00250207       0.00385225
C       -2.43577349       8.51674333       3.65257505       0.00000000      -0.00485192       0.00052225      -0.00927544
C        4.97990242      -0.03251598       3.70831112       0.00000000      -0.00924341       0.00137385      -0.01658521
C        3.72262073       2.00903335       3.97228098       0.00000000      -0.00650454       0.01192283      -0.01263534
O        1.21586653       6.47790489       3.45586477       0.00000000      -0.00056553      -0.00113558      -0.00761311
C        0.03471103       8.53765750       3.57853113       0.00000000       0.01270134      -0.00264331      -0.00841153
C        7.44657990      -0.01170678       3.61123498       0.00000000      -0.00261197       0.00090578      -0.00567321
C        6.22685369       2.10631049       3.88923761       0.00000000       0.00102223       0.00484355      -0.00480388
C        5.09090448       4.26486397       4.40149425       0.00000000      -0.00710261      -0.01008309       0.00158965
S        3.68044414       6.46595780       5.06843369       0.00000000       0.01042815      -0.00065946      -0.00599280
C        2.48516194       8.52701999       3.71566005       0.00000000       0.01213187      -0.00138401      -0.00187652
C        9.91205661      -0.01367573       3.55153498       0.00000000       0.00490027      -0.00441835      -0.00906610
C        8.69209682       2.12235701       3.60692310       0.00000000       0.00766792       0.00251589       0.01270924
C        7.47447157       4.24577546       3.87399592       0.00000000      -0.00731693       0.01403417      -0.00903950
C        6.24319952       6.40159548       4.10775064       0.00000000      -0.00719928       0.00120170      -0.00886555
C        4.95599985       8.53314780       3.88246168       0.00000000       0.00142758      -0.00617449       0.01667276
C        0.05829010       1.39382074       3.35897273       0.00000000      -0.00647919      -0.00546956      -0.00362163
C       -1.16770242       3.56006086       3.41913347       0.00000000       0.01054829       0.00895785       0.00459613
C       -2.42884047       5.67983265       3.63402051       0.00000000      -0.00771297      -0.00840963       0.00071006
C       -3.67444744       7.80266456       3.71253341       0.00000000       0.00084567      -0.00670420       0.00648342
C       -4.91093383       9.91921066       3.59919083       0.00000000       0.00411871       0.00236857       0.00285456
C        2.51217855       1.32830893       3.60581391       0.00000000      -0.00289750       0.00136847      -0.00320233
P        1.62726219       3.70463300       2.76141955       0.00000000       0.00479501      -0.01083359      -0.00805069
C        0.00151492       5.75806827       3.51485473       0.00000000      -0.01568288      -0.00145669       0.01174968
C       -1.21093466       7.83062244       3.60557579       0.00000000       0.00020235       0.00755955       0.00752848
C       -2.42537057       9.93076589       3.66313302       0.00000000      -0.00716035      -0.00103307       0.00921373
C        4.98742912       1.38202530       3.87407123       0.00000000      -0.00645634       0.00528730      -0.00029618
P        3.52638218       3.55122052       4.75553773       0.00000000       0.00311990       0.00025646       0.01183069
C        1.24105989       7.86214890       3.58855960       0.00000000       0.01680615      -0.00624259      -0.00770891
C        0.04632156       9.96137955       3.63185680       0.00000000      -0.00544001      -0.00109377      -0.00957736
C        7.45170992       1.41280896       3.69146131       0.00000000       0.00491171       0.00329300      -0.00242796
C        6.25491792       3.52396835       4.04788815       0.00000000       0.00039976       0.00289878       0.00875158
C        5.10637188       5.66670501       4.47997512       0.00000000      -0.00426420      -0.01211631      -0.01366049
C        3.70823799       7.90069659       4.10869500       0.00000000       0.00195376      -0.00800021       0.00100400
C        2.50548078       9.95512308       3.58866286       0.00000000       0.00097728       0.00342469       0.01228647
C        9.92544530       1.41781611       3.49260224       0.00000000       0.00798930       0.00104627       0.00328800
C        8.69952454       3.54259248       3.67075609       0.00000000      -0.00418487       0.00422673       0.01213329
C        7.46201620       5.67029682       3.89957192       0.00000000      -0.00496796       0.01237272      -0.00190286
C        6.19372325       7.81241445       3.93620883       0.00000000       0.00061111      -0.00018057      -0.00758637
C        4.97067973       9.95043898       3.61715269       0.00000000       0.00026819      -0.01434823      -0.00338071
Nb       1.42965772       5.00691593       5.32487210       0.00000000       0.00088487      -0.00666895       0.01352286
O        0.84430135       3.54083200       6.16686237       1.00000000       0.00288251       0.01471955       0.00439832
O        1.01318948       6.46773121       6.25914799       1.00000000      -0.00180508       0.01251216      -0.00167806
