53
Lattice="12.336457 0.0 0.0 -6.168228499999997 10.683685154694365 0.0 0.0 0.0 15.0" Properties=species:S:1:pos:R:3:forces:R:3 energy=-461.20069427171865 free_energy=-461.20069427171865 stress="-0.0008763487972515152 -0.00042662030315215497 2.425563593540157e-05 -0.00042662030315215497 -0.007340516541509079 -6.8489929762806634e-06 2.425563593540157e-05 -6.8489929762806634e-06 7.640995728343524e-06" pbc="T T T"
C       -0.00098205      -0.04070419       3.83760401       0.00285436      -0.00356661       0.01483691
C       -1.23229721       2.09667876       3.99994860      -0.00573378      -0.00615832       0.00234004
C       -2.46709860       4.23619821       4.06642600       0.00318722      -0.00251601       0.00019409
C       -3.70569313       6.37174134       3.98699544       0.00386773       0.00015282      -0.00871977
C       -4.93113755       8.50354545       3.84367778       0.00331229      -0.00622455      -0.00694656
C        2.46959868      -0.05618555       3.86143924       0.00004787       0.00695568       0.00327987
C        1.24126818       2.07085583       3.99268790      -0.00728331       0.00064481       0.00231466
C        0.02479388       4.20398955       4.06474003       0.00922636      -0.00862973      -0.00048018
C       -1.22860954       6.36516336       3.83325255       0.00541992       0.00700291       0.00369133
C       -2.45100316       8.49169372       3.79268793       0.00718769      -0.00350265      -0.01167027
C        4.93537829      -0.04207791       3.75982564      -0.00780405      -0.00900577       0.00100434
C        3.69094534       2.05393344       3.90602054       0.00012049       0.00683220       0.00956954
O        2.47374620       4.08256022       4.06668124       0.01138291       0.00896155       0.00152745
S        1.33673193       6.24537077       3.00714400       0.00119915      -0.00498099      -0.01153998
C       -0.01550364       8.53613607       3.47049178       0.01082186       0.00150639       0.01263164
C        7.39557872       0.00005124       3.61625912       0.00218739      -0.00709261      -0.00008550
C        6.15705409       2.09849076       3.90503696       0.00101639      -0.00068821      -0.00574386
C        4.89380480       4.19119059       3.96944406      -0.01162888       0.00168916       0.00744351
S        3.96505376       6.32246173       2.34075183      -0.00102998      -0.00031326       0.00753011
C        2.46707406       8.62242395       3.13549828      -0.00000712       0.00318502      -0.00938659
C        9.87299158       0.00024043       3.66049021      -0.00186186       0.01326886       0.00490735
C        8.63052622       2.11160031       3.92510696      -0.00317013       0.00269502      -0.00908194
C        7.38762767       4.23783422       4.03926780      -0.00542713      -0.00279472      -0.00461965
C        6.16057760       6.39657558       3.93796736      -0.00337810      -0.01285942      -0.01075492
C        4.95141038       8.53211481       3.55055040       0.00376290       0.01195342      -0.00580318
C       -0.00599129       1.37652155       3.95255068      -0.00750360      -0.00562960      -0.00643147
C       -1.22880519       3.51383141       4.08666834       0.00447987      -0.00876121       0.00326690
C       -2.47165272       5.65698712       3.99810645       0.00461596       0.00300514       0.01138104
C       -3.69761926       7.78869188       3.88894640       0.00784756      -0.00203653      -0.01024311
C       -4.93727022       9.92126465       3.84443656       0.00513201      -0.00319241       0.00198635
C        2.46607630       1.34971693       3.91617169      -0.00283086       0.00943886       0.00660811
C        1.23475851       3.45342314       4.05325259       0.01404162      -0.00030183       0.00357987
C       -0.04219970       5.60818343       3.81716675      -0.00423297      -0.00680980      -0.01136157
C       -1.21772821       7.78679192       3.67663672       0.01339216       0.00777829       0.00941340
C       -2.45951350       9.91743546       3.79671209      -0.00674730      -0.00574750      -0.00238643
C        4.93752632       1.37441560       3.85590746      -0.00201344      -0.00527582       0.00190028
C        3.70362458       3.43894016       3.94464195      -0.00464273       0.00566524      -0.00430082
C        1.23227476       7.94070660       3.17735971       0.00430138      -0.00570583       0.00309064
C       -0.00213929       9.95851239       3.60533968      -0.00113928      -0.00332434       0.00621108
C        7.39738470       1.40377817       3.82671357       0.00319485      -0.00598210      -0.00867644
C        6.15066741       3.51387299       3.99249216      -0.01192533       0.00219923       0.01094759
C        4.90950614       5.65724363       3.83975979      -0.01392198      -0.00375513       0.00245833
C        3.73590373       7.89418246       3.13048091      -0.00356574       0.00698051       0.00413910
C        2.46969671      10.01134505       3.45107446       0.00534410       0.00223316       0.00051562
C        9.86619523       1.40219629       3.87474502      -0.00624954       0.00762927       0.00421343
C        8.62696249       3.52932445       4.03738535      -0.00241823       0.00111887      -0.00726515
C        7.38941259       5.66625189       4.03217259       0.00038374      -0.00445882      -0.00946207
C        6.15853456       7.79663059       3.76645501      -0.00313380      -0.00712442      -0.00017715
C        4.93500540       9.95431531       3.68348627      -0.00197709       0.01117794       0.01530682
Nb       3.11476230       6.37368660       4.95538441       0.00845955       0.00399340      -0.01740310
O        3.26099318       7.83164252       5.90004048       0.00080913       0.00901549      -0.00154974
O        3.12447288       5.00325375       6.37882477      -0.00954407       0.00644521       0.01086869
H        3.37867329       5.28425945       7.27907927      -0.00842614      -0.00509026      -0.00306861
