51
Lattice="12.336457 0.0 0.0 -6.168228499999997 10.683685154694365 0.0 0.0 0.0 15.0" Properties=species:S:1:pos:R:3:initial_magmoms:R:1:forces:R:3 energy=-443.81335529859956 free_energy=-443.81335529859956 stress="-0.0038259114550968035 0.0015240624798539863 -0.00043324973273868816 0.0015240624798539863 -0.008554382663469879 0.00030962292437027646 -0.00043324973273868816 0.00030962292437027646 0.003246933541334817" pbc="T T T"
C       -0.03708089       0.01956600       3.50023432       0.00000000      -0.00012563      -0.01520957       0.00912401
C       -1.24304920       2.20245536       3.61243687       0.00000000      -0.01351220       0.00196135      -0.00449834
C       -2.49468411       4.33151509       3.77027992       0.00000000      -0.00904540      -0.01111441      -0.03562697
C       -3.73899168       6.45207523       3.81545610       0.00000000      -0.00187747      -0.00264270      -0.01666892
C       -4.98375203       8.56841020       3.70231100       0.00000000      -0.00326819       0.00608317      -0.01646852
C        2.43151071      -0.05474405       3.25163090       0.00000000      -0.00417354      -0.00440306       0.00571103
C        1.23447231       2.05702278       3.40100984       0.00000000      -0.01596876      -0.00583351       0.01462964
C       -0.08093936       4.37183305       4.10839007       0.00000000      -0.01078808      -0.00490640       0.00107083
C       -1.29570173       6.48370246       4.09167904       0.00000000       0.00596778      -0.00800861      -0.02132222
C       -2.49938645       8.57305045       3.67427322       0.00000000       0.00689120       0.00852907      -0.01563093
C        4.90770802       0.01440225       3.33645783       0.00000000       0.00052928      -0.00699249       0.00596111
C        3.66424859       2.06548772       2.96140030       0.00000000       0.00734216      -0.03063226       0.01569340
P        1.16858349       6.59579706       5.35225514       0.00000000      -0.00163555       0.00278860      -0.04309246
C       -0.05267309       8.65450408       3.96978207       0.00000000       0.01673269      -0.01042872       0.01802897
C        7.36396906       0.08141403       3.54328381       0.00000000      -0.00231331       0.00300641      -0.00176656
C        6.14192120       2.18647513       3.31505149       0.00000000       0.00943742       0.01283254      -0.01848612
C        4.91895984       4.30482559       3.75236077       0.00000000       0.02796671      -0.00630681       0.00059317
P        3.53165181       6.46164520       4.88232185       0.00000000      -0.12278442      -0.16721537       0.07967473
C        2.40868737       8.74214109       4.14197083       0.00000000      -0.01741041      -0.01296926       0.02107559
C        9.84594609       0.08341871       3.62638390       0.00000000       0.00179839      -0.01456299      -0.00077015
C        8.61448189       2.20460305       3.51185242       0.00000000      -0.00802990       0.00353560       0.00068385
C        7.37286513       4.31531727       3.66601080       0.00000000      -0.00275673      -0.00402192      -0.01844959
C        6.15937066       6.46240721       4.01008960       0.00000000       0.01088277      -0.00040164      -0.00309887
C        4.90555481       8.63711001       3.97451535       0.00000000      -0.00531505      -0.00708147      -0.00165203
C       -0.02826755       1.44753073       3.48802949       0.00000000      -0.00847295      -0.01397155       0.01708566
C       -1.25301682       3.62397095       3.80280244       0.00000000       0.00425860       0.00184232      -0.02035118
C       -2.50595357       5.75129449       3.87650490       0.00000000      -0.00326129      -0.00147379      -0.01688362
C       -3.74181103       7.86836352       3.73572867       0.00000000       0.00028747      -0.00857318      -0.02436377
C       -4.97989818       9.96728980       3.47016768       0.00000000      -0.00061065      -0.00332031      -0.00481554
C        2.43541868       1.35036755       3.10427584       0.00000000      -0.00217138      -0.00233325       0.02367392
P        1.44611589       3.52347361       4.29906262       0.00000000       0.12545060       0.12535680       0.07968829
C       -0.12392468       5.75060130       4.40272388       0.00000000      -0.01011824       0.01032269      -0.03421671
C       -1.27955418       7.90435123       3.94333861       0.00000000       0.00042846      -0.00172845      -0.00151632
C       -2.49079715       9.96250943       3.38588202       0.00000000      -0.00435168       0.02555072       0.02522415
C        4.91266214       1.43689777       3.14699543       0.00000000       0.01211219       0.00923831       0.02071878
P        3.43764945       3.81839262       2.76793138       0.00000000      -0.23554756       0.28590190       0.30398567
C        1.16970880       8.07790715       4.38469355       0.00000000       0.00651265      -0.01096974       0.01393463
C       -0.03738599      10.03747447       3.59148795       0.00000000      -0.00035342       0.01137181      -0.00464945
C        7.37751789       1.49148167       3.41426965       0.00000000      -0.00650888       0.00560262      -0.00081833
C        6.15803498       3.58397003       3.53186582       0.00000000      -0.00148542      -0.01135671       0.00380447
C        4.97856409       5.69188916       4.20189477       0.00000000       0.01806592       0.01415895      -0.00845366
C        3.65362638       8.06680976       4.31913567       0.00000000       0.00295380       0.00930057      -0.00862439
C        2.42960482      10.09255530       3.73453337       0.00000000       0.00416404       0.00424601      -0.00133043
C        9.85703878       1.50191697       3.54939115       0.00000000      -0.00331641      -0.00113163       0.01177814
C        8.61302125       3.61972376       3.62258970       0.00000000      -0.00667358      -0.00450364      -0.01587724
C        7.37058932       5.73880824       3.82642252       0.00000000      -0.00277711      -0.00111947      -0.01365132
C        6.12524000       7.88342443       3.93087987       0.00000000      -0.00750656       0.00859410      -0.00426756
C        4.90255902      10.03276765       3.68787019       0.00000000      -0.00730831      -0.00164338      -0.01439591
Nb       3.53054914       4.24489798       5.61950787       0.00000000      -0.18250899      -0.23203802       3.34442911
O        3.84929912       4.47720116       7.45797795       1.00000000       0.06436020       0.05032914      -2.92113498
O        1.69951652       3.27996109       5.86371038       1.00000000       0.37583475       0.00634163      -0.72368702
