51
Lattice="12.336457 0.0 0.0 -6.168228499999997 10.683685154694365 0.0 0.0 0.0 15.0" Properties=species:S:1:pos:R:3:initial_magmoms:R:1:forces:R:3 energy=-657597.8721718591 free_energy=-657597.8721718591 stress="377.02017613121745 141.49220170781163 -153.1513302426017 141.49220170781163 1000.4511822107855 -176.80897636554008 -153.1513302426017 -176.80897636554008 1201.3226236989642" pbc="T T T"
C        2.94009474       1.03532119       0.15708005       0.00000000       1.60948775      23.74829375      35.15832191
C       -0.54300844       3.88858147       2.77337315       0.00000000    -317.51298575    -122.21602904    -188.03153338
C       -5.09764800      -1.63274965       0.94354188       0.00000000     -76.08305082      54.01237388     -48.12286609
C       -7.78809054       8.59047781      -0.52357369       0.00000000      -4.54933380     383.23060781    -590.15496095
C       -7.37446701       6.09407126       4.10849529       0.00000000 -421369.61968089  136959.15346365  119560.14121153
C       -0.02815194      -3.15739121       2.50693019       0.00000000   -4899.91202984   -7605.02102613    9165.66359519
C        0.04582892       5.85225146      -2.76731221       0.00000000      -1.65763120      -4.52959534       2.79542513
C        2.14235931       1.03973346       6.65659684       0.00000000     571.90127196   -1470.17626453    -989.90532671
C       -5.30704779      11.28563460       5.70829110       0.00000000      48.46252989     619.63827984     -35.01224961
C       -1.45428119       4.55124842       7.52588138       0.00000000     312.62648087     -41.07647042    -103.26228786
C        4.44351158      -4.90212772       1.09593557       0.00000000      10.75850427      -4.25559488       5.03823119
C        3.06663052      -1.93087964       1.89906215       0.00000000     138.56228074      71.54116130     -55.03231141
P        3.86632141       5.86427167       6.51884659       0.00000000  -44244.93483093 -238695.45404890 -1060185.25406852
C       -1.95096573      12.08423277      10.90916896       0.00000000      36.89817239       9.86328325    -178.71207236
C        1.44511681       0.63658938       7.16971128       0.00000000     995.01206779    1552.47864837     607.49457458
C        5.40400022       4.04443399       4.94648567       0.00000000   50054.61357198   44796.73905478   15593.49283938
C        4.33367290       6.59405854       2.26927878       0.00000000   21343.16895983  -26683.44062620    9469.94812279
P        3.81319015       5.32358960       5.88502322       0.00000000  -84764.25774849  704682.51621961  928078.35620112
C        4.22801009       9.50935816       6.54365323       0.00000000    -224.91953913    1089.45614513     107.62047944
C       11.89894787       3.29965220      -3.03410791       0.00000000      -0.03526651      -1.16335347       0.15517004
C       12.01373876       8.57501272       2.48436791       0.00000000     -85.76404060      52.92795416     -60.34961780
C        5.86934281       4.57532592       5.24864092       0.00000000  -24890.17744574    7883.19428599    3458.81037346
C        6.15290189       5.11662069       5.35283652       0.00000000 -193896.04696395  -27292.51567978   -1870.87802161
C        4.43723907       5.81884030       3.63545262       0.00000000   74629.94459762  145028.41462743  186547.97830739
C        2.26459650      -1.89075408       3.81152874       0.00000000     684.67837349     484.63835014      -1.50956939
C        0.82242697       1.86100631      10.39840132       0.00000000     -52.42527819     -94.50545606      12.62944688
C       -1.18113761      10.59256908       3.13564810       0.00000000       0.31061241     -54.30332156     -60.12889856
C       -3.92121783      11.01655789      -4.30168417       0.00000000     -55.42125525    -131.97635232      95.23884965
C       -4.88882387      11.41636690       4.32843859       0.00000000     269.37627196     471.62634931     135.94779999
C        8.72177628      -3.31280461      -4.30868922       0.00000000     216.34028671    -666.07055248    -484.24703758
P        3.52971194       3.55053537       3.78583459       0.00000000     778.48391450   11623.23735120   24579.52389599
C        4.26296278      13.54376433       8.64252029       0.00000000       1.79433628      18.01007812     -11.59165804
C       -2.12060443       4.21024897       4.25124484       0.00000000     283.02799332     -72.38295299     -71.61650051
C       -4.31596501      10.04405687       3.23797154       0.00000000     252.66693202     276.73440652     -58.25096380
C        5.10075164       1.32281755       6.31604639       0.00000000   -1970.84134185    1567.57078958   -2347.72453455
S        2.87650385       5.00517452       3.92376771       0.00000000  -34661.21021178  -74239.71884740 -152027.28853435
C        3.68238690       9.65289358       5.56540900       0.00000000   -2654.90567300    -477.40329916    6980.54354150
C       -2.92298538      10.32072671       4.58001703       0.00000000      17.45879008     295.17287669     185.94967018
C        6.97248846       4.29076177      -2.52823311       0.00000000       0.83576734      -1.08154208      -2.21349171
C        4.49056611       3.48212863       5.08449556       0.00000000   47110.39831220  -90445.39241238  -68108.65068043
C        4.14994711       5.14691136       5.53268505       0.00000000    1679.06111046 -425780.02665673 -121796.74067637
C        3.56805234       5.99350977       5.36695280       0.00000000  291529.91312890 -386586.24424769  487018.49415912
C        3.74950592       9.79632391       5.10288059       0.00000000     892.02356918    4557.84793794   -4824.76740140
C       12.82141149      -1.50311429       6.63450199       0.00000000     503.58023174     810.05572365     534.02018679
C        9.53249761       4.20316708      -0.40705721       0.00000000       1.86978865       2.16101182       2.12419965
C        4.76374477       6.24055678       2.25975754       0.00000000  -16750.15710186   10229.14947567   32422.02665186
C        4.10896969       5.47940325       3.70111899       0.00000000   57186.81703740   21747.04871276   99314.90646773
C        4.81358082       6.43835295       4.15837328       0.00000000  127980.58021557 -421274.92246835  -66006.27770323
Nb       3.59668716       4.06782943       7.00932588       0.00000000  201643.73380052 5142077.32590152 1425032.11442946
O        1.47635668       6.59120410       8.49217622       1.00000000  -12943.79844084   11255.04797357    1852.67117592
O        3.57680985       4.22913324       7.20595151       1.00000000  -35312.27854742 -4546878.66453953 -1870693.12036166
