52
Lattice="12.336457 0.0 0.0 -6.168228499999997 10.683685154694365 0.0 0.0 0.0 15.0" Properties=species:S:1:pos:R:3:forces:R:3 energy=-443.24982840962736 free_energy=-443.24982840962736 stress="-0.004761514461683626 -0.0008869588638686675 1.159216929495286e-05 -0.0008869588638686675 -0.009400436689622546 2.4400941926941332e-05 1.159216929495286e-05 2.4400941926941332e-05 4.0719340583805944e-05" pbc="T T T"
C        0.06291239      -0.09903038       3.69945987       0.00481209       0.00656564       0.00010868
C       -1.17188223       2.04746550       3.75778051      -0.00740665      -0.00154989       0.00034081
C       -2.40708444       4.19049808       3.63778942       0.00748479      -0.00493432       0.00157117
C       -3.62628911       6.32356847       3.57163167       0.00382299       0.00031516       0.00712661
C       -4.87127509       8.44483311       3.65463573      -0.00504795       0.00667807       0.00676840
C        2.53447110      -0.13162534       3.60116150      -0.00268961      -0.00456052      -0.00230090
C        1.32559638       1.95958356       3.95030457      -0.00421545      -0.00458030      -0.00903238
C       -0.04210608       4.19187340       4.22232075      -0.00016694      -0.00195751      -0.00420946
C       -1.20600720       6.34200630       3.94621157       0.01179862       0.00391795       0.00277902
C       -2.39453228       8.45087695       3.68186448      -0.00105418       0.00356483       0.00697198
C        4.99841848      -0.08908920       3.50574677      -0.00579196      -0.00251090       0.00707188
C        3.73047795       1.96828929       3.27560970       0.00568740      -0.00942125      -0.00915048
P        1.33884385       6.33689518       5.04162318      -0.01018543      -0.01008436      -0.00651649
C        0.04992974       8.50897028       3.96786760      -0.00352947       0.00691369      -0.00247410
C        7.45826203      -0.05732207       3.58305607      -0.00191626      -0.00009897       0.01586895
C        6.22389999       2.05493938       3.24386274       0.00579545      -0.00172810       0.00490857
C        5.05472771       4.23184164       3.16857517       0.00613463       0.00191971       0.00362231
P        3.77900420       6.17821786       4.61350552      -0.00090940       0.00161057      -0.00571945
C        2.52871056       8.55759653       4.06411757      -0.00751220       0.00071260       0.00830660
C        9.93553539      -0.06380491       3.65839709       0.01169091      -0.00815939      -0.00098315
C        8.70266676       2.06095664       3.45109759      -0.00187397      -0.00221578       0.00078212
C        7.48119019       4.19295237       3.34209078       0.00385062       0.00487599       0.00252313
C        6.26390182       6.33011905       3.59909745      -0.00765993       0.00690589      -0.00237997
C        5.00485417       8.47379269       3.84328918      -0.00083824      -0.00138260       0.00877229
C        0.06478686       1.32284105       3.81260863      -0.00725656       0.00432750       0.00222852
C       -1.19967619       3.46285666       3.84912919       0.00278630      -0.00495594       0.00095993
C       -2.40530045       5.61481301       3.68546442       0.01146040      -0.00278238       0.00328728
C       -3.63035942       7.74115513       3.62837739      -0.00270170       0.00564005      -0.00206312
C       -4.87486346       9.86092741       3.66211832      -0.00229698       0.00570424       0.00071656
C        2.53650379       1.27840955       3.61918921       0.00048975      -0.00805363      -0.00982551
P        1.41656802       3.44037945       4.84066088      -0.00847823       0.00912525      -0.01140070
C       -0.05820368       5.59150839       4.28858273       0.00651399      -0.00190211       0.00121304
C       -1.17404823       7.76302818       3.88140543       0.00300147       0.00522967      -0.00506397
C       -2.39361224       9.86678203       3.58209166      -0.00498283      -0.00186488      -0.01220863
C        4.98813520       1.33541420       3.30565012       0.00578396      -0.00643032       0.00431676
S        3.51901250       3.58484533       2.72095504      -0.00533117       0.01017029       0.00370127
C        1.28568957       7.91325165       4.30833123      -0.00901630      -0.00223378      -0.00480634
C        0.05951149       9.90910956       3.66527616      -0.00511172       0.00164877      -0.00563386
C        7.45709567       1.35557524       3.39113721       0.00023599      -0.00324590      -0.00390266
C        6.24272932       3.47567852       3.19487307       0.00581030       0.00184924       0.00623620
C        5.06152024       5.57747122       3.59324250      -0.00396618       0.00332554       0.00301814
C        3.76688346       7.84701699       4.11410949      -0.00649493       0.00518596       0.00765354
C        2.52675002       9.93699280       3.73835085       0.00308759      -0.00158650       0.00063813
C        9.93747090       1.35285306       3.59218934      -0.00327790      -0.00660133       0.00253574
C        8.70890798       3.48156850       3.44301510       0.00379664      -0.00076687      -0.00619310
C        7.48470714       5.61333541       3.46500325      -0.00363948       0.00571505       0.00430636
C        6.23606299       7.74479054       3.72766858      -0.00394272       0.00286045       0.00211425
C        4.99695963       9.89514666       3.71899299       0.01444866      -0.00523588      -0.00933959
Nb       2.69817915       4.93569487       6.37481570       0.01241970       0.00230464       0.00275963
O        2.10417421       5.89785130       7.85874725      -0.00595078      -0.00138727      -0.00300944
O        1.69152159       6.66768590       8.97201532       0.01126396       0.00274120      -0.00508839
H        1.71768909       6.01551342       9.70322546      -0.00893110      -0.00957728      -0.00190617
