51
Lattice="12.336457 0.0 0.0 -6.168228499999997 10.683685154694365 0.0 0.0 0.0 15.0" Properties=species:S:1:pos:R:3:initial_magmoms:R:1:forces:R:3 energy=-694962.6988961293 free_energy=-694962.6988961293 stress="730.1682593372167 238.550858420133 -179.89521248356928 238.550858420133 219.70993446210883 -66.53513850493536 -179.89521248356928 -66.53513850493536 95.75300112204704" pbc="T T T"
C       -3.55819085       0.96474854       7.60017127       0.00000000      36.34499850     -32.43678925      19.19604778
C       -5.06609545       1.08534608      -3.20487415       0.00000000       4.47848145       2.00397837       0.98676759
C       -7.61146449       2.50382560       1.98201059       0.00000000      55.56309014    -645.30689690    -947.12367134
C       -5.47567544       6.09114301       5.09129412       0.00000000  -37782.29521537    4355.22857351   18698.34901470
C       -3.95702201      10.77679239       2.40667188       0.00000000      30.26590286     115.69931157     -60.39623165
C        5.89132141      -0.81418783       5.14688842       0.00000000      21.38814614     -29.76278120     -11.67194179
C       -3.59070128      -0.22669661       7.23273750       0.00000000    -256.03039398     544.50018468     154.57667179
C        2.68342464       2.05456835       7.13154906       0.00000000   -2232.91645093   -4432.70188107    1376.70732779
C       -4.25027282       8.08247333      -2.82774280       0.00000000      -0.62356748      -0.81573353       1.07209250
C       -0.52080561      10.71705526       2.98556072       0.00000000       1.57414141     -24.77353235      -3.95602903
C        6.15906764       0.04226310       6.47542064       0.00000000    -480.34754730    -364.82321868   -1044.40926552
C       -3.06314145       1.98458562      -2.64447980       0.00000000      -4.48655610      -2.01667845      -1.37478917
B       -3.32686686       3.14627294       1.79925738       0.00000000      36.60008897     -49.34154702     -76.92198825
C       -2.03659853      11.02088248       8.02142702       0.00000000      -9.03633920    -354.48214195     147.66622423
C        8.79500160       4.99276474       4.59168757       0.00000000     981.36608096     389.15084126    -502.51804367
C        7.56689790      -0.38678007       6.36500677       0.00000000     -49.13581895      23.98586652     -26.14104039
C        7.59365910       7.89370664       4.09735859       0.00000000   -2587.05257594  -10595.04870847    2307.11765603
N        6.03051974       6.59502379       4.67639955       0.00000000  -27516.38684550  -42661.76123497   72387.13663725
C        5.97870920       5.73029033       0.75338548       0.00000000    -167.40322977      65.50646548    -407.29672474
C        8.04284416       6.27024637       4.30495019       0.00000000   -6861.54295563   -1795.83331346    2775.92574171
C        8.12090748      -0.26364080       2.60774792       0.00000000      -6.95829735     -21.00966761     -25.53616386
C        6.81057778       3.69015354       4.96616688       0.00000000   -5129.09755159   10916.74190089    1609.11354511
C        7.63004736       6.87759099       4.20931785       0.00000000   -3361.38712422   10046.79732382    2906.73803556
C        4.85922066       9.25318583       4.58090002       0.00000000     244.51212486    2041.80068763   -1169.15487772
C       -3.79704175       1.74625636       8.08179348       0.00000000      29.58500872     -55.94106509      81.60135255
C        1.06163503       8.96240083       5.41750744       0.00000000    -825.56681585     744.15746061    -221.84793227
C        1.37026208      -0.84167450       5.60943931       0.00000000     126.85548677      93.09908513     -98.44120846
C       -5.63681509       6.68733285      -0.94012322       0.00000000       3.24408163      -2.00907280       0.30058824
C       -7.86231299       5.96595547       0.54410631       0.00000000       1.42232676      19.57743567    -316.87605400
C        5.59768107       3.51801244       2.85622650       0.00000000     463.55535419    -455.05981295   -1655.97497332
O        3.94992094      13.53540887      -5.53474269       0.00000000       5.27459809      -5.70518429       3.94541271
C        2.29509261       3.25790657       9.67513688       0.00000000    -549.07017718    -452.21427063     862.50459483
C       -4.44531860       3.97915144       1.92891722       0.00000000     338.03908076    -147.50498552    -507.49455649
C        1.14773817      13.21767113       4.11222083       0.00000000     781.42343671    -666.83078441    -270.81849012
C        6.38845465       0.14918619       7.03449115       0.00000000     482.24561485     163.07749879    1175.01105338
B        2.87462675       4.78068278       3.25879602       0.00000000    1912.13445283     869.21105374    -879.20645272
C        6.11951815       1.76929044       2.03940002       0.00000000       3.81753690    -211.17346884    -153.11023386
C        1.64653839       5.68613435       2.10969077       0.00000000    -700.06273001      42.65331141    -990.07716608
C       10.23851510      -0.11090826       7.54849373       0.00000000    -108.54138496     975.31553691     302.53985453
C        5.81174991       5.01528655       6.05940536       0.00000000   36020.84664212  144575.13484311  -46443.04070239
C        6.84213026       9.36159940       4.51149693       0.00000000     581.12636006     379.84647593     -51.63442597
C        5.77756863       7.59680005       6.64790239       0.00000000    2053.17436154  -43033.60435212  -28976.01950049
C        3.08992079       5.87575614       3.29940051       0.00000000   -3178.85153361    2180.79589781   -8920.09691256
C        9.29672034       1.30066474       4.51632811       0.00000000      23.69038338     -16.91456627      -8.17372309
C        7.06777999       5.13018171       6.23224044       0.00000000  -29879.59333765   31416.01540300  -15746.20410968
C        6.85394286       5.74039148       0.35506388       0.00000000     199.66475030      -0.84828891    -113.38739008
C        6.25972104       6.31562728       5.80946900       0.00000000 -175936.26307592  -95375.83110159   16686.93906880
C       -1.98918242      12.03236657      -2.85696500       0.00000000      -0.67221918       0.33784720      -0.99442897
Ni       4.59415358       5.54079788       6.02304126       0.00000000 5566933.08827397 2317532.73936943 -1874962.12377750
O        3.18237631       4.58413131       5.74535085       1.00000000    6464.31126694   37828.55357207   36957.39824227
O        4.77450611       5.59161995       5.98003407       1.00000000 -5320212.27032814 -2363888.17884621 1826137.19687584
