52
Lattice="12.336457 0.0 0.0 -6.168228499999997 10.683685154694365 0.0 0.0 0.0 15.0" Properties=species:S:1:pos:R:3:forces:R:3 energy=-446.9117260765645 free_energy=-446.9117260765645 stress="-0.0037111602132402608 -0.00042923613497882087 1.0740859093006996e-05 -0.00042923613497882087 -0.002903604082872151 -5.5496071759802006e-06 1.0740859093006996e-05 -5.5496071759802006e-06 -1.851652271361607e-06" pbc="T T T"
C       -0.09179507      -0.11084167       3.71100897       0.00235007       0.00846317       0.00326046
C       -1.32526580       2.03160424       3.77453376      -0.00095216       0.00382288      -0.00436972
C       -2.56511375       4.16955276       3.80522459      -0.00037858       0.00176254      -0.00146038
C       -3.79375606       6.30531334       3.76648228      -0.00694701      -0.00279021       0.00257510
C       -5.02910445       8.43660207       3.68797744       0.00224657      -0.00282173       0.00044872
C        2.37792666      -0.13419923       3.76558074      -0.00273649       0.00823418      -0.00385091
C        1.15344984       1.99575879       3.77264711      -0.00585744       0.00065424       0.00988095
C       -0.10467784       4.21370297       3.80333448       0.00318959      -0.00221116      -0.01692853
C       -1.34718858       6.32376475       3.80784560      -0.00088879       0.00902789      -0.00042031
C       -2.55832570       8.43771786       3.78070371       0.00405079      -0.00299928      -0.00855885
C        4.85116981      -0.11624271       3.80591762      -0.00515238      -0.01051981      -0.00633366
C        3.60140012       1.99443766       3.82057280       0.00769659       0.00191303      -0.00318256
N        1.06337686       6.32698962       3.77753544      -0.00509917      -0.00226312      -0.00181846
C       -0.08488803       8.42671647       3.79124805       0.01145764       0.00163134       0.00789792
C        7.32083452      -0.12037623       3.78468291      -0.00989382      -0.00207424       0.00717434
C        6.07740940       2.03721036       3.81299056       0.00230629       0.00357444       0.00594648
C        4.84905949       4.23076009       3.80402220      -0.00186523      -0.00072859      -0.00059453
O        3.71696704       6.36450332       3.83219268       0.00652925       0.00095098      -0.00882293
C        2.39005595       8.38702130       3.73186672      -0.00229439      -0.00395080       0.01417896
C        9.77413905      -0.12095899       3.73513793      -0.00406601      -0.00432695       0.00409854
C        8.54361860       2.02817500       3.79515254       0.00491365      -0.00960526      -0.00166179
C        7.30769766       4.17191172       3.79193393       0.00179614      -0.00044720       0.00099045
C        6.09131684       6.32726590       3.71158290      -0.00179256      -0.00103115      -0.01004845
C        4.84576280       8.43508905       3.64699838       0.00072784       0.00496273       0.01727451
C       -0.09063261       1.31675630       3.75117462      -0.00484945       0.00478589       0.00477384
C       -1.31948985       3.46491373       3.80099770       0.00253824       0.00169302      -0.00448863
C       -2.56821841       5.59188357       3.80074571      -0.00377994       0.00548842      -0.00784202
C       -3.79118437       7.72731307       3.74585160       0.00104220      -0.00546712      -0.00376550
C       -5.02758542       9.85817819       3.71489136       0.00022839       0.00381137       0.01034100
C        2.37627076       1.28018458       3.78920361       0.00036540       0.00925907      -0.01176119
B        1.21288339       3.49409545       3.78497780      -0.00306843      -0.00493608      -0.00309828
C       -0.12154147       5.63815015       3.80311704      -0.00440284      -0.00019578      -0.00674007
C       -1.32674454       7.73292891       3.79964614       0.01085108       0.00778458      -0.00386613
C       -2.55177782       9.85513181       3.78597958      -0.00729718      -0.00313911      -0.00840798
C        4.84674477       1.31273696       3.81835790       0.00478819      -0.00778672      -0.00309384
B        3.53759288       3.48472865       3.82990971       0.00906920       0.00127860       0.00045514
C        1.13019484       7.68774857       3.76949543       0.00081643      -0.00532545       0.00332384
C       -0.08223480       9.85378623       3.79474566      -0.00294801      -0.00382458       0.01126073
C        7.31198441       1.31491658       3.79784589      -0.00123620      -0.00203325       0.00911174
C        6.06858760       3.46944943       3.80741511       0.00011880       0.00433443      -0.00073251
C        4.89856458       5.63615648       3.76055752       0.00185334      -0.00132194       0.00529330
C        3.63860488       7.74584738       3.68314824       0.00269006       0.00145312       0.01082279
C        2.38092171       9.83057553       3.75196928      -0.00894250      -0.00246397       0.00369794
C        9.77863564       1.31468964       3.77148698       0.00414797      -0.00618013      -0.00849296
C        8.54186689       3.45624919       3.80251956       0.00292504      -0.00570771      -0.00829367
C        7.31605961       5.59291558       3.75034105      -0.00324766       0.00007018      -0.00466195
C        6.08425344       7.73933077       3.65487421      -0.00205106       0.00094140       0.00640676
C        4.84262093       9.86218621       3.68167323       0.00302897       0.00661624      -0.00127414
Ni       2.36192046       5.04045688       3.75235253       0.00297561       0.00210697      -0.00130698
O        4.93729041       7.12958085       6.12486753      -0.00625678      -0.01392186       0.00863326
O        3.69727298       6.87295309       6.59784127       0.02027310       0.00178658       0.00497547
H        3.82972683       6.12162414       7.21915679      -0.01897233       0.01166589      -0.00694536
