53
Lattice="12.336457 0.0 0.0 -6.168228499999997 10.683685154694365 0.0 0.0 0.0 15.0" Properties=species:S:1:pos:R:3:forces:R:3 energy=-453.8316936068141 free_energy=-453.8316936068141 stress="-0.004113619935169688 -0.0009049166086142354 1.2053001938874454e-05 -0.0009049166086142354 -0.003697115396443371 2.561926939267783e-05 1.2053001938874454e-05 2.561926939267783e-05 2.426838790928763e-05" pbc="T T T"
C        0.04547863       0.00884830       3.61754271      -0.00420684       0.00281871      -0.00663310
C       -1.20302325       2.13187274       3.64556177       0.00706897       0.00296487      -0.00060077
C       -2.44349235       4.28116673       3.73657725       0.00452549      -0.00245085       0.00264977
C       -3.65891965       6.42155470       3.74127068      -0.00111391      -0.00099808       0.00685853
C       -4.88887363       8.55576862       3.62350645       0.00072830      -0.00051503       0.00481261
C        2.51379554       0.01193347       3.77747763      -0.00488124       0.00681799       0.00244099
C        1.27743431       2.14629640       3.68423540       0.00593992       0.00378406       0.00518775
C       -0.01509515       4.25191492       3.73678210       0.00764396      -0.00522698      -0.00238812
C       -1.20051689       6.41285882       3.93508640      -0.00222365      -0.00602391       0.00404407
C       -2.41792672       8.55418484       3.88394363      -0.00054230      -0.00285750      -0.00647317
C        4.97769344       0.01261237       3.93510981       0.00370419       0.00496516       0.00631910
C        3.73986610       2.16330218       3.87599588      -0.00060356       0.00469863      -0.00490758
B        2.50330221       4.50534269       3.56374292      -0.00726729       0.00226591      -0.00752836
P        1.56501727       6.18721452       4.47271399       0.00307467      -0.00388136       0.00325784
C        0.05949332       8.55108569       4.04373200       0.00318602       0.00506437      -0.00956069
C        7.44476604       0.01495849       3.88571575       0.00710559       0.00140537       0.00949998
C        6.21566122       2.14319875       3.89405709      -0.00380854      -0.00151879       0.00391683
C        5.01836277       4.27582294       3.70333281      -0.00065227      -0.00275050       0.01151918
P        3.53044172       6.25092033       2.62294030      -0.00867419       0.00360733       0.00453471
C        2.52510016       8.58891038       3.74537381      -0.00295172       0.00204639      -0.00413086
C        9.91540019       0.01523100       3.66974539       0.00173309      -0.00524564      -0.00302230
C        8.67480257       2.14375316       3.77446886      -0.00581281      -0.00710195      -0.00580105
C        7.45105989       4.28469807       3.75581930       0.00302549       0.00508033      -0.00111381
C        6.22235066       6.41373893       3.48059793      -0.00512465       0.00050111       0.00079134
C        4.97161552       8.55557325       3.44841722       0.00401116      -0.00274194      -0.00450852
C        0.04102955       1.43096325       3.63769839       0.00597911       0.00336638      -0.00192669
C       -1.22949976       3.54892366       3.67266172       0.00789175       0.00176729      -0.00081020
C       -2.43497592       5.70543999       3.80674691      -0.00221856      -0.00288268       0.00074110
C       -3.65380555       7.84768571       3.74900441      -0.00192198      -0.00393031       0.00023236
C       -4.88508064       9.98284931       3.66577897      -0.00586120       0.00383385      -0.00270703
C        2.51262668       1.44257708       3.78130881       0.00121049       0.00732967       0.00294617
C        1.24751654       3.57809909       3.71919139       0.00596329      -0.00272362       0.00665495
C       -0.01767585       5.63867966       3.96370046      -0.00649162      -0.01059051       0.00683382
C       -1.18508501       7.84109416       3.99249420       0.00187826      -0.00174549      -0.00454577
C       -2.42342230       9.98251187       3.87820582      -0.00085390       0.00270338      -0.00278086
C        4.97509593       1.43991333       3.91399068      -0.00314256       0.00262945      -0.00609268
C        3.75825179       3.60560556       3.87346051      -0.00552598       0.00121187      -0.00695877
C        1.32670844       7.89310874       4.07269463      -0.00409718       0.00268819      -0.00743204
C        0.04494657       9.98228770       3.96670188       0.00926271       0.00853059       0.00708963
C        7.44454628       1.43426350       3.86165949      -0.00701710      -0.00386170       0.00799152
C        6.23070126       3.56315178       3.81418722       0.00412936      -0.00084697      -0.00214807
C        5.03675956       5.64864442       3.35898484      -0.00870811      -0.00170168       0.00835013
C        3.71737980       7.89261265       3.37960635      -0.00076310       0.00974049      -0.00824249
C        2.51424429      10.00436905       3.77138297       0.00286385      -0.00202234       0.00849886
C        9.90625332       1.43122301       3.69299103       0.00398005      -0.00411736       0.00552966
C        8.67211564       3.56786748       3.76051238       0.00257060      -0.00324199      -0.00542990
C        7.45111300       5.70649182       3.66301424      -0.00184623       0.00690320      -0.00106931
C        6.21935539       7.84572097       3.47106142       0.00467115      -0.00241879       0.00043770
C        4.97962128       9.98462562       3.57570924       0.00051564      -0.00622052      -0.00032846
Ni       2.39911155       4.39718435       5.46688466       0.00513030       0.00106998      -0.00740797
O        2.53272514       4.17507704       7.25420497      -0.00312766       0.00310554       0.00306764
O        1.65919982       5.16282647       7.91900683      -0.00868807      -0.01125873      -0.00325338
H        2.34751998       5.71727338       8.33815361       0.00033282      -0.00202489      -0.00640430
