52
Lattice="12.336457 0.0 0.0 -6.168228499999997 10.683685154694365 0.0 0.0 0.0 15.0" Properties=species:S:1:pos:R:3:forces:R:3 energy=-441.5197684555788 free_energy=-441.5197684555788 stress="-0.004871267390230542 -0.0035183383734790326 -1.2454582835564667e-05 -0.0035183383734790326 -0.005310423359050037 1.6861501739473695e-06 -1.2454582835564667e-05 1.6861501739473695e-06 1.2838479939155196e-06" pbc="T T T"
C        0.00673441      -0.05063436       3.66812275       0.00621777       0.00440577      -0.00595996
C       -1.25195317       2.07163113       3.88190023       0.00343614      -0.00406244      -0.00173903
C       -2.49448431       4.21710379       3.72246653       0.00144534      -0.00675659      -0.00078496
C       -3.69289370       6.35885509       3.50185133      -0.00056172      -0.00128402      -0.00012504
C       -4.91306674       8.50124324       3.46916686       0.00139425       0.00256145       0.00158849
C        2.47728062      -0.07917639       3.60765282       0.00343856       0.00467212       0.00402445
C        1.24464348       2.00138021       4.07459098      -0.00232076      -0.00408824       0.01136176
C       -0.10632578       4.23639847       4.21074099      -0.00066735      -0.00322706      -0.00489194
C       -1.24992854       6.35777926       3.72316821      -0.00276843      -0.00489505      -0.00243158
C       -2.44438195       8.48673790       3.51592563       0.00454218      -0.00173851      -0.00857145
C        4.94937149      -0.06116107       3.50779380      -0.00437365      -0.00300946       0.00283766
C        3.68519497       2.04196493       3.64281998       0.00119287       0.00244822      -0.00288080
B        1.22447205       6.35532990       3.94244946       0.00604785       0.00066183      -0.00295097
C        0.02589495       8.48544912       3.57065246      -0.00820240      -0.00207250      -0.00089610
C        7.41273988      -0.04988089       3.50424706       0.00095899      -0.00609229      -0.00190133
C        6.15574550       2.10502927       3.49673331      -0.00302365       0.00469302      -0.00412330
C        4.92857999       4.31360827       3.48504021      -0.00536673       0.00632293       0.00663185
O        3.80706566       6.44858899       3.38687083       0.00472396       0.00443269       0.00014497
C        2.51241171       8.48447544       3.51690389      -0.00582685      -0.00338853       0.00112769
C        9.87566976      -0.05065642       3.57834733       0.00233458       0.00812245      -0.00396463
C        8.62673878       2.08792522       3.59324304       0.00256497      -0.00029887      -0.00638058
C        7.38986641       4.23554908       3.48556999      -0.00028501      -0.00494243       0.00158326
C        6.19676572       6.39797365       3.38352146      -0.00025481      -0.00278507       0.00517877
C        4.96819186       8.51531026       3.44447832      -0.00624122       0.00827147      -0.00133832
C       -0.00610653       1.35995221       3.89955442       0.00205197       0.00099037      -0.01056313
C       -1.27940601       3.49205258       3.95808763      -0.00149420      -0.00770548       0.00669869
C       -2.47964933       5.64113598       3.64122837      -0.00289098      -0.00539694       0.00071379
C       -3.67945029       7.78248618       3.48286899       0.00421269       0.00252041      -0.00343727
C       -4.92530658       9.91764401       3.57922951       0.00529701       0.00499638      -0.00529354
C        2.46529123       1.32860979       3.77681760       0.00048613       0.00447246       0.00719022
P        1.36032179       3.54780845       4.90903644       0.00531719      -0.00556375      -0.00357058
C       -0.06683720       5.63037514       3.99290148      -0.00070669      -0.00105589       0.00254563
C       -1.21132954       7.77402912       3.59310641      -0.00202381      -0.00629859      -0.00743083
C       -2.45036249       9.90640214       3.52245958      -0.00117555      -0.00229575       0.00373001
C        4.93583998       1.36888787       3.52863427      -0.00088346      -0.00153591       0.00643894
B        3.66315450       3.52376300       3.64843945       0.01251959      -0.00024687      -0.00915117
C        1.27527865       7.79194402       3.63134870      -0.00911369       0.00254233       0.00792548
C        0.01417107       9.91584147       3.50316720      -0.00543977      -0.00375674      -0.00149628
C        7.39549285       1.38164394       3.51377902       0.00034284      -0.00047908      -0.00043980
C        6.14778774       3.54003591       3.47216630      -0.00661886       0.00618867       0.00445021
C        4.98545474       5.72193071       3.42545202       0.00001590       0.00346437       0.00366810
C        3.75785442       7.82639717       3.45809055      -0.00462159       0.00243662      -0.00835188
C        2.48749638       9.91861693       3.51089300       0.00472779      -0.00274495       0.00109095
C        9.86421679       1.37445533       3.67894328       0.00125403       0.00241551       0.01071636
C        8.61898627       3.51285107       3.59108828       0.00149957      -0.00384663       0.00736283
C        7.41094523       5.65412891       3.44570130       0.00049930      -0.00610667       0.00792080
C        6.20123417       7.81117297       3.41091700      -0.00409804       0.00204280       0.00048657
C        4.94647647       9.93242805       3.56019657       0.00267401       0.01072135      -0.00872334
Ni       2.69471165       5.05481944       4.36697302      -0.00153528       0.00412085      -0.00127609
O        2.20019773       6.51378177      10.21350151       0.00174903      -0.00203195      -0.00032984
O        2.95160020       5.40897797       9.98275872       0.00461405       0.00171648      -0.01457185
H        3.08889300       5.37142680       9.00909724      -0.00506409       0.00248574       0.01815811
