52
Lattice="12.336457 0.0 0.0 -6.168228499999997 10.683685154694365 0.0 0.0 0.0 15.0" Properties=species:S:1:pos:R:3:forces:R:3 energy=-443.8448899210668 free_energy=-443.8448899210668 stress="0.0021090141081224318 0.00011528924863154767 2.3382746416089907e-05 0.00011528924863154767 -0.00025713335410231154 1.7681177481450695e-06 2.3382746416089907e-05 1.7681177481450695e-06 1.4206973397286442e-05" pbc="T T T"
C        0.06598042      -0.09263945       3.78645751      -0.00771372       0.01261900       0.00280977
C       -1.15713580       2.06259445       3.76982517      -0.01170944      -0.00525357       0.00056776
C       -2.38623711       4.18793937       3.70837018      -0.00111265      -0.00640399       0.00749417
C       -3.63492949       6.31426730       3.69481079       0.00002357      -0.00155750      -0.00490308
C       -4.87511617       8.44592523       3.73650542      -0.00607735       0.00780382      -0.00564267
C        2.53288240      -0.12543461       3.81849710       0.00528258      -0.00492269      -0.00601345
C        1.32153439       2.02112144       3.83856901       0.00137104       0.00195111       0.00500937
C        0.11531897       4.23724833       3.73769907       0.00101552      -0.00425417      -0.00092558
C       -1.17480637       6.33489312       3.66699591       0.00720867       0.00468632      -0.00462371
C       -2.39512745       8.44683933       3.74138671      -0.00751861      -0.00041117      -0.00681079
C        5.00025190      -0.09157432       3.79968054       0.00016820       0.00616893      -0.00659946
C        3.74516638       2.02242969       3.84985913      -0.00191702      -0.00215972       0.00101144
O        1.21033805       6.36911887       3.67959327      -0.00257627       0.00671551       0.00641891
C        0.06897135       8.45339332       3.72016465      -0.00016370      -0.00123082      -0.00518957
C        7.47275805      -0.09637071       3.77078844      -0.00139328       0.00702257      -0.00210267
C        6.22447904       2.06177880       3.77872118       0.00437076      -0.00119227      -0.00415528
C        4.95213447       4.23509161       3.74843144       0.00430495      -0.00070785       0.00363885
O        3.85507865       6.36478948       3.74484479       0.00645744       0.00080058       0.00063151
C        2.53283756       8.39930035       3.72731274       0.00557023      -0.00388686       0.00654274
C        9.92959394      -0.09621893       3.76546591       0.00552731       0.00176855      -0.00029487
C        8.70186023       2.05258959       3.75193486       0.00306838      -0.00229294      -0.00057329
C        7.45389385       4.18683896       3.71081439       0.00000603       0.00397930      -0.00077476
C        6.24057088       6.33352249       3.67037048      -0.00876231       0.00123816      -0.00476407
C        4.99468470       8.45149379       3.71989163       0.00828839      -0.00329164       0.00922249
C        0.07612864       1.34211284       3.80520110      -0.00711839       0.00705714      -0.01381424
C       -1.12868172       3.49398692       3.73428510      -0.00499693      -0.00960136       0.00500887
C       -2.40057715       5.60575154       3.68702000       0.00741660      -0.00580705       0.00237303
C       -3.63473177       7.73648566       3.72274137      -0.00692844      -0.00027476      -0.00734738
C       -4.87338037       9.86764345       3.78388442      -0.00077594       0.00831191       0.00313870
C        2.53339835       1.29117186       3.85087572      -0.00122665      -0.00729793      -0.00256380
B        1.48683391       3.53194319       3.84837350       0.00630907       0.00194056       0.01125295
C        0.03112613       5.64000921       3.67183805       0.00464509      -0.00277319       0.00058958
C       -1.16977784       7.74836812       3.70427614      -0.00296843       0.00978296      -0.00165487
C       -2.39695447       9.86844612       3.79189452       0.00598885      -0.00434463      -0.00055510
C        4.99090288       1.34282115       3.81775421      -0.00090074       0.00515665      -0.00780053
B        3.57750637       3.53318884       3.86175684       0.01523122      -0.00813252      -0.00454658
C        1.26994075       7.75979216       3.69517278       0.00156556      -0.00568683       0.01373516
C        0.06623337       9.88352959       3.76866988      -0.00377763      -0.00102895      -0.00600456
C        7.46344096       1.34227348       3.76843824       0.00743795       0.00186816       0.00434584
C        6.19685053       3.49254234       3.74002427       0.00508695      -0.00084627       0.01146420
C        5.03592367       5.63758649       3.69334795      -0.00108266      -0.00455981      -0.00091330
C        3.79392695       7.75892401       3.71972469       0.00426849      -0.00353333       0.01694030
C        2.53313325       9.85317154       3.75672149       0.00338026       0.00254626      -0.00201662
C        9.93986487       1.34297430       3.76364866      -0.00395006       0.00339105       0.00174485
C        8.70231655       3.47763822       3.72397863      -0.00150364      -0.00425167      -0.00201630
C        7.46763101       5.60417115       3.68714608      -0.00959022       0.00145992       0.00339285
C        6.23472114       7.74734746       3.70226566       0.00049101      -0.00419788       0.00306125
C        4.99886866       9.88311618       3.75958727      -0.00066449      -0.00143989      -0.00839142
Ni       2.53073389       5.16502379       4.59419212      -0.00497544       0.00527719      -0.00532207
O        2.52196627       6.31493393       6.09098228      -0.01566372       0.00404301       0.00144493
O        1.13539965       6.44378910       6.52457985       0.01011883       0.00222747       0.00400235
H        1.26429425       6.21783092       7.46711441      -0.00953518      -0.00647485      -0.00952186
