51
Lattice="12.336457 0.0 0.0 -6.168228499999997 10.683685154694365 0.0 0.0 0.0 15.0" Properties=species:S:1:pos:R:3:initial_magmoms:R:1:forces:R:3 energy=-444.13968305587895 free_energy=-444.13968305587895 stress="-0.003195449173872774 -0.0003000331350221337 -7.105944684655912e-06 -0.0003000331350221337 -0.0008778010897377269 -2.3835184006845123e-06 -7.105944684655912e-06 -2.3835184006845123e-06 -7.095072384183847e-06" pbc="T T T"
C        0.03480731      -0.02933521       3.73652310       0.00000000      -0.00216411      -0.00765648       0.01078075
C       -1.20559898       2.08962047       3.85981029       0.00000000       0.00786595       0.00791904       0.00194497
C       -2.44418811       4.23106596       3.91385538       0.00000000      -0.00887637       0.00340371       0.00291672
C       -3.66548373       6.37389155       3.81198589       0.00000000       0.00821530      -0.00851973      -0.00277140
C       -4.90691539       8.51256764       3.68433069       0.00000000      -0.01045839       0.00520150       0.00005623
C        2.49950949       0.00220071       3.69698811       0.00000000       0.00853814       0.00306519       0.00302335
C        1.24593160       2.13295657       3.68809547       0.00000000      -0.00381593      -0.00635932       0.01417302
C       -0.00024511       4.20384364       3.87778117       0.00000000      -0.00555613       0.00194624       0.00129071
C       -1.19596037       6.35777061       3.95495678       0.00000000       0.00370861       0.00244736      -0.00014465
C       -2.43171302       8.51512108       3.82255477       0.00000000      -0.00434768      -0.00534614       0.00008881
C        4.95999879      -0.02380769       3.76361614       0.00000000       0.00297678       0.00439860       0.00566459
C        3.74755688       2.14262823       3.55981591       0.00000000       0.00097767      -0.00780135       0.00662415
B        1.24787200       6.38730166       4.44316999       0.00000000      -0.00399144      -0.01329302       0.00071690
C        0.04341681       8.51041323       3.89563763       0.00000000      -0.00008340      -0.00061481       0.00292776
C        7.42941483      -0.03390065       3.84161230       0.00000000      -0.00256262      -0.00630177       0.00636147
C        6.20432200       2.08982885       3.74839897       0.00000000      -0.00124995       0.00441343       0.00025791
C        5.02550891       4.18559129       3.42730268       0.00000000      -0.00103056      -0.00549317       0.01145131
S        3.62965068       6.32810999       2.62259754       0.00000000      -0.00749326       0.00780616       0.00312729
C        2.48289895       8.51428475       3.75572447       0.00000000       0.00442467      -0.00550816      -0.00233655
C        9.90198997      -0.04000952       3.80768092       0.00000000       0.00443658       0.00037101       0.00589493
C        8.66812782       2.09495598       3.87282617       0.00000000       0.00105140       0.00069201      -0.00112073
C        7.44570420       4.23236245       3.77671879       0.00000000      -0.00194005       0.00718636      -0.00736496
C        6.21353328       6.36294058       3.53564833       0.00000000      -0.00055858       0.00246658      -0.00876141
C        4.96184778       8.50534144       3.58345250       0.00000000      -0.00255919       0.00694232      -0.01545102
C        0.02918477       1.39508104       3.78015165       0.00000000      -0.00050396      -0.00990671       0.01317255
C       -1.22373828       3.50209036       3.90719975       0.00000000      -0.00796085       0.00876556      -0.00602255
C       -2.44255729       5.65405324       3.90095145       0.00000000       0.01011583      -0.00186309      -0.00991694
C       -3.66721580       7.80129545       3.77314417       0.00000000      -0.00832344      -0.00757027      -0.00740983
C       -4.89947712       9.95083754       3.70060595       0.00000000       0.00321225       0.00644182       0.00784450
C        2.49825905       1.43897513       3.63307029       0.00000000      -0.00010445      -0.00182842       0.00975489
N        1.16920948       3.50216166       3.67683759       0.00000000       0.00194791      -0.00040848       0.01302566
C        0.00938538       5.61168484       4.04062132       0.00000000      -0.00396548       0.00066457      -0.00626640
C       -1.20178703       7.79477278       3.91761075       0.00000000       0.00054469      -0.00090947      -0.01244277
C       -2.44015161       9.95058634       3.75568926       0.00000000       0.00727735      -0.00009726      -0.00342015
C        4.96463528       1.40177892       3.68969720       0.00000000       0.00057106       0.00256564       0.00419024
N        3.82745915       3.50495535       3.35514068       0.00000000      -0.00054512      -0.00958786      -0.00806267
C        1.27055752       7.83302343       3.92334761       0.00000000      -0.00113326      -0.00524405      -0.00488195
C        0.02796084       9.94856654       3.82842611       0.00000000      -0.00273893      -0.00192629      -0.01041733
C        7.43397484       1.38658689       3.83609126       0.00000000      -0.00342329      -0.00307069      -0.00417887
C        6.23043428       3.49998669       3.68059525       0.00000000       0.00405485       0.00269678      -0.00547543
C        5.05856836       5.59135309       3.28792472       0.00000000       0.00042369      -0.00425139       0.00158922
C        3.71216254       7.84691825       3.46212522       0.00000000       0.00678639       0.00044918       0.00761084
C        2.49700068       9.94367692       3.81964159       0.00000000       0.00303997      -0.00599436      -0.00598919
C        9.89998605       1.38229634       3.86422473       0.00000000       0.01057178       0.00568289      -0.00050916
C        8.66769423       3.51697939       3.87379682       0.00000000      -0.00797914       0.00348838       0.00423360
C        7.44572750       5.65493815       3.72383754       0.00000000       0.00191767       0.00372698       0.00104227
C        6.19981292       7.79473939       3.57126714       0.00000000      -0.00912168       0.00611839      -0.01158241
C        4.96623575       9.93478463       3.73050392       0.00000000      -0.00184168      -0.00086291       0.00074118
Ni       2.43774122       4.63701844       3.10430395       0.00000000       0.00454094       0.01355896      -0.01388926
O        1.37349679       5.21420825       6.27852147       1.00000000      -0.00356147       0.01710398       0.00067132
O        1.93417728       6.32117651       5.75678751       1.00000000       0.01069090      -0.00910740       0.00723851
