51
Lattice="12.336457 0.0 0.0 -6.168228499999997 10.683685154694365 0.0 0.0 0.0 15.0" Properties=species:S:1:pos:R:3:initial_magmoms:R:1:forces:R:3 energy=-443.1750675413237 free_energy=-443.1750675413237 stress="-0.004106053349262564 -0.00045113365989991964 1.3772371175174677e-05 -0.00045113365989991964 -0.003392417672961241 -5.312654725965273e-06 1.3772371175174677e-05 -5.312654725965273e-06 3.4833172982511817e-06" pbc="T T T"
C       -0.10207970      -0.09315854       3.65040257       0.00000000       0.00558902      -0.00258417       0.00495495
C       -1.33479890       2.05024936       3.66967154       0.00000000      -0.00628541      -0.01614826       0.01103623
C       -2.57538846       4.18669514       3.69328611       0.00000000       0.00104182       0.00416243       0.00277571
C       -3.80427022       6.32219462       3.68388332       0.00000000       0.00021181      -0.00717210       0.01574292
C       -5.03883938       8.45402153       3.66034047       0.00000000       0.00239083       0.00365564      -0.00247902
C        2.36823718      -0.11744116       3.70843142       0.00000000      -0.00872437      -0.00174601       0.00353458
C        1.14399113       2.01167568       3.68945274       0.00000000      -0.00186502      -0.01122356       0.00874861
C       -0.11519001       4.23043244       3.69992584       0.00000000      -0.02025797       0.01116961      -0.01257708
C       -1.35817576       6.34129939       3.71678841       0.00000000       0.01315525       0.00008851      -0.00589782
C       -2.56819632       8.45438249       3.72321333       0.00000000       0.00306882       0.00139228      -0.00340919
C        4.84104447      -0.10027878       3.75441714       0.00000000      -0.00143297       0.00110397      -0.00787170
C        3.59210056       2.01028216       3.75397719       0.00000000       0.00317653       0.00994760      -0.00693857
N        1.05180639       6.34362749       3.70779150       0.00000000       0.00849915       0.01071309       0.00874756
C       -0.09335527       8.44390419       3.73991563       0.00000000      -0.01034680      -0.01056495      -0.00213829
C        7.31004355      -0.10287561       3.72889734       0.00000000       0.00540179      -0.00265035      -0.02717332
C        6.06731899       2.05409765       3.73399328       0.00000000      -0.00049063       0.01082454       0.01171900
C        4.83819544       4.24777016       3.72461675       0.00000000       0.00604050      -0.00332975       0.00234633
O        3.70485606       6.37862754       3.79347497       0.00000000       0.01285421      -0.01459970       0.00482355
C        2.38185911       8.40514415       3.68828051       0.00000000       0.00268474      -0.01550662       0.01596772
C        9.76408087      -0.10280463       3.65904262       0.00000000       0.00949039      -0.00655457       0.02649932
C        8.53398747       2.04481397       3.69286763       0.00000000      -0.00655768       0.00770487       0.01541461
C        7.29834593       4.18864371       3.69561596       0.00000000      -0.00256797      -0.00311713      -0.02051104
C        6.08447565       6.34176999       3.66037333       0.00000000      -0.01248805       0.00796574       0.00371937
C        4.83648570       8.45628629       3.63155757       0.00000000      -0.00613468       0.00337602      -0.01272747
C       -0.10067988       1.33428558       3.66483589       0.00000000       0.00090168      -0.01225454       0.00952182
C       -1.32991786       3.48264386       3.68906334       0.00000000      -0.00642069      -0.00657047      -0.00661249
C       -2.57911480       5.60914416       3.70149439       0.00000000       0.01094007       0.00269188      -0.00884339
C       -3.80162008       7.74485117       3.69034279       0.00000000       0.00613463      -0.00003258      -0.00634178
C       -5.03737737       9.87493482       3.66932471       0.00000000      -0.00229624       0.00049201       0.00749724
C        2.36703011       1.29713214       3.71875174       0.00000000       0.00236977      -0.00170279       0.00295502
B        1.19853602       3.50681222       3.69878367       0.00000000       0.00749129       0.01008840      -0.00253159
C       -0.13376878       5.65455016       3.70871894       0.00000000       0.00778477       0.01563457       0.01226294
C       -1.33561217       7.75072835       3.73232369       0.00000000      -0.00282557      -0.00681900      -0.00014673
C       -2.56186422       9.87146898       3.73435053       0.00000000      -0.00746045       0.00281171      -0.00846215
C        4.83715767       1.32862390       3.75463957       0.00000000       0.00209284       0.00778308      -0.00531086
B        3.52922274       3.50003396       3.76142207       0.00000000       0.00630573       0.02258184      -0.00114612
C        1.12256910       7.70365725       3.71618234       0.00000000      -0.00833161       0.00575973       0.00501392
C       -0.09237663       9.87066356       3.74998860       0.00000000      -0.00072608      -0.00817674      -0.01917272
C        7.30193321       1.33181584       3.71892450       0.00000000      -0.00554155       0.00899835       0.00496738
C        6.05851719       3.48632447       3.71658190       0.00000000       0.00054575       0.00375210       0.00647380
C        4.89313917       5.65010923       3.69129852       0.00000000      -0.00283672      -0.00693735      -0.00622202
C        3.63058176       7.76909615       3.65265657       0.00000000       0.00367820      -0.01258295       0.00530721
C        2.37032201       9.84922143       3.69235617       0.00000000       0.01183416      -0.01348454      -0.00753714
C        9.76938332       1.33271230       3.67163103       0.00000000      -0.00876327      -0.00521252       0.00246738
C        8.53220806       3.47251223       3.69465938       0.00000000       0.00181974       0.00702404      -0.00532155
C        7.30770583       5.60889203       3.67076891       0.00000000      -0.01213568      -0.00244555       0.01227375
C        6.07459610       7.75639063       3.64524237       0.00000000      -0.00597110       0.01089703      -0.00215011
C        4.83270457       9.88100264       3.63615015       0.00000000       0.00850457       0.00158585      -0.00722210
Ni       2.34242677       5.05202192       3.71493332       0.00000000       0.00719095      -0.00356586      -0.01537541
O        5.14518620       6.54057356       6.45780040       1.00000000      -0.00565096       0.01918601      -0.02167624
O        4.55923794       7.62258950       6.40892970       1.00000000      -0.00508755      -0.01640885       0.02102497
