53
Lattice="12.336457 0.0 0.0 -6.168228499999997 10.683685154694365 0.0 0.0 0.0 15.0" Properties=species:S:1:pos:R:3:forces:R:3 energy=-459.6250075003781 free_energy=-459.6250075003781 stress="-0.005859924002368672 -0.00283768072160483 -6.848831018629105e-06 -0.00283768072160483 -0.002706723293054156 1.1498339414074694e-05 -6.848831018629105e-06 1.1498339414074694e-05 -1.7628431284954103e-06" pbc="T T T"
C        0.09894208       0.04851175       3.66998146      -0.00698157       0.00321481      -0.00369490
C       -1.16147278       2.16434898       3.66239631      -0.00006728      -0.00137934      -0.00737176
C       -2.40226743       4.31198287       3.65873987       0.00586576       0.00483213       0.00227514
C       -3.60409302       6.46098580       3.66979135       0.00031811      -0.00393062      -0.00407177
C       -4.82128620       8.60547897       3.67617075       0.00449267       0.00043025       0.00403361
C        2.57314688       0.06186900       3.72761071      -0.00171551       0.00118894      -0.00557478
C        1.31377285       2.18059248       3.78100081       0.00824450       0.00168844      -0.00409124
C        0.03137157       4.28517614       3.82231675      -0.00454864      -0.00260777      -0.00196889
C       -1.14910062       6.44748613       3.77551575       0.00100936       0.00207135      -0.00715987
C       -2.35496095       8.59661912       3.72636364       0.00426200       0.01110659      -0.00260278
C        5.03683903       0.05258715       3.77053875      -0.00259589      -0.00349669      -0.00653534
C        3.79696895       2.20636268       3.85242567      -0.00192933      -0.00080247      -0.00361922
B        2.50770567       4.36011650       4.14455096       0.00278693      -0.00053359       0.00146152
B        1.33577983       6.39267520       4.12637130       0.01162816      -0.00469863       0.00006924
C        0.11418433       8.58604160       3.84753477      -0.00416208      -0.00280256      -0.00048462
C        7.49940974       0.04175725       3.76097879       0.00029203      -0.00520313      -0.00290242
C        6.25830587       2.19099919       3.75836138      -0.00949194      -0.00099816       0.00674212
C        5.03503422       4.35063022       3.92184478      -0.00126507       0.00431365       0.01254171
N        3.94166743       6.54370051       4.25875886      -0.00313822      -0.00206888      -0.00288517
C        2.59091204       8.58708230       3.91982655       0.00017203      -0.00177798       0.00030443
C        9.96381191       0.03864654       3.70211085       0.00163668      -0.00385257      -0.00583228
C        8.71645487       2.17694858       3.66543998       0.00626243       0.00729674      -0.00401743
C        7.48713976       4.32618481       3.69958707       0.00131648       0.00062830      -0.00816583
C        6.27886469       6.47788127       3.76114304      -0.00588041       0.00095494      -0.00305370
C        5.05485713       8.59956481       3.75829626      -0.00624250      -0.00592310       0.00377614
C        0.08168336       1.46305051       3.68799090       0.00424378       0.00582363       0.00046168
C       -1.18738818       3.58149561       3.68743223      -0.00445054      -0.00460680      -0.00037315
C       -2.38751028       5.73913179       3.68591518       0.00280163       0.00074310      -0.00249167
C       -3.59037606       7.88793196       3.68193015       0.00985844       0.00049011       0.00756200
C       -4.82661210      10.03029965       3.68307302      -0.00355404       0.00318107       0.00076807
C        2.56453774       1.48686353       3.79150476       0.00381409      -0.00384845       0.01026176
C        1.25246859       3.58270328       3.89365139       0.00162901       0.00270266      -0.00979167
C        0.03466879       5.69375919       3.88085945       0.00281617      -0.00022161      -0.00296344
C       -1.12475627       7.87757934       3.78891140      -0.00457829       0.00297481      -0.00158825
C       -2.36172966      10.02505376       3.74161047      -0.00166481       0.00780199       0.00016251
C        5.03014324       1.48052734       3.79048958      -0.00838503      -0.00440644       0.00736783
C        3.82201687       3.63217750       3.97540901       0.00128653       0.00103435      -0.00371012
C        1.36197712       7.89532665       3.96531257      -0.00021085       0.00341025       0.00530238
C        0.10175890      10.01695106       3.79011272      -0.00364361      -0.00595486       0.00626028
C        7.48885323       1.46836677       3.71573655       0.00040195       0.00358985       0.00522158
C        6.25799166       3.62221166       3.77847098      -0.00191748       0.00191558       0.00513367
C        5.05874223       5.79114278       3.96955953      -0.00224350       0.00098636       0.00177509
C        3.85001191       7.88710117       3.96681617      -0.00503630      -0.00588824      -0.00215852
C        2.57108644      10.01036226       3.78113183       0.00384774      -0.00359633      -0.00137843
C        9.94758475       1.45815091       3.65705575       0.00203525      -0.00077821      -0.00149368
C        8.70854545       3.60232382       3.65216233       0.00771347       0.00801539       0.01500191
C        7.49866515       5.75070659       3.69211338      -0.00513559      -0.00173220      -0.00097031
C        6.28442873       7.89498303       3.71905240      -0.00243505      -0.00050543       0.00267402
C        5.03501855      10.01956923       3.69075164      -0.00480820      -0.00551981       0.00653799
Ni       2.75832397       5.86816769       5.47371002       0.00413602       0.00388594      -0.01408907
O        2.06366708       5.51279056       7.06771270       0.00070091       0.00471504       0.00104909
O        0.70143970       4.95417401       7.00299924       0.01004541      -0.00953935       0.01262651
H        0.85201353       4.12512302       7.50008396      -0.00753580      -0.00232302      -0.00432998
