52
Lattice="12.336457 0.0 0.0 -6.168228499999997 10.683685154694365 0.0 0.0 0.0 15.0" Properties=species:S:1:pos:R:3:forces:R:3 energy=-444.6621720532396 free_energy=-444.6621720532396 stress="0.0028227139082917527 0.005769979120878776 -6.7291005010148905e-06 0.005769979120878776 0.0038144145495834663 1.7541881296592378e-06 -6.7291005010148905e-06 1.7541881296592378e-06 -5.381886863522853e-06" pbc="T T T"
C       -0.03063195      -0.06604509       3.80692372       0.00677056       0.00778549       0.01537364
C       -1.22646106       2.09279835       3.59726242      -0.00137348      -0.00558016       0.00836939
C       -2.48002447       4.21860575       3.68769478       0.00951386       0.00550965      -0.01608679
C       -3.76153661       6.33872980       3.86870381      -0.00211779       0.00109362       0.00301186
C       -5.00772555       8.46084108       3.95490768       0.00344263       0.00305196      -0.00271594
C        2.43649358      -0.06035950       3.87778850      -0.00719105       0.00240096      -0.00105364
C        1.25170493       2.07179223       3.51333514       0.00728742       0.00002928       0.00949346
C       -0.04873896       4.29992205       3.28829618       0.00225412      -0.00221885      -0.01294016
C       -1.30259447       6.37645611       3.61115399      -0.00038979      -0.00270966      -0.00071469
C       -2.52252270       8.48063765       3.84605280       0.00721113       0.00635733       0.00320665
C        4.90880685      -0.07839611       3.86100661      -0.01024155      -0.00490844       0.00825619
C        3.73025536       2.03269678       3.95193317      -0.00092992      -0.00618444       0.00141967
O        1.04511044       6.47618359       3.11860229      -0.00396028       0.01425791      -0.00797160
C       -0.04822067       8.47700540       3.72067598       0.00212138      -0.00423812      -0.00816367
C        7.39016087      -0.09099054       3.76856778      -0.00439458      -0.00524054      -0.00595695
C        6.17731004       2.04662289       3.91570285      -0.01207866       0.00431408      -0.00381449
C        4.97193260       4.16507655       4.21500564      -0.01137877      -0.00126382      -0.00605743
B        3.61129079       6.29138457       5.03819203       0.00717637       0.00011530      -0.00822097
C        2.42875614       8.40456452       3.79343961       0.00878986      -0.00447643      -0.00722228
C        9.84323969      -0.07962658       3.75279575       0.00600753      -0.00301098      -0.00815269
C        8.63664307       2.06409727       3.75421341      -0.00387183       0.00643641       0.00597615
C        7.39252247       4.18966739       3.92115675      -0.00073367      -0.00397811      -0.00037439
C        6.08734409       6.28868426       4.13321633       0.00042244      -0.01001200      -0.00671962
C        4.84350847       8.44635745       4.01303214      -0.00433712       0.00085409       0.00478812
C       -0.00181871       1.37047752       3.64648960       0.00289684       0.00173066       0.01222260
C       -1.23842277       3.52887933       3.53183665       0.00839330      -0.00636113       0.00166037
C       -2.52141054       5.64017984       3.72557653      -0.00194631       0.00360413       0.00560704
C       -3.76645407       7.76250710       3.89948177       0.00743717       0.00482327      -0.00199045
C       -4.97661394       9.89801840       3.88691722       0.00123810       0.00499245      -0.00152106
C        2.47848441       1.37554300       3.80775607       0.00109898      -0.00297906       0.00627634
S        1.22011921       3.40652494       2.29535884      -0.00536151       0.00247990      -0.00085949
C       -0.10048637       5.72625626       3.33270076       0.00333028       0.00451006       0.00925494
C       -1.29798883       7.78625127       3.72817281       0.00324736      -0.00222029      -0.00463907
C       -2.50474684       9.90996978       3.88273924      -0.01083485       0.00602475      -0.01201961
C        4.93447270       1.34417850       3.91759343      -0.00522667      -0.00567559      -0.01120835
O        3.78373497       3.38248848       4.30002878      -0.00573204      -0.00553842       0.00033704
C        1.14320249       7.76636833       3.58269161       0.00719297       0.00367315      -0.00028750
C       -0.02354523       9.89782508       3.79793111      -0.00735706      -0.00803839       0.00855547
C        7.39940385       1.34346640       3.81115281      -0.01191812       0.00368809      -0.00705161
C        6.17431454       3.46070279       4.00741867      -0.00991122       0.00317986      -0.00321402
C        4.90970271       5.53624582       4.36915345       0.00353630      -0.00305408      -0.00952063
C        3.61695094       7.76163508       4.14451640      -0.00198483      -0.00280610       0.00494254
C        2.44119447       9.86702163       3.74628943       0.00361497      -0.00190697      -0.00111102
C        9.87268980       1.36299820       3.69301008      -0.00535465      -0.00328694       0.00611829
C        8.63049506       3.48789506       3.78504162       0.00862953       0.00829880       0.00803836
C        7.34912712       5.61035375       3.96896547       0.00460209      -0.00941314       0.00532805
C        6.09124837       7.73255763       4.05305591      -0.00000063      -0.00105642       0.00921465
C        4.89485191       9.89036461       3.84039085       0.00974805       0.00281730       0.00186117
Ni       1.94850560       4.11313859       4.20672271      -0.00126252      -0.00737200       0.00108789
O        2.41129914       5.62926020       5.06542730      -0.00155166       0.00756791       0.00009343
O        4.16529207       6.74774702       6.31419038       0.00098915       0.00133967       0.00901593
H        3.45681712       6.63438363       6.96248168       0.00448820       0.00259400       0.00007887
