53
Lattice="12.336457 0.0 0.0 -6.168228499999997 10.683685154694365 0.0 0.0 0.0 15.0" Properties=species:S:1:pos:R:3:forces:R:3 energy=-456.56671809150976 free_energy=-456.56671809150976 stress="-0.0042943373546186865 0.001181454211412088 -1.2596116321997941e-06 0.001181454211412088 -0.0060709626475367595 1.1459100230513081e-07 -1.2596116321997941e-06 1.1459100230513081e-07 -1.0541046196036657e-05" pbc="T T T"
C       -0.04309801      -0.00332280       3.67051383      -0.00073424      -0.00412151      -0.00640366
C       -1.27678078       2.13816819       3.75030557      -0.00375110      -0.00860068       0.00967737
C       -2.50656717       4.27851875       3.75629186       0.00116968      -0.00001434      -0.00649881
C       -3.73890801       6.41099323       3.67885525      -0.00205770       0.00846282       0.00601301
C       -4.98328302       8.54318188       3.60982674      -0.00263900       0.00130032       0.00180194
C        2.42495099      -0.00556235       3.68615623      -0.00219530       0.00641067       0.00447701
C        1.18693914       2.11647402       3.77552111      -0.00266113       0.00842716       0.00005753
C       -0.05121259       4.27562831       3.84330361       0.00467441      -0.00093343      -0.00241289
C       -1.26907020       6.42183520       3.76155438       0.00327085      -0.00736471      -0.00381906
C       -2.51373460       8.54729446       3.68062969       0.00896601       0.00397206      -0.00179195
C        4.89641340      -0.00825036       3.61419376       0.00505421      -0.00817779      -0.00339004
C        3.67067225       2.11671561       3.61535955      -0.00297084      -0.00025756       0.00062865
B        2.43047849       4.25378161       3.75172842       0.00806734      -0.00739357       0.01021702
C        1.18914211       6.44858931       3.72268049      -0.00547279       0.00958348      -0.00221348
C       -0.04856044       8.54820896       3.58632437      -0.00408894       0.00294642       0.00179184
C        7.35855693       0.00273724       3.54067587       0.01191687      -0.00417171       0.00040769
C        6.13987365       2.12242018       3.56052645      -0.00558988       0.00202762      -0.00115428
C        4.92894710       4.24005011       3.37131651      -0.00443456       0.00270090       0.01342508
S        3.91321502       6.51906952       1.86570881       0.00304182      -0.00614696      -0.01656099
C        2.41868563       8.58017774       3.27630097      -0.00355754       0.00235447       0.00220516
C        9.82986033       0.01222712       3.54486242      -0.00029258      -0.00040022      -0.00111274
C        8.59997647       2.14013755       3.64131378      -0.00127253      -0.00215458      -0.00269188
C        7.37825938       4.27147257       3.58430861       0.00292787      -0.00381355       0.00115825
C        6.13532148       6.41629233       3.43450333      -0.00029739      -0.00828633      -0.00790200
C        4.90595009       8.56706978       3.35922726      -0.00099813       0.00778282       0.00112743
C       -0.04760368       1.41427318       3.75115132       0.00092980      -0.00331124       0.00071329
C       -1.28113418       3.56449825       3.80483902       0.00332270      -0.00364051       0.00155535
C       -2.50082372       5.70507024       3.75024037      -0.00233331       0.00006934      -0.00945417
C       -3.74564711       7.83321648       3.66665371       0.00584234       0.01010430       0.00742299
C       -4.97981036       9.96716244       3.66541283       0.00037547      -0.00100289      -0.00241512
C        2.42747441       1.41638316       3.70191015      -0.00525391       0.00634279       0.00146795
C        1.14744293       3.53490668       3.82860424       0.00792349       0.00743082      -0.00355905
C       -0.00859243       5.71536227       3.80455351       0.00416912      -0.00310279       0.00257707
C       -1.27485348       7.83692166       3.68541554       0.00319494      -0.00549595      -0.00415819
C       -2.50899059       9.96669762       3.65963234       0.00052827       0.00371718       0.00259641
C        4.90662114       1.40809451       3.58889617      -0.00437735      -0.00435816      -0.00495040
C        3.71407762       3.52823890       3.53656198      -0.00114732      -0.00159422       0.00658673
C        1.19155324       7.83063147       3.49891338      -0.01036398       0.00463442      -0.00456635
C       -0.04013897       9.96833100       3.56854820       0.00886277      -0.00198258       0.00285304
C        7.36839056       1.42047024       3.58656544      -0.00026397      -0.00107375      -0.00220854
C        6.15822515       3.54653356       3.49495912      -0.00468273       0.00477264       0.00333699
C        4.91880165       5.67638752       3.18549318      -0.00738516      -0.00449358       0.00243024
C        3.67270379       7.93168731       2.99851760      -0.00171352       0.01344302       0.00727018
C        2.42715712       9.98861805       3.44914262       0.00732788      -0.00219716       0.00165348
C        9.83017305       1.43033982       3.65778553      -0.00618352      -0.00431338       0.00483350
C        8.60415926       3.56314154       3.67402264       0.00007385      -0.00262929      -0.00145400
C        7.36460536       5.69833825       3.58886495       0.00133002      -0.00429625       0.00145171
C        6.12056493       7.83442499       3.45186416      -0.00292059      -0.00402333      -0.01410042
C        4.89211795       9.97831484       3.54600451      -0.00196125       0.00710648      -0.00274828
Ni       3.00473504       6.06381393       3.71102684      -0.00135657      -0.00418617       0.00530389
O        2.86869634       5.49515355       9.54400211       0.00517436       0.00230639       0.00524429
O        3.51712327       5.99194395      10.62589142       0.00413114      -0.00139388      -0.00425100
H        4.47404564       5.97851983      10.39944633      -0.00931832      -0.00096407      -0.00046778
