52
Lattice="12.336457 0.0 0.0 -6.168228499999997 10.683685154694365 0.0 0.0 0.0 15.0" Properties=species:S:1:pos:R:3:initial_magmoms:R:1:forces:R:3 energy=-455.06825209362285 free_energy=-455.06825209362285 stress="-0.004940724755841361 -0.004872896259141763 4.096519939656511e-05 -0.004872896259141763 0.0006373740687895713 4.413362833408149e-05 4.096519939656511e-05 4.413362833408149e-05 1.9339033848546842e-05" pbc="T T T"
C        0.00047255      -0.00015275       3.61242979       0.00000000      -0.00560967      -0.00245876       0.00587838
C       -1.27250674       2.10347595       3.59270480       0.00000000       0.00570923      -0.00724309       0.00041962
C       -2.51382890       4.25257736       3.59071843       0.00000000      -0.00094691       0.01378645      -0.00755312
C       -3.69912091       6.40698039       3.60750367       0.00000000      -0.00678565       0.00267537       0.01102131
C       -4.91057436       8.55876054       3.62906531       0.00000000       0.00777241       0.00073953      -0.00700424
C        2.47704542       0.01744962       3.63496185       0.00000000      -0.00186374      -0.00213499       0.00165896
C        1.21178476       2.13919587       3.63121938       0.00000000       0.00777031       0.00842148       0.00302143
C       -0.08170632       4.22391043       3.62395758       0.00000000      -0.01223464      -0.00328255       0.00502117
C       -1.24053378       6.38679451       3.61494092       0.00000000       0.00484071       0.00415334       0.00204376
C       -2.44576475       8.54385811       3.62763164       0.00000000      -0.00174463      -0.00635859      -0.00995879
C        4.93795805       0.00044297       3.66588584       0.00000000       0.01394362       0.00632894       0.00870342
C        3.68326437       2.18255343       3.69632285       0.00000000      -0.00311839       0.00407575      -0.00200107
B        2.36649770       4.43964672       3.77702840       0.00000000      -0.00942013      -0.00763382       0.00053253
B        1.32774205       6.23827575       3.76490056       0.00000000      -0.00259111      -0.00968537      -0.01127324
C        0.03230403       8.50628873       3.67851631       0.00000000      -0.00270609      -0.00323528       0.00478067
C        7.39617067      -0.02142049       3.67893428       0.00000000       0.00980539      -0.00257799      -0.00195885
C        6.14819393       2.14044564       3.68873502       0.00000000       0.00317137       0.00317749       0.00300372
C        4.91422704       4.31158830       3.78794070       0.00000000       0.00398051      -0.01416943      -0.00516285
N        3.84032690       6.49123051       4.15555877       0.00000000       0.00572524       0.00465558      -0.00620980
C        2.49144233       8.50840534       3.76943079       0.00000000      -0.01076855       0.00662060      -0.00154819
C        9.85799539      -0.02475919       3.65018285       0.00000000       0.00300105       0.00233099       0.00810721
C        8.60648147       2.11749419       3.63232336       0.00000000      -0.01031295       0.00133785       0.00161413
C        7.37645129       4.27256809       3.66044306       0.00000000       0.00411794       0.01127230       0.00144880
C        6.18787738       6.43307103       3.70677015       0.00000000      -0.00143388       0.00090255      -0.00631357
C        4.96561042       8.54955214       3.69834593       0.00000000       0.00911694      -0.00289809       0.00051315
C       -0.02269306       1.41276989       3.60160240       0.00000000       0.01202547      -0.00128855       0.00929721
C       -1.30303292       3.51879482       3.58449785       0.00000000      -0.00762014      -0.00435106      -0.00349401
C       -2.48698162       5.68045211       3.59272426       0.00000000       0.00028956       0.01547522       0.01186037
C       -3.68177349       7.83662545       3.61581513       0.00000000      -0.00157142      -0.00524697       0.00214861
C       -4.92127223       9.98396115       3.62189785       0.00000000      -0.00602351      -0.00052177      -0.01039130
C        2.46300347       1.44552559       3.65655017       0.00000000       0.00152990       0.00177024      -0.00721170
C        1.14916112       3.54252007       3.66097349       0.00000000      -0.00795992       0.00640116      -0.01436455
C       -0.05660135       5.63093965       3.64620706       0.00000000      -0.00260834      -0.00515274       0.00242028
C       -1.21584065       7.81752250       3.64000228       0.00000000      -0.00153106      -0.00098883       0.00399762
C       -2.45833238       9.97490928       3.64205049       0.00000000       0.00788362      -0.00092426       0.00651753
C        4.91867876       1.43734120       3.68714465       0.00000000       0.00210652       0.01080035       0.00236469
C        3.68348405       3.62602015       3.75369962       0.00000000      -0.00529519      -0.00032275      -0.00473316
C        1.28245347       7.78527203       3.73578089       0.00000000      -0.00686619      -0.00543945      -0.00300107
C        0.00436291       9.94886787       3.67624835       0.00000000       0.01342385      -0.00249093       0.00784891
C        7.37997503       1.41026139       3.66502107       0.00000000      -0.00546446      -0.00553968       0.00189173
C        6.14259598       3.57393590       3.71199327       0.00000000       0.01142231      -0.00026279      -0.00840419
C        4.95396458       5.75159847       3.86079782       0.00000000       0.00241074      -0.01007767       0.00104663
C        3.75772867       7.82265828       3.84893654       0.00000000      -0.00281067       0.00942866       0.00079661
C        2.46694823       9.94068024       3.69487158       0.00000000       0.00514221       0.00582087       0.00557620
C        9.83816476       1.39565108       3.61753725       0.00000000      -0.00307199       0.00092803      -0.00770820
C        8.59673787       3.54485912       3.62014520       0.00000000      -0.00028372       0.00949104      -0.00180625
C        7.40019483       5.69987116       3.64766134       0.00000000      -0.00531770       0.00731825       0.00448897
C        6.19575404       7.84872726       3.67471826       0.00000000       0.01330254       0.00068828       0.00092649
C        4.93761586       9.96581447       3.64188217       0.00000000      -0.00247623      -0.00548179       0.00359252
Ni       2.45968810       5.70845936       5.31160917       0.00000000       0.00041646      -0.01333219       0.00838523
O        2.39448092       5.53924618       8.17758984       1.00000000      -0.01201436      -0.00869247      -0.00746879
O        2.99217234       6.03243481       7.15613865       1.00000000      -0.00845664      -0.00680844      -0.00336097
