51
Lattice="12.336457 0.0 0.0 -6.168228499999997 10.683685154694365 0.0 0.0 0.0 15.0" Properties=species:S:1:pos:R:3:initial_magmoms:R:1:forces:R:3 energy=-445.194461611782 free_energy=-445.194461611782 stress="0.007989302773358048 -0.00040620071276044003 0.00012340890403442637 -0.00040620071276044003 -0.0014940834117826035 -1.0718635257151288e-05 0.00012340890403442637 -1.0718635257151288e-05 -5.0093200096254713e-05" pbc="T T T"
C       -0.02740080       0.00806532       3.59874082       0.00000000       0.03143109      -0.00792734       0.04938323
C       -1.24412025       2.17684436       3.62612422       0.00000000       0.04775516      -0.08373410       0.04262761
C       -2.47586515       4.29620278       3.62887976       0.00000000       0.00860478      -0.03592124       0.06198040
C       -3.73061797       6.41442278       3.62755103       0.00000000      -0.01728040       0.00256753       0.02179218
C       -4.96488988       8.53821665       3.61582174       0.00000000       0.00675226       0.05258052       0.02220258
C        2.43744526      -0.04368043       3.64634440       0.00000000       0.00433680       0.00728265      -0.00004755
C        1.23868405       2.10863952       3.66561721       0.00000000      -0.00586470       0.00959781       0.00605576
C        0.06228574       4.32849755       3.77212451       0.00000000       0.02039543       0.01631474       0.00092969
C       -1.24592494       6.41998712       3.79819553       0.00000000      -0.00096769      -0.00124908       0.07895271
C       -2.48598056       8.54080186       3.73904353       0.00000000       0.02610743      -0.03667562      -0.02713827
C        4.90559964       0.01332849       3.74075709       0.00000000      -0.05103651       0.00093550       0.00865431
C        3.63864568       2.10319697       3.72749702       0.00000000      -0.00567320       0.00900415       0.03797580
C        1.11581495       6.50541150       4.50569975       0.00000000       0.03162365      -0.00622356      -0.02198565
C       -0.01638219       8.57314097       3.86747052       0.00000000       0.03079081      -0.01889631      -0.02248000
C        7.37406440       0.03543954       3.75138642       0.00000000      -0.02704717       0.00419861       0.01122686
C        6.10280844       2.17604572       3.64741720       0.00000000       0.02366285       0.02658201      -0.04893803
C        4.79039788       4.32509400       3.47698057       0.00000000       0.00051717       0.02487214       0.04385957
N        3.70201863       6.47892077       3.51056110       0.00000000      -0.02957330       0.00685062      -0.08142011
C        2.43966578       8.55855159       3.81772415       0.00000000      -0.04507601      -0.00241485      -0.03893501
C        9.84402172       0.02666348       3.66569146       0.00000000      -0.01374176       0.07681568      -0.00822690
C        8.60136745       2.17017715       3.64657565       0.00000000      -0.00723648       0.01926298      -0.01154195
C        7.33457804       4.29356843       3.55710032       0.00000000       0.01964660      -0.03275212       0.00395827
C        6.12181537       6.42989665       3.54895489       0.00000000       0.00526120      -0.02984202      -0.01995366
C        4.90815496       8.55995197       3.63777201       0.00000000      -0.03189271       0.02504786      -0.00250211
C       -0.01308491       1.44759214       3.61771778       0.00000000       0.03415997      -0.06120913       0.04336621
C       -1.20119060       3.60678241       3.66141260       0.00000000       0.03186311      -0.07015882       0.00983117
C       -2.48818079       5.71057100       3.66730030       0.00000000      -0.02012887      -0.01431105      -0.00118842
C       -3.72491271       7.83040896       3.65573119       0.00000000      -0.00579774       0.02037876       0.02775849
C       -4.97418388       9.95437305       3.61185025       0.00000000       0.02131141       0.04092497       0.03762565
C        2.42910607       1.35837864       3.66021024       0.00000000      -0.01083341      -0.00979661       0.04943729
B        1.48559581       3.62319424       3.75032780       0.00000000       0.07951904      -0.00543333       0.07523733
C       -0.01823853       5.71769277       3.93985434       0.00000000       0.03871147       0.02576336      -0.01029760
C       -1.25221266       7.84204305       3.82986652       0.00000000       0.05883372      -0.00733038      -0.02679076
C       -2.48603767       9.95801504       3.72268255       0.00000000      -0.02859444      -0.04313677      -0.03376717
C        4.89023198       1.44136230       3.69532653       0.00000000       0.00968848       0.01096071      -0.02243586
B        3.36762362       3.62524151       3.47730131       0.00000000       0.01979194       0.09699120       0.02259735
C        1.21016869       7.89244156       3.96949556       0.00000000      -0.00124579      -0.12333840      -0.03098380
C       -0.02440102      10.00352372       3.78153009       0.00000000      -0.03492044       0.00478861       0.00007290
C        7.35636820       1.46791340       3.69480075       0.00000000       0.01420412       0.00417034      -0.09311472
C        6.04978561       3.60849983       3.52620309       0.00000000       0.01148145       0.01533205       0.05208708
C        4.83823275       5.76587818       3.47990540       0.00000000      -0.01113913      -0.01597068       0.04641221
C        3.68633953       7.81158576       3.67415900       0.00000000      -0.06210728       0.02679386      -0.04055595
C        2.44410917       9.98937280       3.74397029       0.00000000      -0.02073232       0.01586955      -0.02956438
C        9.84839930       1.46022494       3.64437248       0.00000000      -0.00860215       0.04234660      -0.02059502
C        8.59555411       3.59281284       3.60190459       0.00000000       0.00424130      -0.01229378      -0.00100257
C        7.35272376       5.71252126       3.57453152       0.00000000       0.03007869      -0.04585149      -0.05478185
C        6.13417242       7.83997826       3.60075659       0.00000000      -0.00188954      -0.00391404      -0.02113604
C        4.90586192       9.98528933       3.62385334       0.00000000      -0.00350860       0.05615570       0.07984253
Ni       3.17451466       3.44231225       5.44235774       0.00000000      -0.10913617       0.03304902      -0.75140603
O        1.78308213       6.13505343       5.47737699       1.00000000      -0.08291826      -0.04514358       0.03267866
O        4.05037955       4.57509414       6.25034325       1.00000000       0.02617414       0.03808676       0.55424358
