51
Lattice="12.336457 0.0 0.0 -6.168228499999997 10.683685154694365 0.0 0.0 0.0 15.0" Properties=species:S:1:pos:R:3:initial_magmoms:R:1:forces:R:3 energy=-443.2709739028183 free_energy=-443.2709739028183 stress="-0.0049287675130265714 4.7475465227186834e-05 1.1143660806345437e-05 4.7475465227186834e-05 0.0011300750523760682 -6.973957349373924e-06 1.1143660806345437e-05 -6.973957349373924e-06 8.280971739108568e-06" pbc="T T T"
C       -0.08577286       0.03155828       3.68372915       0.00000000      -0.00119097       0.00082008       0.01228546
C       -1.33061457       2.14141588       3.75168495       0.00000000       0.00946225      -0.00065728      -0.00208416
C       -2.55972137       4.28159915       3.83015033       0.00000000       0.00024150       0.01200842      -0.00269421
C       -3.77961692       6.42783044       3.79497398       0.00000000      -0.00308194      -0.00891505       0.00371789
C       -5.02039577       8.57372563       3.72497529       0.00000000      -0.00823042      -0.00590623      -0.00512300
C        2.37321358       0.04164427       3.67006296       0.00000000       0.00143062       0.00714357      -0.00259410
C        1.12407353       2.21420200       3.56564838       0.00000000      -0.00330483      -0.00695930       0.00769866
C       -0.11557695       4.26689623       3.75303815       0.00000000       0.00221402      -0.00773096       0.01425062
C       -1.33019403       6.42692372       3.86017837       0.00000000      -0.00180897       0.01324942      -0.01081136
C       -2.55778714       8.56922267       3.79890023       0.00000000      -0.00494539       0.00198879      -0.00801172
C        4.84600493       0.00402643       3.61912188       0.00000000       0.01113047      -0.00210495      -0.00024329
C        3.60412718       2.08720279       3.20955947       0.00000000       0.00032034      -0.00345480       0.00428750
N        1.07349084       6.39294763       3.63262343       0.00000000      -0.00642008      -0.00562233      -0.00634100
C       -0.08861496       8.52569078       3.72539745       0.00000000      -0.00445241       0.00350886      -0.00297878
C        7.30848221      -0.01176291       3.64430698       0.00000000      -0.00422083      -0.00252051      -0.01072721
C        6.09116233       2.12986498       3.42197779       0.00000000      -0.00585431      -0.00554359      -0.00684453
C        5.00402538       4.30684576       3.02561514       0.00000000       0.01192111      -0.00321206       0.00627435
B        3.66136327       6.41416206       3.22749835       0.00000000       0.00116910      -0.00213196      -0.01093880
C        2.36011137       8.52359128       3.58400017       0.00000000       0.00541848       0.00465466       0.00371817
C        9.77208499      -0.00497300       3.67532478       0.00000000       0.00364273      -0.00319893       0.00688807
C        8.54286989       2.13468715       3.69287670       0.00000000       0.00465381      -0.00447540       0.00082887
C        7.34525503       4.28212060       3.59944672       0.00000000      -0.00744709       0.00200147      -0.00033599
C        6.12706654       6.43371369       3.52172853       0.00000000      -0.00429108       0.00371243       0.00030224
C        4.85325470       8.56533683       3.57573020       0.00000000       0.00047204       0.00584701       0.00804836
C       -0.08658281       1.46476148       3.68131491       0.00000000       0.00193478       0.00200104      -0.00279048
C       -1.33668654       3.55930678       3.81117036       0.00000000       0.00005031       0.00358577       0.00307723
C       -2.55678204       5.70690424       3.85710172       0.00000000       0.00607795       0.00380799      -0.00664199
C       -3.78794939       7.85770962       3.79199952       0.00000000      -0.00615440      -0.00492153      -0.00698432
C       -5.02254361      10.00357749       3.71120156       0.00000000      -0.00138718       0.00233170      -0.00198692
C        2.36661322       1.47214845       3.49769153       0.00000000      -0.00374309       0.00332684       0.00245301
N        1.06423323       3.59092879       3.57254682       0.00000000       0.01083128       0.00402857      -0.00258741
C       -0.11205480       5.71642827       3.78189495       0.00000000      -0.00542722       0.00446010       0.00250325
C       -1.32515156       7.84702676       3.81415167       0.00000000      -0.00370230       0.01054774      -0.00451928
C       -2.56181451       9.99825347       3.70591958       0.00000000       0.00763735       0.00443294       0.00103305
C        4.84841061       1.42584856       3.41375948       0.00000000      -0.00209747      -0.00879537       0.00703006
S        3.60053694       3.58478404       2.31093925       0.00000000       0.00529254       0.00281080       0.00652504
C        1.12685313       7.77507784       3.63885012       0.00000000      -0.00501711       0.00965596       0.01328308
C       -0.08802218       9.95749426       3.66731515       0.00000000       0.00329758      -0.00880475       0.00472082
C        7.30761254       1.42050249       3.59978944       0.00000000      -0.00209281      -0.00183860      -0.00878109
C        6.13613297       3.55257895       3.34487239       0.00000000       0.00160429      -0.00141653      -0.00256498
C        4.95435167       5.69580273       3.23292921       0.00000000       0.00636104       0.00084366      -0.00964017
C        3.60684577       7.87280037       3.47314511       0.00000000       0.00375299       0.00563132      -0.00167991
C        2.36615625       9.95429126       3.64969651       0.00000000      -0.00306669      -0.00106772       0.00332276
C        9.77320474       1.42116632       3.72655270       0.00000000       0.00859997      -0.00584636      -0.00706359
C        8.55442551       3.56149052       3.73226420       0.00000000      -0.00558758       0.00322777      -0.00385036
C        7.34466891       5.71028918       3.65450382       0.00000000      -0.00739644      -0.00600307       0.00890377
C        6.09100277       7.85752010       3.61551770       0.00000000      -0.00622129      -0.00429264      -0.00038297
C        4.84936987       9.98981305       3.65764635       0.00000000       0.00220913      -0.00029963       0.01040682
Ni       2.28479662       5.03533571       3.25171114       0.00000000      -0.00257563      -0.00989881      -0.00241346
O        4.09282970       4.82140571       8.97854536       1.00000000       0.00580308      -0.00237478       0.00688815
O        4.86760150       4.50591895       9.88951985       1.00000000      -0.00581125       0.00236621      -0.00683214
