52
Lattice="12.336457 0.0 0.0 -6.168228499999997 10.683685154694365 0.0 0.0 0.0 15.0" Properties=species:S:1:pos:R:3:forces:R:3 energy=-449.9692197618537 free_energy=-449.9692197618537 stress="-0.00670492657011721 -0.0010597897297872248 2.3811719818750015e-05 -0.0010597897297872248 -0.003019883413673069 -1.332268538119457e-05 2.3811719818750015e-05 -1.332268538119457e-05 -1.0199659236037377e-05" pbc="T T T"
C        0.09682251       0.11498173       3.65769137       0.00021164       0.00204300       0.00166925
C       -1.14186684       2.22759187       3.66874426      -0.01115425       0.01060030      -0.00098668
C       -2.36999457       4.37387558       3.76902147      -0.00281534       0.00453113      -0.00310184
C       -3.59176394       6.52332386       3.78662422       0.00268131       0.00045931       0.00548273
C       -4.82453166       8.66949312       3.72627806       0.00632716      -0.01014897       0.00712979
C        2.55821578       0.12291624       3.72614481       0.00455578      -0.01023840       0.01019935
C        1.31280277       2.28879587       3.64768019       0.00910087      -0.00272138      -0.00255015
C        0.07014173       4.33247434       3.71549390      -0.00055614      -0.00501476       0.01033281
C       -1.13766642       6.50949820       3.82314740       0.00452150       0.00618920      -0.01353386
C       -2.36541133       8.66101767       3.80830896      -0.00019634       0.01245691      -0.01111691
C        5.03254108       0.10932236       3.83385886       0.00305260      -0.00269248       0.00393331
C        3.78358536       2.21543694       3.82784412       0.00970866       0.00384124       0.00247510
B        1.33939618       6.50927447       3.85056083      -0.00047596      -0.00594033       0.01321268
C        0.09259982       8.66329392       3.85511105      -0.00644187      -0.00019065      -0.00108082
C        7.50409029       0.10527334       3.82118394      -0.01056061       0.00682490       0.00185253
C        6.27054849       2.24283172       3.84732159      -0.00364708      -0.00321578      -0.00894866
C        5.10992051       4.41668741       3.83027564       0.00824681       0.00534528       0.00518868
C        3.80801588       6.47151155       3.70793876      -0.00293017      -0.00792386      -0.00163458
C        2.57328324       8.65471814       3.78315372       0.00200741       0.00005912       0.00009843
C        9.96922403       0.09698686       3.73146033      -0.00243058       0.00215746      -0.01282411
C        8.73603985       2.23739027       3.77674545      -0.00140533      -0.00558981       0.00670978
C        7.52584920       4.38746012       3.80463288       0.00178953      -0.00639185      -0.00069771
C        6.29724281       6.54408870       3.75612901      -0.00677110       0.00354831       0.00620867
C        5.03651968       8.63904904       3.70817788       0.00244671      -0.00322881       0.00770988
C        0.09470110       1.54211992       3.63565191      -0.00411896       0.01073924       0.01148989
C       -1.15238345       3.63958878       3.71271104      -0.00700900       0.00814301       0.00306444
C       -2.37228896       5.79968344       3.80133692       0.00707351       0.00490074      -0.01738942
C       -3.59698575       7.95197003       3.77404608       0.00957606      -0.00010309       0.00064250
C       -4.83465639      10.09006785       3.69320213       0.00311396      -0.01116245       0.00285104
C        2.54409685       1.55124996       3.71890192       0.01424160      -0.00667638       0.00031441
N        1.26196358       3.65998429       3.63709060       0.00500096       0.00211711      -0.00663373
C        0.06268596       5.75893482       3.79976582       0.00189105      -0.00384996      -0.01765895
C       -1.13354001       7.94275928       3.83983682      -0.00692107       0.00877034       0.00591836
C       -2.37300963      10.08872745       3.79644847       0.00618578       0.00438780      -0.01587808
C        5.03463460       1.53210677       3.84491670       0.00384860      -0.00714788       0.01180785
B        3.84458004       3.67715774       3.88649829      -0.00094668       0.01108251       0.00240918
C        1.33844292       7.98436047       3.85026322      -0.00018186      -0.00030663       0.00426632
C        0.09691575      10.08548722       3.84516708      -0.00534863      -0.00231690      -0.00185438
C        7.50239507       1.52856656       3.81949030      -0.00562238       0.00375844       0.00124901
C        6.29648027       3.67094427       3.83609291       0.00067550      -0.00410700       0.00216885
C        5.05940801       5.83560242       3.76609845      -0.00101356       0.00092816      -0.01512495
C        3.79235029       7.88502000       3.72709532       0.00195343      -0.00945587      -0.01192144
C        2.57158023      10.07490809       3.78259244      -0.00687198       0.00755115      -0.01085980
C        9.96371796       1.51930077       3.72148295      -0.00415945       0.00131626       0.00514837
C        8.73985378       3.66437903       3.78395747       0.00333212      -0.00822108       0.00762707
C        7.51856157       5.81476628       3.77994757      -0.00593661      -0.00010462       0.01617924
C        6.27991243       7.95662296       3.72183423       0.00154386      -0.00000697      -0.00191106
C        5.03314488      10.06445453       3.69545753      -0.00095285      -0.00175193      -0.01590608
Ni       2.53057309       5.04236169       3.53623320       0.00066400      -0.01157047       0.00653392
O        0.94465602       2.23886982       6.24439986       0.00205037       0.00503480       0.00386464
O        0.72062490       3.48381850       6.71256490      -0.01761772       0.00409715       0.00292326
H        1.46788406       3.67527715       7.32403737       0.00028477      -0.00080460       0.00095189
