51
Lattice="12.336457 0.0 0.0 -6.168228499999997 10.683685154694365 0.0 0.0 0.0 15.0" Properties=species:S:1:pos:R:3:initial_magmoms:R:1:forces:R:3 energy=-437.8396542370786 free_energy=-437.8396542370786 stress="-0.0008561212563177578 0.00025784253716575815 -3.666891186333054e-06 0.00025784253716575815 0.0011669237670211966 2.611356882283302e-05 -3.666891186333054e-06 2.611356882283302e-05 -1.2592964056748491e-05" pbc="T T T"
C        0.01179104      -0.03305937       3.75109835       0.00000000      -0.00403534      -0.00600998       0.00041671
C       -1.23373448       2.09113114       3.86863861       0.00000000       0.00367348      -0.00484660      -0.00151572
C       -2.46822555       4.23485892       3.84125417       0.00000000      -0.00647035       0.00243573       0.01853722
C       -3.69252848       6.37207192       3.72334679       0.00000000       0.00038858       0.00807616       0.00530073
C       -4.93514047       8.50764721       3.64651858       0.00000000      -0.00400748       0.00549272      -0.00760725
C        2.47329022       0.00878954       3.75654600       0.00000000      -0.00907286       0.00384133      -0.00206429
C        1.21030159       2.09763540       3.85504155       0.00000000       0.00047824      -0.00931007      -0.00370909
C       -0.05924891       4.20855778       4.08235326       0.00000000      -0.01032317       0.00457861       0.00851898
C       -1.22938412       6.35371893       4.00535652       0.00000000      -0.00042253      -0.00387122       0.00180109
C       -2.46180654       8.51091908       3.83735418       0.00000000       0.00281393       0.00366039       0.00430759
C        4.93323835      -0.02992353       3.80157610       0.00000000       0.00274027      -0.00543540      -0.00206225
C        3.73989777       2.09819252       3.63595581       0.00000000       0.00008750       0.00296411       0.00995012
B        1.15992951       6.44602806       4.67992930       0.00000000       0.00463645      -0.00979069       0.00921692
C        0.01540186       8.51115924       3.96380374       0.00000000       0.00475334      -0.00177446       0.00517881
C        7.40558089      -0.03737385       3.82740687       0.00000000       0.00420744       0.01042701      -0.00688823
C        6.18564707       2.08868490       3.67659773       0.00000000      -0.00937596       0.00113594      -0.01192153
C        5.02887300       4.19187231       3.29314049       0.00000000       0.00755306      -0.00141406       0.00942999
S        3.60232002       6.39670964       2.46470434       0.00000000      -0.00572357       0.00685263      -0.00781705
C        2.45926474       8.50428022       3.77002546       0.00000000      -0.00239252      -0.00385867      -0.00027303
C        9.87702615      -0.04286538       3.77822773       0.00000000      -0.00110192      -0.00618765      -0.00678760
C        8.64502039       2.09645041       3.77931738       0.00000000      -0.00354571       0.00346437       0.01001523
C        7.42426055       4.23537553       3.62169360       0.00000000       0.00385573       0.00165234       0.00946276
C        6.17739786       6.35752726       3.40686856       0.00000000       0.00703382      -0.00092954       0.01211909
C        4.93429835       8.50438094       3.53123821       0.00000000       0.00515588       0.00831412       0.00221899
C        0.01277717       1.39819723       3.84095168       0.00000000       0.00307372      -0.01089809      -0.01255164
C       -1.24844959       3.50423507       3.93183369       0.00000000      -0.00519487       0.00183385       0.01662701
C       -2.46494628       5.65377101       3.85082036       0.00000000      -0.00401211       0.00187889       0.00728852
C       -3.69598870       7.79830777       3.73542511       0.00000000       0.00088418       0.00767469      -0.01474906
C       -4.92183202       9.95259984       3.71706819       0.00000000      -0.00786060       0.00085636       0.00720667
C        2.47392025       1.46791330       3.75084088       0.00000000       0.00132688       0.00104301      -0.00754869
O        1.14228778       3.48148603       4.09755448       0.00000000      -0.00074835      -0.01004318      -0.00412814
C       -0.02861626       5.60502227       4.18275097       0.00000000       0.00320310       0.00236230      -0.00797085
C       -1.23227290       7.79220916       3.96470325       0.00000000       0.00553241      -0.00538035      -0.00093309
C       -2.47101524       9.95329680       3.79991221       0.00000000      -0.00436617       0.00425576      -0.01361319
C        4.93636395       1.39963659       3.70565162       0.00000000      -0.00196085      -0.00430331       0.00177380
O        3.82380566       3.46162949       3.31150799       0.00000000      -0.01298297       0.00182036      -0.01069973
C        1.24650680       7.83522121       4.03334596       0.00000000      -0.00037655      -0.00572260       0.00832249
C        0.00098004       9.94407437       3.85501398       0.00000000       0.01043207      -0.00022245      -0.00725063
C        7.40681939       1.38714169       3.76778981       0.00000000      -0.00694944       0.01147077      -0.00929399
C        6.20679994       3.49960803       3.53742002       0.00000000       0.00630138      -0.00213473       0.00662614
C        5.00650709       5.58430291       3.16675398       0.00000000       0.01235106      -0.00846604      -0.00742412
C        3.68401620       7.85027789       3.40936146       0.00000000       0.00470527       0.00974650      -0.00377951
C        2.47270750       9.93741789       3.80301421       0.00000000      -0.00151963      -0.00582500       0.00532327
C        9.88044867       1.38457453       3.81626170       0.00000000      -0.00132140      -0.00334312       0.00290271
C        8.64543380       3.52006048       3.74865905       0.00000000      -0.00107491       0.00119239       0.00600451
C        7.41414037       5.65525972       3.58428560       0.00000000       0.00705947       0.00097702       0.00100708
C        6.17102516       7.78925466       3.49219272       0.00000000       0.00098334       0.00297847      -0.00052708
C        4.94346243       9.93214511       3.71095396       0.00000000      -0.00074697       0.00406604      -0.01630482
Ni       2.43739523       4.88474503       3.69255375       0.00000000      -0.00045561       0.00565300      -0.00116129
O        2.82825279       5.34918292       5.54718907       1.00000000      -0.00391290       0.00173513      -0.01098430
O        1.75722992       6.19356171       5.97198603       1.00000000       0.00672412      -0.01267277       0.01000974
