51
Lattice="12.336457 0.0 0.0 -6.168228499999997 10.683685154694365 0.0 0.0 0.0 15.0" Properties=species:S:1:pos:R:3:initial_magmoms:R:1:forces:R:3 energy=-444.0961551058146 free_energy=-444.0961551058146 stress="4.9359432743144744e-05 0.0014343013382874183 7.611158118037413e-06 0.0014343013382874183 0.004552531490672172 -5.2676162861198045e-06 7.611158118037413e-06 -5.2676162861198045e-06 -1.5063428273644689e-05" pbc="T T T"
C       -0.04987922      -0.06542581       3.64860727       0.00000000      -0.00166728      -0.00737208      -0.00129919
C       -1.27750620       2.07352646       3.45978640       0.00000000      -0.00079524       0.00441530      -0.01242062
C       -2.52716069       4.21544112       3.64529662       0.00000000      -0.00299409       0.00285399       0.00022143
C       -3.76530036       6.34715736       3.81787844       0.00000000       0.00123372      -0.00309970       0.00079940
C       -5.00019910       8.48105465       3.84372212       0.00000000       0.00135659       0.00588081      -0.00460676
C        2.41757466      -0.04308764       3.71690524       0.00000000       0.00286988       0.00746467       0.00224785
C        1.20434968       2.01972515       3.25505655       0.00000000       0.00111929       0.00406446       0.00671346
C       -0.13596526       4.28113120       3.23575364       0.00000000       0.00057244       0.00395837      -0.00510492
C       -1.30571975       6.36736935       3.68725615       0.00000000       0.00396518      -0.00245362       0.00805696
C       -2.52750996       8.49305581       3.80432158       0.00000000      -0.00454863       0.00002622      -0.00027513
C        4.88668950      -0.05930111       3.75770989       0.00000000      -0.00137579       0.00369507      -0.00166725
C        3.67073006       2.13218926       3.67248798       0.00000000      -0.00023767       0.00417447      -0.01374985
N        1.14913397       6.31370332       3.60784747       0.00000000       0.00123741       0.00097907      -0.00377622
C       -0.04424935       8.45241913       3.75222375       0.00000000       0.00429882      -0.00136438       0.01092395
C        7.35925205      -0.08884444       3.72293256       0.00000000       0.00106690       0.00352337       0.00025381
C        6.13049068       2.06077983       3.77821887       0.00000000      -0.00261992      -0.00348208       0.00198962
C        4.90715757       4.17906165       3.93457471       0.00000000      -0.00023672      -0.00996348       0.00969396
B        3.71547132       6.39341080       4.73679155       0.00000000      -0.01407587       0.00942689      -0.00557961
C        2.42440386       8.43117583       3.82259785       0.00000000       0.00679115      -0.00533074       0.00394720
C        9.81772375      -0.07794394       3.67517785       0.00000000       0.00069775      -0.00558869      -0.00864142
C        8.59226864       2.06327547       3.67592701       0.00000000      -0.00083515       0.00184099       0.00461128
C        7.35913823       4.19972124       3.82295682       0.00000000      -0.00002239      -0.00312120       0.00496113
C        6.09971674       6.32189874       3.96144545       0.00000000       0.00581767       0.00415562       0.00547335
C        4.86368290       8.47660845       3.88862568       0.00000000      -0.00085730      -0.01136364       0.00239744
C       -0.04203322       1.36013496       3.44467439       0.00000000      -0.00039506      -0.00324326      -0.01014311
C       -1.29467914       3.50867612       3.44788794       0.00000000      -0.00180301       0.00786384       0.00024469
C       -2.53016825       5.63915503       3.72177662       0.00000000       0.00163102      -0.00064774       0.00168153
C       -3.76206261       7.77481533       3.83504165       0.00000000      -0.00400571      -0.00177959      -0.00873301
C       -4.98634854       9.91496493       3.74350198       0.00000000       0.00385358       0.00424726      -0.00318396
C        2.42948416       1.38996408       3.55960776       0.00000000       0.00321340       0.00586450      -0.00064351
S        1.21575424       3.55556030       2.40786176       0.00000000      -0.00472266      -0.00048783      -0.01030439
C       -0.07535203       5.67825803       3.50088535       0.00000000       0.00428881       0.00169189      -0.00133353
C       -1.29351625       7.77877995       3.76450694       0.00000000      -0.00003091      -0.00098949      -0.00646691
C       -2.52030414       9.92065141       3.77803990       0.00000000      -0.00143309       0.00367445       0.00510370
C        4.88511625       1.37687663       3.74865673       0.00000000      -0.00425846       0.00259429      -0.00165915
N        3.71105304       3.50995738       3.76372657       0.00000000      -0.00514566      -0.00126475       0.01556909
C        1.17351040       7.68836674       3.74728332       0.00000000       0.00785921      -0.00269878       0.00316992
C       -0.04485594       9.88625670       3.75368980       0.00000000       0.00160238       0.00226952       0.00505709
C        7.36156828       1.34247113       3.72697823       0.00000000      -0.00166614       0.00312301      -0.00515339
C        6.13998686       3.47283689       3.85354688       0.00000000       0.00134247      -0.00705542      -0.00282059
C        4.89981833       5.58638214       4.10476645       0.00000000       0.00373901      -0.00229027       0.00317863
C        3.63902322       7.79147851       4.04018783       0.00000000      -0.00001805      -0.01522395       0.00156342
C        2.41819778       9.87670606       3.72392377       0.00000000       0.00098713      -0.00280665       0.00071761
C        9.83168082       1.35793048       3.59926462       0.00000000      -0.00037946      -0.00001208      -0.00796434
C        8.59041242       3.48976789       3.71708222       0.00000000      -0.00162710       0.00073214       0.00167445
C        7.34875208       5.62330878       3.86152381       0.00000000       0.00374307      -0.00225571       0.00975295
C        6.10745439       7.76314578       3.92069283       0.00000000       0.00346210       0.00567253       0.00273363
C        4.88096010       9.90574171       3.72361681       0.00000000      -0.00224451      -0.01355349       0.00166859
Ni       2.51595733       4.93127028       3.50957256       0.00000000      -0.00611379       0.00450050      -0.00066262
O        4.13303129       6.70004059       6.67077464       1.00000000      -0.00759916      -0.00382240       0.00354634
O        3.05122679       6.19496859       6.03512843       1.00000000       0.00495987       0.01257780      -0.00176299
