51
Lattice="12.336457 0.0 0.0 -6.168228499999997 10.683685154694365 0.0 0.0 0.0 15.0" Properties=species:S:1:pos:R:3:initial_magmoms:R:1:forces:R:3 energy=-442.4136923326453 free_energy=-442.4136923326453 stress="0.0011679170904792873 0.0023827947293814018 -1.3434308806266522e-05 0.0023827947293814018 0.0036801314411042635 9.024096465318168e-06 -1.3434308806266522e-05 9.024096465318168e-06 1.562524560111865e-05" pbc="T T T"
C       -0.04936901      -0.00033816       3.80792568       0.00000000       0.00544646       0.00433910      -0.00173729
C       -1.26887210       2.14007007       3.68040931       0.00000000      -0.01462239       0.00564400      -0.00056885
C       -2.48631717       4.26776732       3.63995412       0.00000000      -0.00315002       0.00424408       0.00718456
C       -3.74175949       6.39907652       3.73191943       0.00000000       0.00720389       0.01097978       0.00446487
C       -4.99620298       8.53818507       3.84230964       0.00000000      -0.00486571      -0.00525834       0.00113335
C        2.41960906       0.02286802       3.79493435       0.00000000       0.00666405      -0.00114131       0.00426036
C        1.19194545       2.18536728       3.63834342       0.00000000      -0.00873375      -0.00168637      -0.00164724
C        0.01482059       4.29323011       3.48587887       0.00000000       0.00002329      -0.01019805       0.00015532
C       -1.26546267       6.41167381       3.61648460       0.00000000       0.00168851      -0.00181182       0.00476477
C       -2.52060686       8.54171847       3.74244933       0.00000000       0.00405353       0.01457344       0.00582257
C        4.88526537      -0.00441838       3.72718630       0.00000000       0.00574180       0.00389794      -0.00456512
C        3.68327603       2.13396821       3.73985426       0.00000000      -0.00168297       0.00153926      -0.00613445
O        1.12653462       6.45470753       3.54046530       0.00000000      -0.00359670       0.00299352       0.01268454
C       -0.05259822       8.53062917       3.71107279       0.00000000      -0.00255757      -0.00639878      -0.00715753
C        7.36041480      -0.02377772       3.71562853       0.00000000      -0.00797522      -0.00732727      -0.00584816
C        6.14047469       2.11545507       3.68860881       0.00000000       0.00572938      -0.00679557       0.00048652
C        4.93132623       4.22281078       3.77130232       0.00000000      -0.00011747       0.00203305       0.00761759
B        3.67221276       6.36167371       4.40321131       0.00000000       0.00420595      -0.00020573       0.00158918
C        2.40142574       8.49686856       3.82034933       0.00000000       0.00817284       0.00360628       0.00092535
C        9.81854289      -0.01789984       3.76705024       0.00000000       0.00177187       0.00022143       0.00473319
C        8.60304403       2.12275277       3.68109678       0.00000000       0.00138078       0.00195522       0.00040353
C        7.37884440       4.25748582       3.70602504       0.00000000      -0.00466940       0.00176602      -0.01493771
C        6.11825806       6.37461410       3.89111113       0.00000000      -0.00052187      -0.00445910      -0.01104354
C        4.85565405       8.52627261       3.93104219       0.00000000       0.00090132      -0.00598970      -0.00065545
C       -0.04197654       1.43003475       3.72949914       0.00000000      -0.01335258       0.00744062      -0.00855562
C       -1.25069469       3.56739014       3.60545971       0.00000000      -0.00697062       0.00237001       0.00640755
C       -2.50130207       5.69028555       3.65357519       0.00000000       0.00255013       0.00333643      -0.00165812
C       -3.75830173       7.82634377       3.77569949       0.00000000       0.00362246       0.01232874      -0.00133550
C       -4.98418509       9.97311716       3.82337465       0.00000000       0.00588834      -0.00415311       0.00763757
C        2.43746432       1.45993239       3.75669772       0.00000000      -0.00487451      -0.00156449      -0.00113039
C        1.18245377       3.54751364       3.35424195       0.00000000       0.00195412      -0.00420227      -0.01052203
C       -0.04311609       5.73195092       3.51634803       0.00000000       0.00152117      -0.00515998      -0.00578475
C       -1.29043800       7.83206151       3.68622333       0.00000000      -0.00393239       0.00020020       0.00420180
C       -2.52225808       9.97836280       3.76388492       0.00000000       0.01026056       0.01054172      -0.00825135
C        4.89580691       1.42155824       3.71619077       0.00000000       0.00287356       0.00066350       0.00706022
O        3.78208306       3.48725971       4.17689518       0.00000000       0.00194950       0.00384102      -0.00386108
C        1.14803125       7.81722939       3.71349766       0.00000000       0.00581087       0.00415428      -0.00345242
C       -0.04537416       9.96134047       3.72228068       0.00000000      -0.00662693      -0.00908325      -0.00177885
C        7.36495787       1.40807804       3.69049242       0.00000000       0.00617744      -0.00685898      -0.00319001
C        6.14955063       3.53350443       3.69293360       0.00000000      -0.00620590      -0.00307148      -0.00642477
C        4.91608806       5.61299332       3.99089115       0.00000000      -0.00259942       0.00412470      -0.00640112
C        3.62309292       7.83095031       4.00406261       0.00000000       0.00378273      -0.00624230       0.00094520
C        2.41498670       9.93688566       3.75611522       0.00000000      -0.00163415       0.00233520       0.00416466
C        9.82891114       1.41270115       3.70656587       0.00000000      -0.00456463       0.00093076       0.00999534
C        8.61220377       3.54864458       3.67024566       0.00000000      -0.00231807       0.00361051       0.00682085
C        7.36446632       5.67899699       3.76700763       0.00000000       0.00535400       0.00372418       0.00488829
C        6.10526782       7.81164647       3.91398153       0.00000000      -0.00452536      -0.00955124       0.01134336
C        4.88146118       9.96237149       3.83412859       0.00000000       0.00521963      -0.00120354       0.00046628
Ni       2.95437698       4.08810463       2.59079379       0.00000000      -0.00527125      -0.00471201       0.00612844
O        3.63965079       5.20170744       6.17652398       1.00000000       0.00415741      -0.01073839      -0.01102193
O        2.72903621       5.81485562       5.37673055       1.00000000       0.00126328       0.00041809       0.00137803
