52
Lattice="12.336457 0.0 0.0 -6.168228499999997 10.683685154694365 0.0 0.0 0.0 15.0" Properties=species:S:1:pos:R:3:forces:R:3 energy=-442.25837480195804 free_energy=-442.25837480195804 stress="-0.004195781107144828 0.002751218613245379 -1.4091865398462992e-06 0.002751218613245379 -0.004552477696814364 -1.482566556046062e-05 -1.4091865398462992e-06 -1.482566556046062e-05 -1.7986438715441617e-06" pbc="T T T"
C        0.11025257      -0.12494795       3.87777970      -0.00129639      -0.00284323       0.00985460
C       -1.10005316       2.04126808       3.96493057       0.00543021       0.00470094      -0.00293764
C       -2.32789665       4.17100090       3.91013189      -0.00618134      -0.00577947       0.00020330
C       -3.58014652       6.29666962       3.77599988       0.00302265       0.00565480       0.00567578
C       -4.83054698       8.42281560       3.74270015      -0.00467878       0.00085721       0.00110262
C        2.57867348      -0.14470492       3.87732903       0.00109946      -0.00391194      -0.01353657
C        1.36945069       1.99056487       3.92618922      -0.00183096       0.00051464      -0.00452966
C        0.13588892       4.24068156       3.98349112       0.00566768      -0.00161755       0.00225799
C       -1.12743720       6.32942691       3.90435679       0.00259750      -0.00149451       0.00561775
C       -2.35799133       8.43166131       3.84336644       0.00248455       0.00585487      -0.00121219
C        5.05504318      -0.11824027       3.87380552      -0.00036802      -0.00463247       0.00470608
C        3.81768211       1.96983218       3.75935364       0.00041859      -0.00345991       0.00891601
O        1.25174001       6.38116402       4.02205072      -0.00848840       0.00627340      -0.00243590
C        0.10321255       8.43790273       3.87596233       0.00111367      -0.00052319       0.00424190
C        7.52620295      -0.11892816       3.92135363      -0.00653561       0.00811909      -0.01706014
C        6.30426110       2.01796754       3.79476840      -0.00636355      -0.00102520       0.00518927
C        5.11790892       4.15707489       3.41363416      -0.00023160      -0.00386571       0.00345139
P        3.77195173       6.32075170       2.37859081       0.01124394       0.00092153      -0.00046529
C        2.56184740       8.41228332       3.74248144       0.00250364      -0.00475397      -0.00209577
C        9.98539444      -0.11656243       3.90154592       0.00002920      -0.00494800      -0.00290640
C        8.76859110       2.02610402       3.91412735       0.00754433      -0.00235948       0.00859552
C        7.55165882       4.15669493       3.72465361      -0.00824244       0.00125014       0.00538286
C        6.32382338       6.30195475       3.45540238      -0.00581056       0.00203614       0.00419927
C        5.03451071       8.42784470       3.60498172       0.00287964       0.00292938      -0.00944811
C        0.12288765       1.30867345       3.94414631      -0.00049309      -0.00062848      -0.00277542
C       -1.08613283       3.47449884       3.97056437       0.00043628       0.00343888      -0.00141977
C       -2.34548294       5.59183889       3.86475008       0.00117020      -0.00389928       0.00506876
C       -3.59443055       7.71802344       3.78760735       0.00091747       0.00918334      -0.00374740
C       -4.82779736       9.84115063       3.84243439      -0.00084616      -0.00227716       0.00055061
C        2.58797970       1.27175704       3.86577171      -0.00095180      -0.00301701       0.00009074
B        1.43559317       3.48762573       3.94253631       0.00256213       0.00328628      -0.00354822
C        0.08113704       5.64835107       3.96493487       0.00290399      -0.00131619       0.00219256
C       -1.13404765       7.74026489       3.86847036       0.00106132      -0.00031467      -0.00299808
C       -2.35183874       9.85209441       3.86791940       0.00216583       0.00043076      -0.00405277
C        5.06612919       1.30162565       3.81280857      -0.00314740      -0.00691516      -0.00123444
B        3.80195409       3.44150115       3.55460502       0.00792573      -0.00340365      -0.00488506
C        1.30997946       7.75064268       3.83363856       0.00035443       0.00053772       0.00160028
C        0.11798953       9.86127584       3.88985265      -0.00250764      -0.00049171      -0.00091964
C        7.53196819       1.31013541       3.89375270       0.00019632       0.00814764      -0.00184081
C        6.31986919       3.43709882       3.65146840      -0.00460046      -0.00259606      -0.00126144
C        5.14651387       5.55943519       3.19962145       0.00089719      -0.00534627       0.00007330
C        3.78995973       7.75885326       3.43154994       0.00709416      -0.00439451       0.00540021
C        2.58045544       9.84559276       3.89266761      -0.00725259      -0.00034351      -0.01419499
C        9.99934157       1.31714298       3.94811434       0.01068627      -0.00306717       0.00148297
C        8.77665742       3.45178497       3.86341143      -0.00739516      -0.00456073      -0.00093151
C        7.54309914       5.57975319       3.65720317      -0.00454821       0.00576532       0.01725950
C        6.28121525       7.72018037       3.57348899      -0.00425264       0.00124422      -0.00797323
C        5.04620296       9.85113681       3.81935635       0.00084010      -0.00205998      -0.00228867
Ni       2.71428794       5.00519333       3.73980813      -0.00245787       0.00894085       0.00329298
O       -0.04732830       7.08159635       6.34460718      -0.01140142      -0.01476041       0.00667381
O        1.22873179       7.08909788       6.76939426       0.00655235       0.01665994      -0.00279802
H        1.33168631       6.23624093       7.24813322       0.00808324       0.00385950       0.00041707
