51
Lattice="12.336457 0.0 0.0 -6.168228499999997 10.683685154694365 0.0 0.0 0.0 15.0" Properties=species:S:1:pos:R:3:initial_magmoms:R:1:forces:R:3 energy=-438.2406806880373 free_energy=-438.2406806880373 stress="-0.004140080860598935 0.0038300321358080524 -1.756904536280659e-05 0.0038300321358080524 -0.005807281411313988 -1.5722179198302006e-05 -1.756904536280659e-05 -1.5722179198302006e-05 1.867755019858808e-05" pbc="T T T"
C        0.02298087      -0.03374895       3.73726050       0.00000000       0.01010339      -0.00807638      -0.00955551
C       -1.17490910       2.13707799       3.80124898       0.00000000      -0.01552695      -0.00319997      -0.00552342
C       -2.40550183       4.25845713       3.77029766       0.00000000      -0.00574356       0.01060868      -0.00422761
C       -3.66971657       6.38154657       3.69734406       0.00000000       0.00063017       0.00785019       0.00790509
C       -4.92412957       8.50798044       3.65975784       0.00000000       0.00320821      -0.00758699      -0.00749591
C        2.48630695      -0.06285504       3.75879031       0.00000000      -0.00086134       0.00044854       0.00982451
C        1.29133791       2.08647728       3.79030488       0.00000000      -0.00364834      -0.00561962      -0.00386258
C        0.07234136       4.33374176       3.82388619       0.00000000      -0.00589612       0.00451390       0.00078635
C       -1.22059942       6.41337831       3.79358573       0.00000000      -0.00501642      -0.00211404       0.00229023
C       -2.45290280       8.51761491       3.78190859       0.00000000       0.00312718      -0.00776801       0.00032243
C        4.96064903      -0.02863489       3.79723499       0.00000000      -0.00622114       0.00124186       0.00333655
C        3.72467659       2.04840925       3.66580598       0.00000000       0.00659563      -0.00000040      -0.01345475
O        1.14949482       6.48845736       3.84763441       0.00000000       0.00970594      -0.01055005      -0.00945160
C        0.00130317       8.54170653       3.81833105       0.00000000       0.00883132      -0.00071220       0.00464085
C        7.43499120      -0.02321322       3.82778953       0.00000000       0.00417940       0.00310741      -0.00677327
C        6.21577150       2.10267189       3.72211464       0.00000000       0.00411364       0.00054509       0.00601970
C        5.02370410       4.23249082       3.45453349       0.00000000      -0.00743088      -0.00270529       0.00528808
P        3.50407575       6.21442348       2.75579977       0.00000000       0.00652533       0.00796779       0.00877960
C        2.46371514       8.51686163       3.67541277       0.00000000      -0.00130316       0.00359158      -0.01103606
C        9.90242687      -0.02143921       3.76915616       0.00000000      -0.00046406      -0.00450183       0.00344680
C        8.68812258       2.11515635       3.78661941       0.00000000      -0.00734256      -0.00240102       0.00465769
C        7.46534354       4.24093333       3.65340471       0.00000000       0.00921744       0.00110999       0.00745542
C        6.23000030       6.38615003       3.44874582       0.00000000       0.00639182       0.00494020      -0.00259043
C        4.93819513       8.50649208       3.54271168       0.00000000      -0.00952724       0.00786424      -0.00372649
C        0.04695814       1.40574078       3.78615598       0.00000000      -0.00761593      -0.00532510       0.00655838
C       -1.15099645       3.57148554       3.80045711       0.00000000      -0.00983050       0.00562224       0.00172793
C       -2.43444456       5.67632067       3.76047802       0.00000000      -0.00866203       0.00809457       0.00501548
C       -3.68708692       7.80375841       3.71315252       0.00000000       0.00331178      -0.00009726      -0.00240510
C       -4.92025861       9.92721048       3.72351024       0.00000000       0.00805444      -0.01135153       0.00545610
C        2.49647619       1.35361971       3.74741826       0.00000000       0.00511044       0.00238085       0.00405107
B        1.40972052       3.59784664       3.87604221       0.00000000      -0.00164743      -0.00371701      -0.00921684
C       -0.00476556       5.73769388       3.79915019       0.00000000      -0.00378275       0.00178772       0.00663512
C       -1.22899317       7.82794177       3.81087274       0.00000000       0.00566410      -0.00492912       0.00027736
C       -2.44447365       9.93650943       3.78205677       0.00000000      -0.00696931      -0.00660862       0.00824507
C        4.97221836       1.38994558       3.72915357       0.00000000       0.00574878       0.00099174      -0.00230639
B        3.67440408       3.53255157       3.50383415       0.00000000      -0.01496669      -0.00599827       0.00715697
C        1.20306807       7.85296036       3.74097698       0.00000000       0.00583596      -0.00475907      -0.01548061
C        0.02385063       9.96060777       3.82998208       0.00000000       0.00068814       0.00556537      -0.00894418
C        7.44714792       1.40104890       3.79272859       0.00000000       0.00013838       0.00013339       0.00431399
C        6.23513355       3.51644071       3.60751578       0.00000000       0.00344881       0.00016894      -0.00277832
C        5.04577063       5.63852132       3.29236810       0.00000000       0.00337285      -0.00112511      -0.00514375
C        3.68639654       7.83389108       3.42802676       0.00000000      -0.00752556       0.00130145      -0.01095951
C        2.49109231       9.94282650       3.78663473       0.00000000       0.00221106       0.00062015       0.00102715
C        9.92240641       1.41165634       3.79997475       0.00000000      -0.01477156      -0.00876485      -0.00445343
C        8.69621322       3.53826986       3.74250010       0.00000000       0.00260322      -0.00052325       0.01942225
C        7.45292786       5.66421408       3.60297171       0.00000000       0.01048592       0.00361054       0.00101458
C        6.18544939       7.80290352       3.52796225       0.00000000      -0.00500902       0.00686333       0.00450431
C        4.95793678       9.94015319       3.69421854       0.00000000       0.00415785       0.00164853       0.00479131
Ni       2.89262880       4.65772910       4.79635665       0.00000000       0.00105002      -0.00202426       0.01081912
O        1.05704524       5.69909225       6.40599949       1.00000000       0.00943115       0.01050515      -0.01114768
O        2.30245416       5.83500900       6.14171976       1.00000000       0.00582015       0.00737584      -0.00523604
