51
Lattice="12.336457 0.0 0.0 -6.168228499999997 10.683685154694365 0.0 0.0 0.0 15.0" Properties=species:S:1:pos:R:3:initial_magmoms:R:1:forces:R:3 energy=-440.26009233175625 free_energy=-440.26009233175625 stress="0.0007553762784967934 -0.003963107891499786 -1.0540736987311797e-05 -0.003963107891499786 0.0010778181682551606 1.750393400164039e-05 -1.0540736987311797e-05 1.750393400164039e-05 2.913176176755568e-06" pbc="T T T"
C       -0.02268300       0.01902743       3.70479128       0.00000000       0.00276580      -0.00108454       0.00200029
C       -1.27549368       2.14588174       3.72281068       0.00000000      -0.00270317      -0.01058041      -0.00964022
C       -2.48504588       4.29016363       3.72643754       0.00000000      -0.00585087       0.00527676      -0.00457753
C       -3.69954101       6.43477931       3.71671066       0.00000000      -0.00190683       0.00484291      -0.00441142
C       -4.94099614       8.57404342       3.69242589       0.00000000       0.00399491       0.00433102      -0.00788293
C        2.44280378       0.04243261       3.71291523       0.00000000      -0.00692936       0.00055194      -0.00041420
C        1.16269174       2.15925186       3.64758617       0.00000000      -0.00397316       0.00787539       0.00390030
C       -0.03369774       4.22686129       3.54311561       0.00000000      -0.00319287      -0.00182945       0.00237066
C       -1.21794652       6.40259674       3.61319964       0.00000000      -0.00094475       0.00602113      -0.00767578
C       -2.46763519       8.56491922       3.69719661       0.00000000      -0.00297798       0.00370830      -0.00192806
C        4.90633126       0.02975583       3.82477993       0.00000000       0.00413843      -0.00433985       0.00902989
C        3.63038978       2.16132271       3.99637537       0.00000000      -0.00301154       0.00137747      -0.00282190
B        1.24638633       6.42353590       3.30704253       0.00000000      -0.00699720       0.01281174       0.01044869
C       -0.00261329       8.56420784       3.70905590       0.00000000      -0.00037522      -0.00236323       0.00051004
C        7.37308171       0.02983566       3.87165949       0.00000000       0.00238355      -0.00302137       0.00220570
C        6.11856507       2.18384198       3.96877434       0.00000000       0.00750135       0.00270711       0.00056263
C        4.93598234       4.37174119       4.03776835       0.00000000       0.00124930       0.00111677       0.00381944
O        3.78035850       6.51099188       4.18314356       0.00000000      -0.00864023       0.00286379       0.00249950
C        2.46496349       8.56112113       3.77817512       0.00000000       0.00110943      -0.00295007      -0.00815890
C        9.84182099       0.01775835       3.80541698       0.00000000      -0.00559793      -0.00352054      -0.00099705
C        8.59668588       2.16435600       3.85664159       0.00000000       0.00031731      -0.00384770      -0.00127545
C        7.38309382       4.31353610       3.85250657       0.00000000       0.00088815      -0.00789731      -0.00600184
C        6.16861335       6.45514614       3.75507214       0.00000000       0.00747431      -0.00031510      -0.00936187
C        4.92426017       8.56851649       3.71262672       0.00000000       0.00358823       0.00261401       0.00089437
C       -0.03587359       1.44560067       3.68161522       0.00000000       0.00378501      -0.00109584       0.00934969
C       -1.26003852       3.55753175       3.67221544       0.00000000      -0.00496085      -0.00608818      -0.00192134
C       -2.46809636       5.71087261       3.68892512       0.00000000      -0.00357459       0.00896424      -0.00511301
C       -3.70115065       7.85956806       3.69457296       0.00000000      -0.00125690       0.00427488      -0.00595438
C       -4.95028006      10.00336392       3.69001181       0.00000000      -0.00134042      -0.00190714       0.00156758
C        2.41541153       1.47900251       3.76276939       0.00000000      -0.00801525       0.00056290      -0.00306712
O        1.15113516       3.52335391       3.54594374       0.00000000      -0.00217397       0.00230331      -0.00078417
C       -0.00473161       5.64266470       3.50311229       0.00000000      -0.00274667      -0.00291121      -0.00555952
C       -1.22613206       7.83797282       3.66144188       0.00000000      -0.00132173       0.00335514       0.00373994
C       -2.48612760       9.99816068       3.74413657       0.00000000      -0.00301858       0.00268179      -0.00184646
C        4.87535012       1.46710660       3.93090586       0.00000000       0.00561826       0.00017179       0.01104473
B        3.68711556       3.60808431       4.42114289       0.00000000       0.00604264       0.00095744       0.00485754
C        1.24056995       7.86892915       3.63934452       0.00000000      -0.00065523       0.00137954      -0.00068070
C       -0.02472718      10.00116218       3.81550012       0.00000000       0.00508624      -0.00493849      -0.00383718
C        7.35664515       1.46055623       3.90963271       0.00000000       0.00461054      -0.00176359      -0.00182199
C        6.13376614       3.62337074       3.96984628       0.00000000       0.00138577       0.00102446       0.00358942
C        4.94622547       5.75983969       3.83135621       0.00000000      -0.00499990      -0.00205486      -0.00392241
C        3.70780091       7.86099420       3.71609509       0.00000000       0.00331215      -0.00712895       0.00298021
C        2.44721633       9.99271642       3.84812919       0.00000000      -0.00226824      -0.00766423       0.00112720
C        9.83386214       1.44690486       3.80322035       0.00000000      -0.00413105      -0.00695704       0.00087132
C        8.61030998       3.58795990       3.81836105       0.00000000      -0.00087578      -0.00388860       0.00283026
C        7.39664283       5.73113240       3.77295233       0.00000000       0.00419479      -0.00712263       0.00089596
C        6.16640547       7.87024224       3.70396708       0.00000000       0.00571471       0.00404017       0.00671961
C        4.90929575       9.99214619       3.73392616       0.00000000      -0.00026724       0.00479517       0.00131632
Ni       3.07049033       6.02575742       2.48255342       0.00000000       0.00861919       0.01193416       0.01113004
O        2.29977366       3.18884340       5.96839952       1.00000000       0.00742504       0.00244318       0.00882942
O        2.83810268       4.28498029       5.40507529       1.00000000       0.00350241      -0.00971619      -0.00943535
