52
Lattice="12.336457 0.0 0.0 -6.168228499999997 10.683685154694365 0.0 0.0 0.0 15.0" Properties=species:S:1:pos:R:3:forces:R:3 energy=-446.6940419017986 free_energy=-446.6940419017986 stress="0.00138179335759644 -0.003978445492679074 7.704777373404993e-06 -0.003978445492679074 0.0034669547763962628 -5.307148095924843e-06 7.704777373404993e-06 -5.307148095924843e-06 7.397604233679852e-06" pbc="T T T"
C       -0.04953495       0.06864367       3.71373403       0.00352805      -0.00102676      -0.00268622
C       -1.31061947       2.18132230       3.61148671       0.00558971       0.00038795       0.00081917
C       -2.53915720       4.32833279       3.53877727      -0.00047261      -0.00207192       0.00091434
C       -3.74584415       6.47961156       3.57705514      -0.00083126      -0.00006882       0.00579190
C       -4.97286246       8.62223074       3.65754227      -0.00055152       0.00515745       0.00268547
C        2.41660727       0.10244423       3.75763979      -0.00250662      -0.00136227      -0.00797642
C        1.13672604       2.21600513       3.74041934      -0.00305573      -0.00757855      -0.01099317
C       -0.08610134       4.25879783       3.56064539       0.00759151       0.00182259      -0.00371071
C       -1.27310858       6.44360750       3.61244869       0.00863353       0.00643193      -0.00456619
C       -2.50401543       8.61007573       3.66181140       0.00318179       0.00000487      -0.00651422
C        4.87021064       0.08019308       3.77670488      -0.00144308      -0.00200949       0.00028674
C        3.62618972       2.19656221       4.18879397      -0.00642015      -0.00992644      -0.00436909
B        1.03388972       6.49809807       4.16809452      -0.01684308       0.01515618      -0.01014791
C       -0.03781003       8.60622785       3.75665090       0.00238627       0.00431328      -0.00049177
C        7.34299786       0.06514851       3.75075163      -0.00222698      -0.00292565      -0.00474292
C        6.08265797       2.23027576       3.85919346       0.00227209      -0.00104206      -0.00866828
C        4.91715978       4.41869225       4.18205573       0.00777701       0.00606149       0.00221549
O        3.71586618       6.51446460       3.89862248       0.00232263      -0.00034787      -0.00512221
C        2.45016938       8.58667922       3.81182399      -0.00960680      -0.00489147      -0.00167709
C        9.81039448       0.05294761       3.70952527      -0.00430742       0.00119175      -0.00278470
C        8.55568832       2.20069790       3.65348038       0.00135745       0.00082559       0.00909106
C        7.32854757       4.35265009       3.66867292      -0.00090447      -0.00382165       0.01601402
C        6.12722242       6.49147750       3.72442634       0.00092791      -0.00410677       0.00474265
C        4.89625431       8.60591502       3.74867759       0.00338649       0.00451572      -0.00267234
C       -0.06058770       1.49644918       3.69873734      -0.00464267      -0.01028417      -0.00528944
C       -1.30920951       3.59167984       3.52999734       0.00576212       0.00255638       0.00678630
C       -2.52138339       5.75170497       3.54654723       0.00704234       0.00245269      -0.00189926
C       -3.73708389       7.90554323       3.61841176      -0.00146719       0.00324480       0.00589420
C       -4.97405113      10.05865223       3.70175705       0.00065773       0.00310709       0.00259284
C        2.41899282       1.56130702       3.89204599      -0.01009695      -0.00571001      -0.01115637
O        1.10355030       3.56771361       3.52344314      -0.00231742      -0.00337286       0.00380563
C       -0.07418724       5.66943670       3.68238011       0.00547287       0.00376492      -0.00786656
C       -1.26443470       7.87808871       3.68511641       0.00615284       0.00496516      -0.00217906
C       -2.52422659      10.04830056       3.73172117      -0.00072552      -0.00068773      -0.00405301
C        4.83371168       1.51818656       3.92717597      -0.00387741       0.00022292       0.00875463
B        3.81035085       3.58876505       5.09854434      -0.00701307       0.00630547      -0.00688530
C        1.20623915       7.91607788       3.85101218      -0.00692659      -0.00014854       0.01327127
C       -0.05859618      10.04503982       3.75121647      -0.00001221      -0.00222872      -0.00287530
C        7.31558443       1.50215206       3.74038654       0.00052289      -0.00299325      -0.00276259
C        6.07674388       3.67836488       3.88300218       0.00497030      -0.00267906       0.00821408
C        4.91633597       5.78745014       3.93466700       0.00380910      -0.00320688       0.00408025
C        3.69694193       7.88693471       3.82412571      -0.00309883       0.00158812       0.00296427
C        2.42117593      10.01995120       3.74923781      -0.00607959      -0.00423118       0.00647358
C        9.79688687       1.48242279       3.64606854       0.00301623       0.00355313       0.00842010
C        8.55796117       3.62445768       3.60102174      -0.00418963      -0.00133800      -0.00147804
C        7.35181003       5.77205975       3.63621792       0.00013886      -0.00344766       0.00563833
C        6.13632283       7.91029292       3.69538264       0.00260520       0.00005586       0.00432402
C        4.88103003      10.03377887       3.72054386       0.00295478       0.00544824      -0.00567388
Ni       1.64570122       5.61523601       5.88814069       0.00421079      -0.00532611       0.00377612
O        2.68490799       4.31832610       5.44646421      -0.00405637      -0.00319819       0.00524949
O        4.56068714       3.05882196       6.23134212       0.02241817       0.00572621       0.00253235
H        4.34297036       3.53708727       7.04208685      -0.01501544       0.00117230      -0.00609626
