52
Lattice="12.336457 0.0 0.0 -6.168228499999997 10.683685154694365 0.0 0.0 0.0 15.0" Properties=species:S:1:pos:R:3:forces:R:3 energy=-444.88112529887303 free_energy=-444.88112529887303 stress="-0.00483214569468636 0.002089893553582964 1.7895409230537356e-05 0.002089893553582964 0.00127267531078345 2.536460817458582e-06 1.7895409230537356e-05 2.536460817458582e-06 -8.23448254612637e-07" pbc="T T T"
C       -0.09244268       0.11793598       3.81146683      -0.00355234      -0.00511016      -0.00577101
C       -1.33339186       2.23882323       3.76011308       0.00576811      -0.00367249       0.00091556
C       -2.56642675       4.37785064       3.73951306      -0.00018121      -0.00718402      -0.00562620
C       -3.79556196       6.51435187       3.77805177       0.00484260       0.00212338      -0.00602331
C       -5.03431063       8.65972344       3.82422878       0.00555121       0.00815156      -0.00077627
C        2.37623039       0.14502833       3.78167584       0.00737710      -0.00304949       0.00071866
C        1.14158327       2.30902585       3.77186404       0.00284851       0.00202441       0.00071495
C       -0.10550360       4.39718736       3.74593040      -0.00598718       0.00422473      -0.00073055
C       -1.33533282       6.52468479       3.75817097       0.00023295       0.00375069       0.00193858
C       -2.56998925       8.66016681       3.77389485       0.00100695      -0.00158325       0.00035522
C        4.83929725       0.10291210       3.70490065      -0.00657091       0.00760309      -0.00405688
C        3.64349908       2.23159097       3.72748462      -0.00156110       0.00286837       0.00527962
O        1.06448437       6.52577861       3.72359162      -0.00018499      -0.00713818      -0.00337593
C       -0.10425592       8.62996960       3.75289289      -0.00666082       0.00446950      -0.00535301
C        7.30706891       0.07509655       3.70418142       0.00062464      -0.00037446       0.00445405
C        6.09521970       2.21124697       3.64449152      -0.00192639       0.00095314       0.00120592
C        4.91099422       4.31434250       3.77633447       0.00315088      -0.00375176       0.00311651
B        3.67768442       6.50204949       4.00472359       0.00247251       0.00979815      -0.00402376
C        2.33708679       8.61221241       3.81915860      -0.00557063      -0.00507393       0.00035481
C        9.76591010       0.08609043       3.77614125       0.00408512       0.00400643       0.00086547
C        8.54574991       2.22549303       3.69624386      -0.00033706      -0.00437211       0.00527018
C        7.32357817       4.36643907       3.70504850       0.00206526      -0.00147496      -0.00295966
C        6.08730916       6.49618655       3.83662223      -0.00323746      -0.00392503      -0.00235321
C        4.83603514       8.64881430       3.87345487       0.00622731      -0.00244156       0.00835909
C       -0.09372749       1.54426116       3.78382980       0.00254315      -0.00652065       0.00070034
C       -1.34841143       3.66358457       3.74833818       0.00019774      -0.00420740      -0.00390965
C       -2.56862703       5.79988118       3.75828211       0.00428091      -0.00360174      -0.00823509
C       -3.80497030       7.94512567       3.79684724       0.00315414       0.00423527      -0.00223645
C       -5.02514283      10.09400658       3.81246468       0.00367883       0.00534979       0.00442730
C        2.39889644       1.58442592       3.76576567       0.00303822      -0.00334164       0.00606355
C        1.07001283       3.67979353       3.75270159      -0.00118158       0.00734972      -0.00164091
C       -0.14259747       5.81492163       3.74351856      -0.00338418       0.00210530      -0.00311709
C       -1.34800185       7.94687139       3.76177360      -0.00243818       0.00299925      -0.00855405
C       -2.57057557      10.09660493       3.75873402       0.00301300      -0.00548611      -0.00027888
C        4.85093876       1.53006836       3.67650481      -0.00383237       0.00576768       0.00486804
O        3.72146096       3.61720167       3.88706279       0.00182593       0.00059085      -0.00577487
C        1.10275890       7.93246810       3.77897469      -0.00889763      -0.00528798      -0.00194802
C       -0.09396881      10.05893339       3.71753660      -0.00707042       0.00725070       0.00087772
C        7.31237737       1.50758300       3.66067052      -0.00202965      -0.00114819       0.00384241
C        6.10217119       3.62564334       3.68149138       0.00160463       0.00034446       0.00774262
C        4.88890838       5.71722790       3.86120228      -0.00636441      -0.00412701       0.00079881
C        3.59042726       7.94584580       3.91079317       0.00239521       0.00507617       0.00396421
C        2.35787028      10.04520061       3.76215675       0.00346022      -0.00149992       0.00495616
C        9.76934157       1.51154038       3.74169283       0.00437312       0.00433869       0.00412437
C        8.54588755       3.65336415       3.70721957      -0.00124618      -0.00731481       0.00651224
C        7.31759158       5.79125114       3.77200437       0.00059535      -0.00012435      -0.00227619
C        6.06829422       7.92862324       3.85702803       0.00687831      -0.00136149       0.00052909
C        4.84163454      10.07718907       3.82487819      -0.00189251      -0.00446483      -0.00730706
Ni       2.41357857       5.01857778       3.73136795      -0.00145016       0.00547001       0.00063271
O        5.07777442       2.91272352       6.13988347      -0.00451032       0.00536124       0.00411751
O        3.81993275       3.01135326       6.61997086       0.00597914      -0.01803870       0.00102360
H        3.83737140       3.81631958       7.18431556      -0.01320336       0.00946365      -0.00240126
