51
Lattice="12.336457 0.0 0.0 -6.168228499999997 10.683685154694365 0.0 0.0 0.0 15.0" Properties=species:S:1:pos:R:3:initial_magmoms:R:1:forces:R:3 energy=-773212.8582131999 free_energy=-773212.8582131999 stress="391.4034994515944 -171.33032630133098 132.42001405343248 -171.33032630133098 258.38409153359277 -132.63210792241333 132.42001405343248 -132.63210792241333 229.76349082083993" pbc="T T T"
C        0.66393722      -0.79895693       0.86428307       0.00000000    -235.43026091     502.01995104    -246.85310690
C       -3.60101564      -1.50308058       6.86378112       0.00000000      69.81078420      62.41363499      63.81142636
C        3.37634603       4.36138346       5.02110395       0.00000000  107405.58660049   18198.85150063  -26752.16023440
C       -5.90295258       9.51627860       2.08930677       0.00000000    -732.43813531    -453.69190218    -842.69265678
C       -6.25284451      11.78920609       2.87990013       0.00000000     -20.49133239     -29.65707977     -11.73553920
C        5.56256653      -8.05861836       6.02894352       0.00000000    -695.89059171    -147.93209613      68.60905249
C        7.90362173      -8.01716431       6.43807693       0.00000000   -8536.58463187   -2771.70887796    3189.40285995
C       -7.55546885      13.89988448      -5.13865830       0.00000000       6.52991846       5.79524001      13.81884526
C       -5.55012587       9.74475680       2.55019738       0.00000000     639.01910368     473.35392681     845.60616308
C       -4.27481300       7.01269951       3.16144405       0.00000000     555.34346178     614.63920067    -413.74320872
C        5.05773481      -1.75218913       6.84551566       0.00000000    -727.80755563   -5985.90962745    -377.23589729
C      -13.26099265       9.49502566       0.89768723       0.00000000       2.10583905     -23.27740764     -89.18671463
B        7.08425597      12.17602408       1.08553924       0.00000000     -43.10425515     -79.17128292     -48.48048608
C       -0.14777597       8.95373852       3.09860514       0.00000000    -287.82688767     420.17202668     516.72797757
C        1.45871908       4.41138807       4.22675308       0.00000000    3520.62396011    -110.17342192    1242.43779823
C        8.76435043       1.41690260       0.96419710       0.00000000      11.63900403       4.51776652     -13.69582734
C        4.54237086       8.67531985       1.20235784       0.00000000      -5.10940578      11.04955771     -14.76371025
C       12.62634374      14.82121238      10.97616865       0.00000000      12.89491663       8.64744825      59.12736377
C        4.08120586      13.69826849      18.43717012       0.00000000     139.21048074     -23.84349935     -77.09247947
C        9.39788539       2.19490790       7.29717067       0.00000000     361.83249411    -137.94704740     157.33408047
C        7.87608738       2.45542414       5.60775643       0.00000000    4558.85511325   -2723.25985203    1620.03502309
C        4.89296445       5.07119570       4.73783190       0.00000000 -118777.64170117  -20534.90260454  -11877.60767499
C       -1.95483208      15.35535303      -3.94750681       0.00000000      -2.64873007      11.26695931      71.60284798
C        8.81918974      10.92964604      -4.02979006       0.00000000       2.44876215      -3.00433707      -2.47700101
C        9.27366956      -9.30581450       6.60222060       0.00000000  -15728.09517624  -19277.79134894   11277.41220340
C        1.62650845       5.24425337      -0.67878674       0.00000000      -3.72613367      -7.33084709       3.82425910
C       -4.11098741       8.49604324       0.60381962       0.00000000      30.62442302     -28.75930086     -31.76755525
C       -5.26595105       6.90502434       0.79397671       0.00000000       6.45954705      16.29578975     -28.34050932
C       -5.19555846       9.27470400       1.12965566       0.00000000     252.71528625    -449.45315950     218.78621866
C        4.92666122       0.01922320       5.35874298       0.00000000     459.05139668   38152.53064739  -46034.00202727
N       -6.11668651       1.16674209       4.21647943       0.00000000   16695.25688985  -45374.25536806    3839.33980268
C        5.50055513      14.63266436      -0.09182103       0.00000000      -5.11418876       0.29286584      -5.50551159
C       -0.60838883       4.98818514      -1.04952307       0.00000000       3.77264609      -2.35156965       2.73624607
C       -3.92212646      14.59224588       1.09641083       0.00000000    -217.47286365     240.96227330    -906.09289700
C        8.43940900      -1.02333310       1.25604788       0.00000000      37.14966636      -9.81845985     -44.31795256
B        4.68226359     -10.56048632      -0.76527978       0.00000000      -0.79167924      -0.40494639      -0.07746043
C        3.76779874       5.24069464       5.96300297       0.00000000   54784.96499894  -92782.39816549  -84398.83621953
C       -0.97730183       9.53029448       6.82270267       0.00000000    3716.39097480    3443.10609762    2806.92339308
C        2.61617040       3.98459990       3.94188637       0.00000000   87353.47871536    2345.55201532   48701.78600820
C        7.38218533       2.67053599      -0.63785090       0.00000000       1.15740425      -0.76290349       2.53929992
C        7.15896137       2.40754406      -1.88549832       0.00000000      -0.33821464      -0.14175128      -0.44022892
C       -2.63026761       9.42371178      12.66599179       0.00000000      -1.02953321       1.36497587      -4.17196667
C       -3.07921353       6.98431123      10.32261535       0.00000000       1.28736571       4.76153150      -0.34167636
C       10.34587015       2.71803430       7.82112060       0.00000000     -51.11834917     -87.21310444     -84.93537073
C       10.42679684       2.92405858       8.80484822       0.00000000     -32.62239677       4.95026312      19.36321898
C       15.88828481      -1.68362945      10.29991347       0.00000000      -8.72490813      -6.28934965      18.03639545
C        4.55114656       7.98629235       2.20948200       0.00000000     -25.43755071      59.03441699     -66.13348712
C        2.58243028       4.30490867       5.45799693       0.00000000  128246.92824837   -9089.69141990  -31263.02790879
Ni       4.90296626       3.35336993       5.43247607       0.00000000 -2215450.65765801 3780495.22528949 -4569399.76487152
O        5.09003913       0.34726954       5.07773405       1.00000000   19064.84364716  -24079.69663442   57039.22372441
O        4.82816498       3.46838873       5.35506397       1.00000000 1933650.12049130 -3620855.96601342 4641256.99597191
