51
Lattice="12.336457 0.0 0.0 -6.168228499999997 10.683685154694365 0.0 0.0 0.0 15.0" Properties=species:S:1:pos:R:3:initial_magmoms:R:1:forces:R:3 energy=-441.14112787447664 free_energy=-441.14112787447664 stress="0.0013971759466205943 -0.005464096672970576 3.7242037601586904e-05 -0.005464096672970576 0.00011570941389465222 -1.2183204698242313e-05 3.7242037601586904e-05 -1.2183204698242313e-05 5.1803364882009946e-06" pbc="T T T"
C        0.03672275      -0.09902086       3.88195507       0.00000000      -0.00398585      -0.00397467      -0.00086468
C       -1.22844177       2.03028241       3.88215048       0.00000000      -0.00990565       0.00109631      -0.00303858
C       -2.43430905       4.17892995       3.78369566       0.00000000       0.00357035       0.00614501       0.00139656
C       -3.62904631       6.32295592       3.75171794       0.00000000      -0.00519842       0.00597648      -0.00077604
C       -4.86509564       8.46607418       3.82542495       0.00000000      -0.00054906      -0.00102549      -0.00050124
C        2.50383748      -0.06920341       3.86802348       0.00000000       0.00474135      -0.00691700       0.00810242
C        1.20644868       2.02589677       3.97239883       0.00000000      -0.00543206       0.00611524      -0.00201045
C        0.00431053       4.11347692       4.05531626       0.00000000      -0.00281424       0.00003370       0.00204885
C       -1.13989393       6.27787502       3.90553598       0.00000000       0.00159643      -0.00303832      -0.00687537
C       -2.39464447       8.44954624       3.85334989       0.00000000       0.00131019       0.00097705      -0.00754577
C        4.96054808      -0.07139584       3.70058201       0.00000000       0.00412677       0.00544120      -0.00047631
C        3.66873312       2.03302860       3.43483865       0.00000000       0.00846735      -0.00089316      -0.00032363
B        1.24715429       6.38659518       4.60364258       0.00000000       0.00331833      -0.00339735       0.00720200
C        0.06347728       8.45946640       3.86003861       0.00000000      -0.00612768      -0.00393093      -0.00281352
C        7.42032451      -0.06866811       3.67625507       0.00000000       0.00208778       0.00464438      -0.00028080
C        6.16643779       2.07603434       3.45352837       0.00000000       0.00227158      -0.00031649      -0.00040762
C        5.02584396       4.26859673       3.16695874       0.00000000      -0.00356476      -0.00639549      -0.00733940
C        3.78132660       6.37697909       3.37257387       0.00000000       0.01330486      -0.00490906       0.00505462
C        2.50706688       8.47368370       3.76698672       0.00000000       0.00438724      -0.00068874       0.00593723
C        9.89551630      -0.08736549       3.76224523       0.00000000       0.00325625       0.00159779      -0.00770954
C        8.64630947       2.05697457       3.66013824       0.00000000       0.00390434      -0.00292454      -0.00081229
C        7.44154807       4.20588997       3.54249476       0.00000000      -0.00617411      -0.00704632      -0.00014794
C        6.24681735       6.35914160       3.58396538       0.00000000      -0.00329188       0.00732810       0.00626219
C        4.99454255       8.46451471       3.74127522       0.00000000      -0.00169776       0.00070418      -0.00077753
C        0.01183772       1.32268174       3.93027257       0.00000000      -0.00993075       0.00345484      -0.00495283
C       -1.21899015       3.44252756       3.90950421       0.00000000      -0.00235408       0.00033332       0.00111254
C       -2.39961691       5.59537559       3.80193351       0.00000000      -0.00114052       0.00580245      -0.00344838
C       -3.62995049       7.74677895       3.81997586       0.00000000       0.00001536       0.00645861       0.00012561
C       -4.88692088       9.88880992       3.88821219       0.00000000      -0.00064942      -0.00481687       0.00765241
C        2.46695841       1.36819406       3.80454366       0.00000000       0.00132214       0.00028096      -0.00349417
O        1.14414255       3.36063789       4.29812111       0.00000000       0.00228485       0.01191259       0.00824879
C        0.07048457       5.52010307       4.01333029       0.00000000       0.00256604      -0.00345204      -0.00770224
C       -1.15541255       7.72109179       3.88858647       0.00000000      -0.00515967      -0.00497087      -0.00644077
C       -2.42331994       9.88939942       3.81687351       0.00000000       0.00800827      -0.00122094       0.00826081
C        4.92625050       1.36654496       3.51598041       0.00000000       0.00762380       0.00095790       0.00270738
S        3.53746487       3.58667235       2.62352026       0.00000000       0.01259412       0.00504654      -0.00416601
C        1.30604336       7.77912592       3.95269640       0.00000000       0.00065926      -0.00791843      -0.00520132
C        0.03184713       9.89793283       3.72918147       0.00000000      -0.00042146       0.00183430      -0.00050140
C        7.40166543       1.36064558       3.58875386       0.00000000       0.00366778       0.00367179      -0.01050658
C        6.19315652       3.50361463       3.37167918       0.00000000      -0.01101980      -0.00590630       0.00730377
C        4.99941190       5.67887775       3.34821903       0.00000000       0.00778678      -0.00345521      -0.00265997
C        3.75330655       7.74594105       3.65701630       0.00000000       0.00420830      -0.00479245       0.00947880
C        2.49286825       9.89864487       3.72193852       0.00000000       0.00428290       0.00397235      -0.00257997
C        9.88384406       1.33606177       3.76663875       0.00000000      -0.00310796      -0.00371471       0.01023489
C        8.66071168       3.47997758       3.65617802       0.00000000       0.00287111      -0.00278731       0.00684276
C        7.46580904       5.62785652       3.62161020       0.00000000      -0.00578093      -0.00113044       0.00379248
C        6.23643181       7.76589486       3.73042406       0.00000000      -0.00257527       0.00638042       0.00655255
C        4.97032014       9.88052497       3.81289561       0.00000000      -0.00178946      -0.00321288      -0.00265036
Ni       2.16944726       5.55250179       2.92800025       0.00000000      -0.00025019      -0.00449685      -0.00136429
O        2.40371070       7.02994511       6.31715800       1.00000000      -0.01286756       0.00105442       0.00507648
O        1.52472419       6.06620385       6.00062859       1.00000000      -0.00844501       0.00611290      -0.01502413
