52
Lattice="12.336457 0.0 0.0 -6.168228499999997 10.683685154694365 0.0 0.0 0.0 15.0" Properties=species:S:1:pos:R:3:forces:R:3 energy=-446.7515644163967 free_energy=-446.7515644163967 stress="-0.00455018101864272 0.0001960144886597679 8.234966820589817e-05 0.0001960144886597679 0.0017559400785279828 -7.808872728501209e-06 8.234966820589817e-05 -7.808872728501209e-06 2.6727111146926932e-05" pbc="T T T"
C        0.02334260       0.01595481       3.84236719      -0.00019394       0.00506507      -0.01526156
C       -1.22077351       2.12566674       3.89370927      -0.00195588       0.00168613       0.00744090
C       -2.45154919       4.26612393       3.95994949       0.00047477      -0.00302010       0.00462947
C       -3.67308254       6.41037497       3.92739963      -0.00080967       0.00774070      -0.00513135
C       -4.91322550       8.55734256       3.86932067      -0.00076980      -0.00007350      -0.00231766
C        2.48173485       0.02806272       3.80575456       0.00144191      -0.00225100       0.00123399
C        1.23252683       2.20003330       3.69476903       0.00062429      -0.00004142       0.00334522
C       -0.00692301       4.25226546       3.87353229      -0.00316095      -0.00386344      -0.00453073
C       -1.22265528       6.41206892       3.98883708      -0.00805659      -0.00864858       0.00760070
C       -2.45138955       8.55383483       3.93186258       0.01019113       0.00296002      -0.00088848
C        4.95496580      -0.01191635       3.74347419      -0.00247989      -0.00504755       0.00298272
C        3.71276568       2.07055471       3.32532278      -0.00369494      -0.00840480       0.00390801
N        1.17774901       6.37650818       3.74122846       0.00342738       0.01116756      -0.00859579
C        0.01878253       8.51025697       3.86270602       0.00333800       0.00220631      -0.00725806
C        7.41738223      -0.02798016       3.77417922       0.00331955      -0.01422944       0.00234925
C        6.20083236       2.11230067       3.52712258       0.00473778      -0.00052877       0.01832402
C        5.11503202       4.29195567       3.13275706      -0.00080888       0.00577319       0.00245298
B        3.76712341       6.39792805       3.34666586       0.01153607       0.01141410       0.00371147
C        2.46901730       8.50608876       3.72998395       0.00289365      -0.00127431      -0.00213835
C        9.88120133      -0.02173525       3.82922971      -0.00792446       0.00004777      -0.00867835
C        8.65242227       2.11800356       3.81758160      -0.00003960       0.00866052      -0.00064530
C        7.45358449       4.26482066       3.71490049       0.00975257       0.00663760       0.00025836
C        6.23328754       6.41716774       3.64997863       0.00620234      -0.00858904      -0.00421191
C        4.96050220       8.54864263       3.73089731      -0.00422814      -0.00887919      -0.00429332
C        0.02296035       1.44933175       3.82692229       0.00151756       0.00775920       0.00756719
C       -1.22748822       3.54429618       3.94720353      -0.00287812      -0.00309613      -0.00311327
C       -2.44907192       5.69119706       3.98777965      -0.01130628      -0.00533281      -0.00524209
C       -3.68115351       7.84056402       3.92766132       0.00502681       0.01089910       0.00032364
C       -4.91358357       9.98835216       3.86036087      -0.00076715       0.00366029      -0.00843511
C        2.47581769       1.45827847       3.62525054      -0.00203544      -0.00568565      -0.00078022
N        1.17059641       3.57662439       3.67785139      -0.00327731      -0.00201764      -0.00038867
C       -0.00534878       5.70036756       3.89833665       0.00208379       0.00252103      -0.00041248
C       -1.21839042       7.83267175       3.94641843       0.00519089      -0.00621077       0.00725499
C       -2.45361428       9.98347478       3.83733102       0.00054027      -0.00117509      -0.00112933
C        4.95761981       1.40841644       3.52621600      -0.00023871      -0.00656956       0.01419432
S        3.71187533       3.56543479       2.42122524      -0.00668804       0.00376866       0.00412599
C        1.23402508       7.75816802       3.77402161       0.00593215       0.01137336      -0.00804601
C        0.02075188       9.94142830       3.79987545      -0.00067986      -0.00279187      -0.00964208
C        7.41685651       1.40406300       3.71624687       0.00595800      -0.00690829       0.00402158
C        6.24673722       3.53536437       3.44958830       0.00299539       0.00916259       0.01064986
C        5.06284070       5.68020254       3.34656278      -0.00020281       0.00584826       0.00336013
C        3.71527100       7.85508838       3.61791080      -0.00234594      -0.00208642      -0.00734600
C        2.47476294       9.93743186       3.79643955      -0.00000531      -0.01234310      -0.00138135
C        9.88286232       1.40492720       3.86700439      -0.00519055       0.00353361       0.00489395
C        8.66313617       3.54502518       3.85396269       0.00490973       0.00645224       0.00267142
C        7.45126358       5.69295214       3.77978650       0.00771208      -0.00019475       0.01188495
C        6.19794111       7.84071627       3.76032446       0.00016474      -0.01134114      -0.00573141
C        4.95813965       9.97331142       3.81946307      -0.00449194      -0.00363570       0.00340506
Ni       2.38398040       5.02244413       3.32818214       0.01306696      -0.00086326      -0.00746385
O        1.58271118       5.09759157       6.95361141      -0.00867144       0.00321550      -0.00703214
O        2.14086335       5.00390770       8.18656249      -0.01349369       0.00232162      -0.00770259
H        3.11617512       5.03922054       8.05977837      -0.01664248       0.00122891       0.00520729
