51
Lattice="12.336457 0.0 0.0 -6.168228499999997 10.683685154694365 0.0 0.0 0.0 15.0" Properties=species:S:1:pos:R:3:initial_magmoms:R:1:forces:R:3 energy=-437.9705613412964 free_energy=-437.9705613412964 stress="0.0006991082735550883 0.0056211380102614205 2.7059056025388897e-05 0.0056211380102614205 0.002509592514908609 -1.317907421816442e-05 2.7059056025388897e-05 -1.317907421816442e-05 -6.480897349920239e-06" pbc="T T T"
C       -0.00940816      -0.00591848       3.80484167       0.00000000      -0.00499837       0.00389353      -0.01378970
C       -1.20896864       2.14816611       3.60854804       0.00000000      -0.00470438      -0.00227846      -0.01840173
C       -2.45712363       4.27731548       3.66251309       0.00000000       0.00672378      -0.00362369      -0.00372906
C       -3.73206165       6.39975485       3.79638703       0.00000000      -0.00114628       0.00321579      -0.00454306
C       -4.97810179       8.52559025       3.89471545       0.00000000       0.00521328      -0.00762039       0.00016047
C        2.45742239       0.00299378       3.82652755       0.00000000       0.00304231      -0.00977050      -0.00284258
C        1.26039720       2.12644929       3.45817356       0.00000000       0.00212706       0.00108629       0.01274009
C       -0.02486037       4.34678090       3.28261462       0.00000000      -0.00516741      -0.01364280       0.00082213
C       -1.27273685       6.43543942       3.59043283       0.00000000       0.00004216      -0.00050289      -0.00948457
C       -2.49834749       8.54221366       3.78725099       0.00000000       0.00500354       0.00704930      -0.00340664
C        4.92639640      -0.01560753       3.78806304       0.00000000       0.00367727      -0.00207076       0.00406806
C        3.74892371       2.09978086       3.87589124       0.00000000       0.00223439       0.00450299      -0.00134980
O        1.09395832       6.51119621       3.19069218       0.00000000       0.00699981       0.00906295      -0.00178743
C       -0.02648148       8.53729366       3.66428635       0.00000000      -0.01254083       0.00354162       0.00267341
C        7.40635050      -0.03126222       3.72112815       0.00000000       0.00497553      -0.00092528       0.00508729
C        6.19625053       2.10264091       3.80515837       0.00000000      -0.00394504       0.00543553       0.00689801
C        4.98779231       4.20802479       3.96241306       0.00000000      -0.00557889       0.00397109       0.01294019
B        3.65358736       6.33545551       4.48182268       0.00000000      -0.00289956      -0.00029991       0.00307341
C        2.43804514       8.48651087       3.75116417       0.00000000      -0.00007625       0.00062144       0.00919550
C        9.86418932      -0.02160027       3.75603631       0.00000000       0.00312926       0.00447227      -0.00858989
C        8.65547137       2.12182210       3.71978400       0.00000000       0.00490693      -0.00501314       0.00017596
C        7.41315243       4.24987360       3.80358727       0.00000000       0.00648680      -0.00049408      -0.00453378
C        6.12658979       6.35346606       3.95597344       0.00000000      -0.01359417      -0.00452877       0.00537167
C        4.87492830       8.51386596       3.96135899       0.00000000      -0.00295021      -0.00541338      -0.00196130
C        0.01234950       1.42572390       3.64265115       0.00000000      -0.00474890       0.00946722       0.00117582
C       -1.21831861       3.58132107       3.53366908       0.00000000      -0.00106709      -0.00791151      -0.00650237
C       -2.49352737       5.70013266       3.68869461       0.00000000      -0.00033834      -0.00332231      -0.00666848
C       -3.74035065       7.82403899       3.83195285       0.00000000       0.01119993       0.00533034       0.01098615
C       -4.95256658       9.96047450       3.85317853       0.00000000      -0.00451009      -0.00516991      -0.00628411
C        2.49710377       1.43878980       3.75171760       0.00000000       0.00736307      -0.00804743       0.00300653
S        1.18122861       3.44300091       2.20513564       0.00000000       0.01144649      -0.00105214       0.00220884
C       -0.07107633       5.77720356       3.34581183       0.00000000       0.00368308      -0.00217427      -0.00511842
C       -1.27296833       7.84687315       3.68054330       0.00000000      -0.00728036       0.00207191      -0.00555792
C       -2.48467333       9.97251249       3.81897354       0.00000000       0.00613670      -0.00136586      -0.00849171
C        4.95200940       1.40698705       3.82767219       0.00000000      -0.00036979      -0.00177664       0.00026048
O        3.81349483       3.46233902       4.17147142       0.00000000      -0.00576883       0.01193216      -0.01003807
C        1.17013747       7.83070023       3.56672460       0.00000000      -0.00652862       0.01129730       0.00293372
C       -0.00583105       9.95867592       3.73243321       0.00000000       0.00111868      -0.00034205       0.00547629
C        7.41837751       1.40039228       3.74814058       0.00000000      -0.00100077       0.00254895      -0.00486507
C        6.19238962       3.51713322       3.83878137       0.00000000      -0.00313252       0.00843770       0.00702979
C        4.93151177       5.58758202       4.06585001       0.00000000      -0.01547608       0.00114525      -0.00271269
C        3.64096510       7.81366180       4.01901674       0.00000000      -0.00130684      -0.00913342      -0.00490433
C        2.45889574       9.92737316       3.72675952       0.00000000       0.00651501       0.00062378       0.00271718
C        9.89004370       1.41764361       3.69775194       0.00000000       0.00210285      -0.00249544      -0.00880928
C        8.65099992       3.54661406       3.73028608       0.00000000       0.01078568      -0.00646582       0.00705911
C        7.37994703       5.66975116       3.84693091       0.00000000      -0.00448543       0.00032279       0.00629655
C        6.12159113       7.79708318       3.96521185       0.00000000      -0.00094654      -0.00697083       0.00989874
C        4.91702666       9.95255178       3.84051705       0.00000000      -0.00231147      -0.00017610       0.00205067
Ni       1.90954128       4.08097207       4.16592982       0.00000000       0.00830530       0.00327489       0.01528367
O        3.42008414       5.60479737       6.13055927       1.00000000      -0.01598551       0.00891169      -0.00242567
O        2.40650056       5.70624169       5.08026636       1.00000000       0.00963964       0.00037102       0.00720791
