52
Lattice="12.336457 0.0 0.0 -6.168228499999997 10.683685154694365 0.0 0.0 0.0 15.0" Properties=species:S:1:pos:R:3:forces:R:3 energy=-446.60096835351266 free_energy=-446.60096835351266 stress="-0.004375118990115524 0.001560105786921269 3.5134944848692547e-06 0.001560105786921269 0.0012432872655957989 1.0587681564138533e-06 3.5134944848692547e-06 1.0587681564138533e-06 -5.27493571692627e-06" pbc="T T T"
C        0.00158978      -0.02452550       3.57597913      -0.00347140      -0.00104266       0.00363988
C       -1.23299019       2.10561056       3.38323898      -0.00657129       0.00605356       0.00097761
C       -2.48280322       4.24868773       3.56861544       0.00307603      -0.00244461       0.00623186
C       -3.70996787       6.38466473       3.74081190       0.00692562      -0.00481482       0.00435115
C       -4.94170046       8.52496079       3.75497217      -0.00040113      -0.00009427      -0.00402007
C        2.46596885      -0.00381868       3.62959065       0.00550618      -0.00451601      -0.00709062
C        1.24749456       2.05537172       3.17085149       0.00725639      -0.00418999       0.00377152
C       -0.10538591       4.31079291       3.12347694      -0.00785364      -0.00285606      -0.00758607
C       -1.26985228       6.40671156       3.56331315      -0.00413319      -0.00444565      -0.00497653
C       -2.48043685       8.53242823       3.69969773      -0.00039046       0.00481463       0.00225125
C        4.93163391      -0.02415827       3.65127992      -0.00239292       0.00187867      -0.00058713
C        3.71815346       2.16230187       3.57083100      -0.00063706       0.00341490       0.00444506
N        1.16915782       6.34705203       3.46830120      -0.00716130       0.00193805      -0.00442507
C       -0.00701375       8.49188624       3.61566321      -0.00414597      -0.00504473       0.00408588
C        7.40029697      -0.05124736       3.63144773      -0.00002727       0.00388928      -0.00804291
C        6.18014447       2.08722080       3.68831682      -0.00210026      -0.00346218      -0.00007797
C        4.96401673       4.18484801       3.78667159      -0.00122912      -0.00038806      -0.00278967
B        3.73054272       6.36312752       3.86469844       0.00392667       0.00465971       0.00225016
C        2.44388770       8.48507583       3.66257869       0.00960934       0.00058786       0.00374373
C        9.86530472      -0.04404949       3.59833787       0.00517715       0.00632449       0.00017437
C        8.63978909       2.09456982       3.61057671       0.00485491       0.00354482      -0.00529953
C        7.41142100       4.23135040       3.75276980       0.01019709      -0.00345316      -0.00192780
C        6.17936766       6.37016985       3.84166724      -0.00872725       0.00420166       0.00073232
C        4.93489937       8.51971299       3.75865715      -0.00470154      -0.00316363       0.00276268
C        0.00340603       1.39674449       3.36653721      -0.00211809       0.00564284       0.01495377
C       -1.25478448       3.53910480       3.36184870      -0.00888231       0.00263283      -0.00497734
C       -2.48514906       5.67338019       3.63210684       0.00507050      -0.00971648       0.00324998
C       -3.71052011       7.81396965       3.74446474       0.00369645      -0.00028257       0.00681481
C       -4.93500686       9.95583694       3.66283486       0.00258975      -0.00101181      -0.00674420
C        2.47472653       1.42613175       3.46777876       0.00669277      -0.00622133       0.00772477
S        1.24674309       3.57652966       2.30588509       0.00571561       0.00232969      -0.00996988
C       -0.05325955       5.71341025       3.35981535      -0.00436553      -0.00412013      -0.00158332
C       -1.25107978       7.81803075       3.63818621      -0.00594852      -0.00244792       0.00096010
C       -2.47412001       9.95865663       3.67821594       0.00256611       0.00260846      -0.00088444
C        4.93280895       1.40898040       3.64489899      -0.00450316      -0.00053239       0.00415644
N        3.75882327       3.53794306       3.65719542      -0.00817695       0.00704434      -0.00678645
C        1.21301191       7.72837589       3.59197692       0.00403517       0.00181989       0.00205116
C       -0.00201847       9.92263647       3.64010621      -0.00451136      -0.00314209      -0.00109402
C        7.40989094       1.37440416       3.64994248       0.00343424       0.00485227      -0.00492122
C        6.19292934       3.49474821       3.75836993       0.00326028      -0.00117620       0.00258773
C        4.98359475       5.61024353       3.85829142      -0.00799490       0.00015267       0.00083096
C        3.68532610       7.82817216       3.77718134       0.00213349      -0.00703020       0.00384373
C        2.45650897       9.91629122       3.62845879       0.00653064       0.00380837      -0.00678460
C        9.87843098       1.38814215       3.53012015       0.00070521       0.00810921       0.00273649
C        8.63795312       3.52145274       3.65341948       0.01084690      -0.00236721       0.00264498
C        7.41127717       5.65929463       3.79405390      -0.00193108       0.00068841      -0.00229829
C        6.16356655       7.80293096       3.80169126      -0.00634824       0.00305752      -0.00781197
C        4.93570780       9.94374807       3.64817078      -0.00389349      -0.00520215       0.00384270
Ni       2.45376129       4.92602462       3.53309484      -0.00118603      -0.00094721       0.00458160
O        1.80025598       5.50469295       9.32819223       0.00431154       0.00137558       0.00390775
O        2.90461713       5.69078566      10.09218836      -0.00693059       0.00017139      -0.00335369
H        3.57768861       5.05916557       9.75383854       0.00261596      -0.00148759      -0.00027169
