52
Lattice="12.336457 0.0 0.0 -6.168228499999997 10.683685154694365 0.0 0.0 0.0 15.0" Properties=species:S:1:pos:R:3:forces:R:3 energy=-442.9944663158108 free_energy=-442.9944663158108 stress="-0.006031006362596313 4.1703399499967284e-05 -3.309653399710605e-05 4.1703399499967284e-05 0.0017927799643829507 -9.600707852757974e-06 -3.309653399710605e-05 -9.600707852757974e-06 -1.737221638167663e-05" pbc="T T T"
C       -0.04054603       0.05082872       3.79105690      -0.00549462      -0.00715268      -0.01558388
C       -1.29035933       2.16891644       3.88674056       0.00108391       0.00436063      -0.00830274
C       -2.56097938       4.31663768       3.83464112       0.00000675       0.00387620       0.00157679
C       -3.76752244       6.46535088       3.71466504       0.00239179       0.00025736       0.00755825
C       -4.97817657       8.60714005       3.69047455       0.00283595      -0.00318034       0.00016677
C        2.43896024       0.08330647       3.76007992      -0.00148807       0.00232562      -0.00934764
C        1.20315694       2.18715704       3.94031522      -0.00325535      -0.00312422      -0.01012351
C       -0.16078156       4.33029088       4.08824377       0.00449346      -0.00070503       0.00702295
C       -1.34005981       6.47254543       3.94264494       0.00251219       0.00538335      -0.01070152
C       -2.51540327       8.61106964       3.78458619      -0.00260973       0.00537593      -0.00104694
C        4.89589475       0.05745375       3.74631149      -0.00510493      -0.00085033      -0.00069499
C        3.69310006       2.19747310       3.69149347       0.00076071      -0.00102770      -0.00790459
B        1.13744147       6.42356428       4.15890386       0.00057411      -0.00109517       0.00679594
C       -0.03940763       8.58450902       3.87667562      -0.00078499       0.00302296      -0.00346335
C        7.36967457       0.02238991       3.75419020      -0.00296890       0.00007129      -0.01754606
C        6.13670734       2.17583208       3.62665213       0.00358767      -0.00423717       0.01154282
C        4.93687298       4.32386043       3.48569922      -0.01157243      -0.00118040      -0.00625374
O        3.74148219       6.47467605       3.57114268       0.00152554      -0.00026771      -0.00135604
C        2.45312006       8.54419951       3.80895282       0.00312395      -0.00027261       0.00369489
C        9.82910255       0.02198849       3.77134200      -0.00233289      -0.00454216      -0.00091769
C        8.58905815       2.16764541       3.73442506       0.01015381      -0.00402803      -0.00220351
C        7.34803167       4.32105913       3.61767693      -0.00437986      -0.00076939      -0.00643536
C        6.12610488       6.46077141       3.54962399      -0.00078962       0.00520105      -0.00584986
C        4.89918988       8.57495005       3.68964710       0.00036704      -0.00240459      -0.00779074
C       -0.03715652       1.47984728       3.88279688      -0.00482661      -0.00568593       0.00684335
C       -1.33829333       3.59064089       3.94845297       0.00163993       0.00536257      -0.00435219
C       -2.56161202       5.74588965       3.83009513       0.00331313       0.00401960       0.00727868
C       -3.74740381       7.89577501       3.72555953       0.00343083      -0.00123378      -0.01072101
C       -4.96652369      10.04141369       3.75001656      -0.00070977      -0.00293166      -0.00689223
C        2.45345078       1.52015286       3.79631139       0.00327833       0.00126686       0.00341879
B        1.14082863       3.64020121       4.16243285       0.00539894      -0.00453734       0.00725282
C       -0.16247974       5.73305052       4.08757932      -0.00114702      -0.00083000       0.00196587
C       -1.29141225       7.89419118       3.87555133      -0.00259445       0.00738626       0.00194073
C       -2.50729557      10.04188705       3.75822997      -0.00592090       0.00249483       0.00543019
C        4.89931178       1.48839772       3.67940171       0.00265718      -0.00371178      -0.00692132
O        3.74028136       3.58480110       3.52004325      -0.01129981      -0.00188753      -0.00102176
C        1.20165096       7.87644916       3.93761497       0.00217088       0.00211690       0.01229210
C       -0.04119864      10.01306625       3.78544212      -0.00496710       0.00272459      -0.00376184
C        7.35813670       1.45619723       3.69448537       0.00750269      -0.00148324       0.00529128
C        6.12754290       3.60116289       3.54845930      -0.01014691      -0.00135732       0.01498058
C        4.93904787       5.73737631       3.48980853       0.00020880       0.00151499       0.01289592
C        3.69352312       7.86592375       3.71859691       0.00302169      -0.00238759       0.00172123
C        2.43926317       9.98100698       3.77073374      -0.00295617      -0.00010232      -0.00683304
C        9.82110696       1.45276042       3.79733257       0.00707869      -0.00444000      -0.00321028
C        8.56940657       3.59736081       3.72295112       0.00157160      -0.00100428      -0.00290750
C        7.34794845       5.74078623       3.61409700      -0.00159731       0.00295925       0.00526969
C        6.13595162       7.88677710       3.62880303       0.00090597       0.00218015       0.01964500
C        4.89557327      10.00693052       3.75623294      -0.00513205      -0.00720996      -0.00050548
Ni       2.53730166       5.03754263       4.28406660       0.00131267       0.00350689       0.00251423
O        3.58491586       5.02136868       5.83340930      -0.00074858       0.00728060       0.01280676
O        3.62940589       3.66610064       6.34441874      -0.00206961       0.00291768       0.00384106
H        3.13060082       3.78983555       7.17796434       0.01798947      -0.00196527      -0.00109790
