51
Lattice="12.336457 0.0 0.0 -6.168228499999997 10.683685154694365 0.0 0.0 0.0 15.0" Properties=species:S:1:pos:R:3:initial_magmoms:R:1:forces:R:3 energy=-443.5862649471478 free_energy=-443.5862649471478 stress="-0.0015307468980979846 0.00016366812854514312 1.3692808683942519e-05 0.00016366812854514312 0.0002625372177294643 -8.748223801048243e-06 1.3692808683942519e-05 -8.748223801048243e-06 4.584985916682512e-06" pbc="T T T"
C        0.02111702       0.03384105       3.59131646       0.00000000      -0.00701284      -0.00967041      -0.00253341
C       -1.22276394       2.16518521       3.78572947       0.00000000       0.00901496       0.00691046      -0.00168290
C       -2.47942662       4.30714277       3.68245890       0.00000000       0.00162895       0.00617321      -0.00690537
C       -3.70152934       6.44714110       3.50604170       0.00000000      -0.00658473       0.00797556       0.00032433
C       -4.92080367       8.58553747       3.46783052       0.00000000      -0.00347028      -0.00684537       0.01674592
C        2.49010628       0.06279805       3.58261270       0.00000000       0.00174505      -0.00902215       0.00154294
C        1.25838783       2.13116684       3.96476585       0.00000000       0.00191671      -0.00204101      -0.00332046
C       -0.07897388       4.30573835       4.18686068       0.00000000       0.00732933       0.00285899      -0.00198897
C       -1.25679720       6.44407112       3.79440074       0.00000000      -0.00070582       0.00528580       0.00153771
C       -2.45462297       8.58488049       3.56888584       0.00000000      -0.00280484      -0.00684863       0.00293438
C        4.94533181       0.03999634       3.58724696       0.00000000       0.00089414      -0.00455647       0.00458387
C        3.74916725       2.18127055       3.65181267       0.00000000       0.00150076       0.00776592      -0.00362740
B        1.15828480       6.50141874       4.24342225       0.00000000      -0.00150661      -0.00950277      -0.00055428
C        0.00919937       8.58909241       3.73785451       0.00000000      -0.00398542       0.00318762       0.00092960
C        7.42169184       0.02812100       3.60288740       0.00000000      -0.00270376      -0.00241184       0.00852469
C        6.18349208       2.16885204       3.54102912       0.00000000      -0.00318614       0.00529340      -0.00607751
C        4.95600343       4.29077852       3.56851121       0.00000000       0.00428719       0.00680377      -0.00754087
N        3.81215694       6.47313983       3.88301751       0.00000000      -0.00229254      -0.00020430      -0.00153617
C        2.50377745       8.57260464       3.77290093       0.00000000       0.00338685      -0.00167029       0.00099577
C        9.89083514       0.03052699       3.61027126       0.00000000       0.00119322       0.00435937      -0.01072703
C        8.65148872       2.16809076       3.58206044       0.00000000      -0.00111717      -0.00754632       0.00370520
C        7.40105424       4.30925237       3.49549395       0.00000000       0.00676096       0.00567480      -0.00871006
C        6.16641065       6.43703671       3.44148327       0.00000000      -0.00542456      -0.00597380       0.00731669
C        4.95387475       8.57179339       3.55547626       0.00000000       0.00872581      -0.00685237      -0.00823219
C        0.03223482       1.45699967       3.77503065       0.00000000       0.00135168      -0.00686933      -0.00068128
C       -1.25125568       3.59267135       3.88731484       0.00000000       0.00207504       0.00720605       0.01573235
C       -2.48276064       5.73249875       3.64545284       0.00000000      -0.00334065       0.01066144       0.00241095
C       -3.68931153       7.87304236       3.49692420       0.00000000      -0.00460856       0.00066226      -0.00021766
C       -4.91149845      10.01847233       3.53560879       0.00000000      -0.00433073      -0.00839122       0.00520132
C        2.49446092       1.49824107       3.72442742       0.00000000       0.00307466      -0.00081660      -0.00503536
B        1.06844793       3.44250436       4.69344144       0.00000000       0.00738293       0.00659899      -0.00245960
C       -0.08172354       5.69531098       4.08181270       0.00000000      -0.00071823      -0.00086293      -0.01201558
C       -1.22669881       7.86951842       3.70091514       0.00000000      -0.00203140       0.00269232       0.00125612
C       -2.45459899      10.01849872       3.56688525       0.00000000       0.00292345      -0.01059782      -0.01296986
C        4.94860788       1.47028013       3.58298107       0.00000000      -0.00097871       0.00027731      -0.00934271
O        3.77996779       3.55439413       3.62367642       0.00000000      -0.00315655       0.01425578       0.00191609
C        1.25849675       7.91617350       3.89176257       0.00000000      -0.00238789       0.00248204       0.00810282
C        0.01151386      10.01034569       3.62283977       0.00000000      -0.00144516       0.00003629       0.01056197
C        7.41425935       1.45762644       3.55452447       0.00000000      -0.00697761      -0.00444196       0.00763872
C        6.16577696       3.59266484       3.51136649       0.00000000       0.00718288       0.00800983       0.00977107
C        4.94518751       5.72425149       3.58001886       0.00000000      -0.00162612      -0.00203629       0.01021238
C        3.74250761       7.84149441       3.74581056       0.00000000       0.00891241      -0.00244184      -0.01281736
C        2.49499435       9.99744772       3.64106856       0.00000000       0.00113575       0.00153864      -0.00237777
C        9.88886737       1.45721600       3.63868020       0.00000000       0.00805253       0.00538192       0.00740870
C        8.63635538       3.59349940       3.56886723       0.00000000       0.00349877      -0.00414824      -0.00464884
C        7.39985975       5.72795995       3.45345661       0.00000000      -0.00357473       0.00529232      -0.00530340
C        6.17774981       7.86588242       3.46649873       0.00000000       0.00338665      -0.01042096       0.00002690
C        4.95402854      10.00095288       3.57389145       0.00000000      -0.00473017      -0.00658190      -0.00125060
Ni       2.73380724       5.66982929       5.07209172       0.00000000       0.00168337       0.00078710       0.00764313
O        2.79651402       4.18170885       6.10208957       1.00000000      -0.01320931       0.00250481      -0.00389571
O        1.51007017       3.51311765       6.05503394       1.00000000      -0.00513349       0.00007884      -0.00057130
