52
Lattice="12.336457 0.0 0.0 -6.168228499999997 10.683685154694365 0.0 0.0 0.0 15.0" Properties=species:S:1:pos:R:3:forces:R:3 energy=-446.7654617787841 free_energy=-446.7654617787841 stress="0.002882232720003005 -0.004391331845613775 2.1561766606073434e-05 -0.004391331845613775 -0.004880654819544451 4.995428204142011e-05 2.1561766606073434e-05 4.995428204142011e-05 -8.489247639422044e-07" pbc="T T T"
C        0.05938359      -0.20002796       3.54853958      -0.00328995       0.00621942      -0.00747798
C       -1.18717092       1.94580789       3.53696752      -0.00025313       0.01737372      -0.01395365
C       -2.40261569       4.09362149       3.68896520       0.00902091       0.00073023       0.00987109
C       -3.60945993       6.22610534       3.77699255       0.00789420      -0.01476039       0.00568190
C       -4.84848994       8.35412326       3.69136809       0.00039571      -0.00864233       0.01712693
C        2.53990721      -0.24135680       3.64735970       0.00395941       0.01396039       0.00556351
C        1.29912690       1.87356433       3.46437052       0.00264265       0.00388826      -0.00126877
C        0.07502807       4.09460983       3.77838856       0.00443542      -0.00616531      -0.00528263
C       -1.12823379       6.21983403       3.99420030      -0.00242627      -0.00232226       0.00741977
C       -2.35835570       8.34656391       3.87063610       0.00171325       0.01348026       0.00206843
C        5.00034305      -0.17749530       3.83596749      -0.00160823       0.00195945       0.00342552
C        3.70469369       1.90292041       3.84077434      -0.00175321      -0.00738324      -0.00113620
B        1.43901008       7.03194392       5.96109238       0.01975379       0.00155420       0.04910073
C        0.10396689       8.38760078       4.16030214       0.00811074      -0.00840440      -0.02115227
C        7.46376062      -0.15925668       3.80609245      -0.00668528      -0.00332828       0.00683193
C        6.19355260       1.99853975       3.77061364      -0.01536636       0.00254444      -0.00052517
C        4.95069702       4.22410346       3.75672502      -0.00124359      -0.00051453       0.01443932
O        3.84504866       6.33461570       3.81831743      -0.00282794       0.01058286       0.00268768
C        2.54951137       8.37007428       4.04986863       0.00661450       0.00980015      -0.00056259
C        9.91936014      -0.17930567       3.63914298      -0.00357638      -0.00982322       0.01090295
C        8.67617167       1.97194983       3.64325924       0.00467974       0.00247155       0.01101994
C        7.43834781       4.11333238       3.70440868       0.00220134       0.00110568      -0.00906710
C        6.25399804       6.27222195       3.71758348      -0.00272580      -0.00934348      -0.00123595
C        5.00742225       8.38160319       3.73922567      -0.00395961      -0.00522880       0.00650617
C        0.05020532       1.22082328       3.48505649      -0.00742779       0.01432708       0.00407937
C       -1.17928649       3.36238677       3.62011268       0.00479596       0.01341695      -0.00997096
C       -2.37911194       5.51121436       3.81612785       0.00359093      -0.00832891       0.01149773
C       -3.60070965       7.64486575       3.78215978       0.00916711      -0.01067009      -0.00743725
C       -4.86711593       9.76477641       3.61160425       0.00372594       0.00139454       0.00731092
C        2.50988035       1.16374771       3.62646044      -0.00135062       0.00619823      -0.01105357
B        1.43098939       3.38225140       3.55419854      -0.00512233       0.00129985      -0.02115678
C        0.01878561       5.44336000       4.05906961       0.00465951       0.00128043       0.02340764
C       -1.11927890       7.65752391       4.04861235       0.00088157      -0.00085987      -0.00649599
C       -2.38200717       9.76450384       3.79159393       0.00065742       0.01604798       0.00769347
C        4.97747845       1.25891106       3.82403026      -0.00889219      -0.00454377       0.01011242
P        3.34227480       3.59100869       4.03437004       0.01448780      -0.01299642      -0.00313948
C        1.34741191       7.79660856       4.53430131       0.00215072      -0.00225704      -0.00784202
C        0.07008876       9.80310529       3.91453459      -0.00388892      -0.00512280      -0.01045691
C        7.43808351       1.27406833       3.72491943      -0.00713015       0.00406886       0.00228391
C        6.17407499       3.43396273       3.73481300      -0.00560962       0.00396989       0.00282858
C        5.02865198       5.62409265       3.74302847      -0.00193830      -0.00101061      -0.00905489
C        3.80708957       7.69723558       3.90021197       0.00156170      -0.00363680       0.01077700
C        2.53123361       9.79117832       3.79351614      -0.00389497      -0.00181435       0.00007813
C        9.91171708       1.24787082       3.58552689       0.00400760      -0.00240574      -0.01246481
C        8.67927178       3.39456946       3.66457825       0.00941798       0.00407215       0.00343899
C        7.47763583       5.53075081       3.72216264       0.00268535      -0.00366635       0.00128795
C        6.25304573       7.67702959       3.70998464      -0.00856849      -0.00881676      -0.01384336
C        4.99030712       9.79697381       3.63229567      -0.00098657      -0.00803443       0.00511605
Ni       1.60613896       4.88549592       4.81420889       0.00243523      -0.00617230      -0.00000373
O        2.31304594       6.06838262       6.14990305      -0.01223070      -0.00225558      -0.08253765
O        0.56844150       7.62533285       6.90641428      -0.02507858       0.12708309      -0.04297567
H        1.11506704       7.83373030       7.67848689       0.00218852      -0.12032158       0.05753734
