52
Lattice="12.336457 0.0 0.0 -6.168228499999997 10.683685154694365 0.0 0.0 0.0 15.0" Properties=species:S:1:pos:R:3:initial_magmoms:R:1:forces:R:3 energy=-453.763466455563 free_energy=-453.763466455563 stress="-0.0012095271453742779 0.0013937009753012162 2.895642978398935e-06 0.0013937009753012162 -0.0018732096147173734 4.701895994023355e-06 2.895642978398935e-06 4.701895994023355e-06 4.952414942603979e-06" pbc="T T T"
C       -0.02036847       0.04658359       3.72645273       0.00000000      -0.00170792      -0.00325478      -0.00293857
C       -1.25071114       2.18504742       3.80641679       0.00000000       0.00131237      -0.00579044       0.00088624
C       -2.47136712       4.32078826       3.82452376       0.00000000      -0.00374491       0.00375614       0.00021418
C       -3.71282210       6.45533008       3.77337541       0.00000000      -0.00180243       0.00479469       0.00355197
C       -4.96136205       8.59095736       3.69036743       0.00000000      -0.00227811       0.00202184       0.00039286
C        2.44738797       0.05138683       3.82535955       0.00000000      -0.00338114       0.00123995       0.00208151
C        1.20399560       2.18260367       4.00423245       0.00000000       0.00141472      -0.00061521      -0.00755717
C        0.00453889       4.31072309       4.03391966       0.00000000      -0.00049951      -0.00053041      -0.00086320
C       -1.23980605       6.46417028       3.86606471       0.00000000       0.00209691       0.00279486      -0.00262799
C       -2.49080547       8.59646086       3.77250134       0.00000000      -0.00351725      -0.00305164       0.00470248
C        4.91780335       0.04520233       3.73486907       0.00000000       0.00273684      -0.00274393       0.00214950
C        3.69679562       2.18321606       3.91853866       0.00000000       0.00580047       0.00223578       0.00372769
B        2.48316423       4.16376151       4.79064333       0.00000000       0.00926792       0.00694594      -0.00546486
C        1.20673625       6.49633318       3.83774247       0.00000000       0.00299855      -0.00203360       0.00526846
C       -0.02665692       8.59499727       3.67272901       0.00000000       0.00155454      -0.00270869      -0.00409912
C        7.38293514       0.04578875       3.60294839       0.00000000       0.00299959      -0.00020742      -0.00075219
C        6.16123365       2.16968863       3.72137902       0.00000000       0.00446847       0.00615450      -0.00754307
C        4.92444217       4.28931497       3.69053010       0.00000000      -0.00693487      -0.00413454      -0.00019460
S        3.92177580       6.49923106       2.03019178       0.00000000      -0.00067328      -0.00118547      -0.00755098
C        2.44146196       8.60884748       3.35120136       0.00000000      -0.00121712       0.00039697      -0.00172758
C        9.85288601       0.05385482       3.56798940       0.00000000      -0.00116012       0.00107476       0.00262156
C        8.62478482       2.18417964       3.69353782       0.00000000      -0.00015098      -0.00514357      -0.00005100
C        7.40030116       4.31449566       3.71356437       0.00000000       0.00012189      -0.00049011       0.00176156
C        6.15454786       6.45522970       3.56677432       0.00000000       0.00199345      -0.00227226      -0.00658079
C        4.92435266       8.60110030       3.42091776       0.00000000       0.00004318       0.00681437      -0.00163571
C       -0.02726111       1.46482813       3.83926795       0.00000000       0.00208835      -0.00620405       0.00008816
C       -1.24381389       3.60709413       3.88812634       0.00000000      -0.00241090      -0.00162723      -0.00215142
C       -2.47259656       5.74810426       3.83819056       0.00000000      -0.00076107       0.00780481       0.00275964
C       -3.72235367       7.87998153       3.75606357       0.00000000      -0.00439844       0.00202811       0.00171239
C       -4.95681403      10.01785593       3.75110510       0.00000000      -0.00298921      -0.00009919       0.00235030
C        2.45165532       1.46768104       3.94529478       0.00000000       0.00386926       0.00184581       0.00199002
C        1.17041710       3.57213355       4.19592963       0.00000000       0.00320338       0.00107974      -0.00671044
C        0.02087936       5.76522935       3.95562825       0.00000000       0.00135903       0.00004231       0.00017143
C       -1.25155019       7.88267219       3.77835590       0.00000000      -0.00022782       0.00039676      -0.00435822
C       -2.48686849      10.01914824       3.77633515       0.00000000      -0.00354645      -0.00259343       0.00024384
C        4.92799409       1.46326496       3.77226562       0.00000000       0.00712881       0.00161376      -0.00244566
C        3.74044319       3.59195188       4.03242238       0.00000000      -0.00347822      -0.00003751       0.00711514
C        1.21199160       7.87024935       3.58778479       0.00000000       0.00050350      -0.00140669      -0.00409868
C       -0.01887340      10.01666911       3.65267123       0.00000000       0.00400890      -0.00303190      -0.00028622
C        7.39185197       1.46455600       3.66644356       0.00000000       0.00078548      -0.00063070       0.00445039
C        6.17343283       3.59177886       3.70111297       0.00000000      -0.00302008       0.00482059      -0.00560338
C        4.93516797       5.70801999       3.36925797       0.00000000      -0.00167788      -0.00475826       0.01182047
C        3.68592909       7.93821121       3.10133216       0.00000000       0.00124459      -0.00128577       0.00547317
C        2.44972329      10.02577384       3.49297862       0.00000000       0.00105427      -0.00001789       0.00287408
C        9.85404891       1.47363420       3.68528346       0.00000000       0.00004166      -0.00358875       0.00297836
C        8.63259896       3.60747751       3.74675432       0.00000000      -0.00199607      -0.00421928       0.00351075
C        7.38905375       5.74128492       3.71125585       0.00000000       0.00234197       0.00007955       0.00023600
C        6.14264340       7.87682059       3.53824341       0.00000000       0.00089272       0.00288735      -0.00601997
C        4.91576379      10.01944060       3.57698871       0.00000000      -0.00184236       0.00459547      -0.00369022
Ni       2.98021527       5.95900176       3.78596201       0.00000000      -0.00478030       0.00639832       0.01508927
O        3.40349578       5.23637903       6.39786222       1.00000000      -0.00189559       0.00269608       0.00907555
O        2.46126868       4.26150365       6.25932321       1.00000000      -0.00523878      -0.01085576      -0.01434595
