52
Lattice="12.336457 0.0 0.0 -6.168228499999997 10.683685154694365 0.0 0.0 0.0 15.0" Properties=species:S:1:pos:R:3:forces:R:3 energy=-445.90980221277374 free_energy=-445.90980221277374 stress="-0.002586247911652711 0.000891757108150694 -1.3001861920408792e-06 0.000891757108150694 0.005268775021060681 -1.4794696414810228e-05 -1.3001861920408792e-06 -1.4794696414810228e-05 1.3591883682681628e-05" pbc="T T T"
C        0.08673387      -0.03447975       3.73569523      -0.00115808      -0.00063787      -0.00536509
C       -1.14826783       2.09398801       3.58575334       0.00892291       0.00160345       0.00470236
C       -2.36420402       4.23405536       3.58526922       0.00068154      -0.00112488       0.00423426
C       -3.59763209       6.37173974       3.71874653      -0.00092731      -0.00279713       0.00533711
C       -4.84812683       8.51611131       3.80803313      -0.01033478       0.00410835      -0.00414350
C        2.54130454       0.01122558       3.76412132      -0.00031496      -0.00393007      -0.00383210
C        1.28559575       2.12793778       3.64941177      -0.00023471      -0.00093617       0.00330469
C        0.07051786       4.23533262       3.44243452       0.00025581       0.00070105       0.00256806
C       -1.13712976       6.36073214       3.53763562       0.00540588      -0.00003271       0.00254146
C       -2.38214818       8.51766568       3.68721731      -0.00322414       0.00281458      -0.00485659
C        5.01839033      -0.03256963       3.73963327       0.00487378      -0.00052985       0.00203857
C        3.79145314       2.14089406       3.94936016      -0.00036191       0.00235674       0.00405130
O        1.24795401       6.38377046       3.55185771      -0.00835024       0.00798950       0.00641084
C        0.07722736       8.48513014       3.63844409      -0.00463757      -0.00174043       0.00969638
C        7.48903843      -0.07054813       3.68830968      -0.00338493      -0.00256386      -0.00368409
C        6.27736819       2.07223830       3.80429925       0.00103070       0.00003211       0.00259160
C        5.11039107       4.18955752       4.14275888       0.01025644      -0.00181080      -0.00617251
B        3.87252236       6.36547936       4.32364057       0.00683538      -0.00046435      -0.00293048
C        2.52055762       8.45105581       3.77506355      -0.00000761      -0.00251808      -0.00630169
C        9.94901548      -0.07001506       3.70058909       0.00058711       0.00055570      -0.00233495
C        8.73137035       2.07625704       3.65914499       0.00208561       0.00280694       0.00223484
C        7.53421688       4.22109346       3.79452219      -0.00505963      -0.00520221      -0.00258710
C        6.29562330       6.36291888       3.97757660      -0.00316789      -0.00539081      -0.00325742
C        5.01260208       8.49196184       3.89568248       0.00162702       0.00111708      -0.00335715
C        0.08397043       1.39744093       3.64756529       0.00425421      -0.00376633       0.00139621
C       -1.13349368       3.52709181       3.51579361       0.00238713      -0.00002431       0.00474414
C       -2.36673635       5.65281241       3.60247911       0.00642940      -0.00105052       0.00642232
C       -3.61440532       7.80308613       3.73829436      -0.00799808       0.00375762       0.00241248
C       -4.84857067       9.95274358       3.77043285      -0.00420141       0.00225220      -0.01304737
C        2.52776081       1.44764184       3.79439794      -0.00107796      -0.00392728       0.00281458
O        1.23871469       3.49383323       3.47352722      -0.00588007      -0.00283738      -0.00060974
C        0.07240349       5.65279084       3.45788852       0.00191277       0.00076046       0.00089814
C       -1.15761428       7.79116508       3.61055481      -0.00173008      -0.00062259       0.00175715
C       -2.39201282       9.95571957       3.73732635       0.00351859       0.00145315      -0.00369760
C        5.02410193       1.39143224       3.83029202       0.00218462       0.00073252      -0.00339245
C        3.91031024       3.49205838       4.26042824       0.00354638       0.00914703      -0.00766694
C        1.27774069       7.75483041       3.65737402      -0.00485586       0.00433958      -0.00456591
C        0.08317516       9.91700667       3.68855136      -0.00181267      -0.00472570       0.00430477
C        7.50238932       1.35722680       3.70720029       0.00007382       0.00027998       0.00091853
C        6.31912559       3.48746314       3.89230578       0.00236382      -0.00406312      -0.00218992
C        5.11998722       5.61052624       4.17862317       0.00072857      -0.00491057      -0.00155577
C        3.76426458       7.79387528       3.96922836       0.00183958       0.00640305       0.00367866
C        2.54171454       9.88462387       3.70492555      -0.00263985      -0.00186648       0.00234148
C        9.96354434       1.36698152       3.63556124       0.00625126       0.00390056      -0.00707035
C        8.74782416       3.50764429       3.66754704      -0.00331008       0.00197349       0.00413769
C        7.52899985       5.65112943       3.83226847      -0.00365186      -0.00701341      -0.00059431
C        6.25950598       7.79216550       3.91059718      -0.00299825      -0.00331930       0.00322219
C        5.02057429       9.91998078       3.76677309       0.00078540      -0.00055072       0.00489613
Ni       3.00071324       4.80422733       5.21577200      -0.00021459      -0.00122041       0.00258410
O        1.34842322       4.82989430       5.81456232       0.00133326       0.00781502      -0.00279404
O        1.04713065       6.18754682       6.27184112       0.01405030      -0.00735767       0.00899223
H        0.68823195       5.97829323       7.16158909      -0.01268678       0.01003485      -0.00922521
