52
Lattice="12.336457 0.0 0.0 -6.168228499999997 10.683685154694365 0.0 0.0 0.0 15.0" Properties=species:S:1:pos:R:3:initial_magmoms:R:1:forces:R:3 energy=-455.0166861583901 free_energy=-455.0166861583901 stress="-0.004254705021031844 0.0007021410734630835 -1.3319030190393124e-06 0.0007021410734630835 0.0016373408821484412 -3.623986139494652e-06 -1.3319030190393124e-06 -3.623986139494652e-06 7.285772063861945e-06" pbc="T T T"
C        0.00166559       0.06351660       3.73727121       0.00000000       0.00241082      -0.00253842       0.00002905
C       -1.23703858       2.18927740       3.87209108       0.00000000       0.00276337      -0.00168386      -0.00262170
C       -2.46458365       4.33241271       3.90735999       0.00000000      -0.00278993       0.00459993       0.00100578
C       -3.69489091       6.47315668       3.81571064       0.00000000      -0.00313564      -0.00136415       0.00219998
C       -4.93212084       8.61364313       3.67833403       0.00000000      -0.00016243       0.00074052      -0.00294927
C        2.46987834       0.07715937       3.80916004       0.00000000      -0.00835190       0.01019795      -0.01388534
C        1.22683948       2.21016402       3.94440483       0.00000000      -0.00270027      -0.00193743      -0.00756698
C       -0.01295402       4.34804704       3.97710748       0.00000000       0.00445913       0.00198022       0.00145313
C       -1.24207837       6.48519895       3.85529900       0.00000000       0.00511872      -0.00299806       0.00166218
C       -2.46779731       8.61555393       3.78212473       0.00000000       0.00009382       0.00478857      -0.00052541
C        4.94252413       0.05645709       3.77432312       0.00000000       0.00649597       0.00448116      -0.00373013
C        3.71705053       2.21228891       3.87084749       0.00000000       0.00036029      -0.00115100      -0.00627138
B        2.51183246       4.11871662       4.79758506       0.00000000      -0.00347480       0.01067591      -0.00015791
N        1.13396751       6.45797026       3.46278749       0.00000000       0.00229628       0.00224920      -0.00046241
C        0.00056923       8.58291349       3.66302871       0.00000000      -0.00084050      -0.00555120       0.00356989
C        7.41062389       0.03438115       3.71289858       0.00000000      -0.00021018      -0.00279514       0.00151939
C        6.18865365       2.17984022       3.82219012       0.00000000      -0.00193695       0.00122732      -0.00670595
C        4.97583594       4.32370851       3.71544672       0.00000000       0.00606695      -0.00356673       0.00118032
P        3.80605389       6.41528472       2.28753537       0.00000000       0.00314200      -0.00283657       0.00244414
C        2.45950178       8.57296261       3.40687844       0.00000000      -0.00453285      -0.00244175       0.00738364
C        9.86789147       0.04150362       3.68155670       0.00000000       0.00102257      -0.00366466      -0.00885831
C        8.64365085       2.18142036       3.83350588       0.00000000      -0.00678008      -0.00446088      -0.00778550
C        7.42431085       4.32641824       3.82179461       0.00000000      -0.00319248      -0.00446942      -0.00060820
C        6.20262249       6.46654427       3.55056656       0.00000000       0.00826076       0.00644036      -0.00209241
C        4.94481279       8.61009450       3.43742025       0.00000000      -0.00338233       0.00514287       0.00220282
C       -0.00284191       1.48622347       3.84556171       0.00000000       0.00159382      -0.00553304       0.00567297
C       -1.23746049       3.61978767       3.93708213       0.00000000       0.00198567       0.00461674       0.00028955
C       -2.46590668       5.75995232       3.88878783       0.00000000      -0.00089195       0.00334260      -0.00763887
C       -3.69883601       7.90058374       3.76474351       0.00000000      -0.00122333      -0.00045800       0.00964464
C       -4.92943695      10.04249345       3.73989503       0.00000000      -0.00240886      -0.00057275      -0.00843049
C        2.47174517       1.50543463       3.89585832       0.00000000      -0.00360879       0.00672329       0.00045319
C        1.20201496       3.63294371       4.07797525       0.00000000       0.00012102      -0.00652112      -0.00087583
C       -0.01611622       5.78559041       3.81766200       0.00000000       0.00813640       0.00274196       0.00794333
C       -1.23435648       7.89891351       3.77136256       0.00000000       0.00038064      -0.00436132       0.00203762
C       -2.46603625      10.04163206       3.78399379       0.00000000      -0.00246793       0.01207135      -0.00300502
C        4.94854712       1.47988494       3.80853309       0.00000000       0.00328668       0.00347656      -0.00532786
C        3.73914036       3.63696862       3.90911507       0.00000000       0.00011845      -0.00471645      -0.00821166
C        1.20749648       7.83703663       3.48457045       0.00000000      -0.00470421       0.00026623       0.00609869
C        0.00592794      10.01140144       3.71117054       0.00000000       0.00430493      -0.00428702       0.00135680
C        7.41573872       1.46163259       3.79668476       0.00000000      -0.00772961      -0.00231768       0.00437662
C        6.19870363       3.60585755       3.81114169       0.00000000       0.00006926      -0.00333601      -0.00305946
C        5.02046736       5.70983749       3.37743866       0.00000000       0.01135384       0.00066957       0.00655590
C        3.70686589       7.93785044       3.19516563       0.00000000      -0.00543979      -0.00416141       0.00754402
C        2.46585416       9.99814152       3.61379267       0.00000000      -0.00053861      -0.00294598       0.00102933
C        9.87089784       1.46726416       3.80465394       0.00000000      -0.00131237      -0.00436172      -0.00250203
C        8.64770210       3.61105206       3.86912411       0.00000000      -0.00424144      -0.00233038       0.00682840
C        7.42327260       5.75374510       3.75944681       0.00000000       0.00034995      -0.00418542      -0.00249969
C        6.18286644       7.89838119       3.51879688       0.00000000      -0.00131367       0.00833667       0.00587827
C        4.93971876      10.02950716       3.62541904       0.00000000       0.00240860       0.00036155       0.00948066
Ni       2.31625353       5.14562948       2.97397855       0.00000000      -0.00314343      -0.00090900       0.00235926
O        2.94222799       5.58145912       6.16833547       1.00000000       0.00822835       0.00208472      -0.00616906
O        2.55519484       4.27113583       6.22431690       1.00000000      -0.00431394      -0.00475866       0.00974131
