52
Lattice="12.336457 0.0 0.0 -6.168228499999997 10.683685154694365 0.0 0.0 0.0 15.0" Properties=species:S:1:pos:R:3:forces:R:3 energy=-446.1575294625305 free_energy=-446.1575294625305 stress="-0.008489001801751207 0.0010921888211780275 3.0556671523894356e-05 0.0010921888211780275 -0.0017139906189545073 2.1947003110736293e-05 3.0556671523894356e-05 2.1947003110736293e-05 1.0764348054420372e-05" pbc="T T T"
C       -0.09508248       0.08981078       3.82852644      -0.00248232       0.00059342      -0.00328863
C       -1.33728303       2.21553216       3.78848985      -0.00864019       0.01472313       0.00377824
C       -2.60502791       4.36434538       3.77718710       0.00425770      -0.00033170      -0.00231500
C       -3.82066342       6.51182193       3.80838707       0.00895670       0.00060654      -0.00160117
C       -5.02953834       8.65187934       3.84134284      -0.00739737      -0.00266398      -0.01126694
C        2.38508530       0.12104887       3.80432317       0.00436539      -0.00130995       0.00845822
C        1.15078800       2.22514534       3.77809872       0.00214218      -0.00410960       0.00508460
C       -0.19605922       4.38069405       3.69090954      -0.00041592       0.00262671      -0.01343852
C       -1.38656879       6.52258575       3.69931091       0.00330656      -0.00561092       0.00644888
C       -2.57227778       8.65707329       3.76601144      -0.00409780       0.00865275      -0.00180325
C        4.84024407       0.10551186       3.72520582      -0.00119171       0.00056111       0.01528720
C        3.64814693       2.23330815       3.78501499       0.00270474       0.00258126       0.00259082
B        1.07336907       6.50532273       3.54596054      -0.00441577      -0.00252393       0.00455217
C       -0.10547913       8.64798796       3.68034045      -0.00576708      -0.00188951       0.00120863
C        7.31597468       0.07481387       3.74112505      -0.00015025       0.00835290      -0.00526044
C        6.08772661       2.21931229       3.73279410      -0.00746679      -0.00501851      -0.00393411
C        4.88571970       4.35900284       3.78234959       0.00319223       0.00167849      -0.00292548
N        3.67411059       6.49721003       3.78201753       0.00354037      -0.00482517       0.00573340
C        2.39024912       8.61099333       3.72914722       0.01206748      -0.00912340      -0.00094247
C        9.77720562       0.07372947       3.80403407       0.00720439       0.00159420      -0.01181239
C        8.54164638       2.21600684       3.77993735       0.00532733      -0.00123835       0.00396753
C        7.29755582       4.36503022       3.78768866       0.00805634      -0.00096297      -0.00446423
C        6.07412693       6.50534444       3.84288597      -0.00797334       0.00900166       0.00149633
C        4.84304706       8.61627514       3.83065864      -0.00517538      -0.00166883      -0.00686968
C       -0.09082970       1.51849206       3.79953400      -0.00934113       0.00593745       0.00773609
C       -1.37870336       3.63797262       3.75591447      -0.00338635       0.01239574       0.00160511
C       -2.61063663       5.79464154       3.76520281       0.00896501      -0.00769022      -0.00250588
C       -3.80447384       7.94033466       3.81178490       0.00024292       0.00377819      -0.00285517
C       -5.02126376      10.08110367       3.82983476       0.00185692      -0.00365255       0.00721739
C        2.40686562       1.55644068       3.79392125       0.00728515      -0.00389004       0.00388190
B        1.09277554       3.68525691       3.70225755      -0.00561903      -0.00131144      -0.00368601
C       -0.20671655       5.78124178       3.64106517       0.00350941      -0.00309690      -0.01269554
C       -1.34804031       7.94667751       3.70616992      -0.00725034      -0.00141663       0.00573525
C       -2.56345500      10.08547683       3.76764595       0.00293731       0.00527913       0.00434687
C        4.85032655       1.53317351       3.73589752      -0.00352859      -0.00722257       0.00459793
O        3.72018564       3.61771861       3.93109202      -0.00154522      -0.00036114       0.00523029
C        1.14280421       7.95975240       3.63932315       0.00291011      -0.00274973      -0.00034630
C       -0.09650880      10.06783317       3.71503406      -0.00347967       0.00141332       0.00084437
C        7.30918470       1.50511501       3.74573403       0.00014500       0.00777223      -0.00389936
C        6.07494528       3.64151140       3.75693950      -0.00148981      -0.00030717       0.00368306
C        4.85669870       5.78551914       3.81734838      -0.00000557       0.00174899       0.00022154
C        3.62417158       7.86500304       3.78061946       0.00902198      -0.01059988      -0.00383571
C        2.38483965      10.03890056       3.76496321       0.00532157      -0.00117396      -0.00155890
C        9.77218236       1.49955538       3.79694218       0.00183905       0.00485091       0.00371299
C        8.52140300       3.64446217       3.78926965       0.00822546      -0.00594071      -0.00379359
C        7.29218915       5.78753232       3.82416725      -0.00198890       0.00616746       0.00117843
C        6.07407345       7.92723446       3.84946569      -0.01157601       0.00388011       0.00378459
C        4.84059718      10.04549996       3.82680253       0.00036136      -0.00349035      -0.00028370
Ni       2.39001351       5.16602422       3.69093402       0.00621967       0.00396329      -0.00115171
O        4.84717825       2.68572285       6.23072327      -0.00419204      -0.00110755       0.00575647
O        4.49612543       3.92470372       6.63815960      -0.00553523      -0.00112777      -0.00564884
H        3.69370236       3.77915252       7.18552761      -0.00985050      -0.01174356      -0.00595527
