52
Lattice="12.336457 0.0 0.0 -6.168228499999997 10.683685154694365 0.0 0.0 0.0 15.0" Properties=species:S:1:pos:R:3:forces:R:3 energy=-445.08920043502985 free_energy=-445.08920043502985 stress="-0.005416044002697261 -0.0008325011395864268 -2.8089494263594783e-05 -0.0008325011395864268 0.0008743230262327798 2.388179365756371e-05 -2.8089494263594783e-05 2.388179365756371e-05 -1.9924879165795744e-05" pbc="T T T"
C       -0.08620625      -0.07632317       3.80943172      -0.00403006      -0.00278909       0.00258150
C       -1.33724532       2.04966558       3.78023090       0.00588026       0.00438033       0.00073938
C       -2.57501414       4.19358172       4.10621636      -0.00067489       0.00233419       0.01209829
C       -3.79141885       6.34691213       4.21558657       0.00737206      -0.01162478      -0.00641159
C       -5.01724048       8.49029274       4.03570618      -0.00165972       0.00251310       0.00582776
C        2.38406091      -0.06482529       3.80384797      -0.00235422       0.00490586       0.00215034
C        1.13299604       2.00995749       3.33844189       0.00352076      -0.00430306      -0.00698369
C       -0.20420423       4.24312822       3.62701706      -0.00415648       0.00249797       0.00380038
C       -1.36087913       6.35656330       4.10374057       0.00184601       0.00408842      -0.00002183
C       -2.56160483       8.49113183       4.09544108      -0.00451134      -0.00279377       0.00819964
C        4.85311770      -0.08269764       3.86687539      -0.00165678      -0.00114307       0.00078866
C        3.64794875       1.98849176       3.32950284      -0.00349826       0.00344259      -0.00873256
C        1.04696148       6.32400569       3.57635611      -0.01147780      -0.00042481       0.01206146
C       -0.08969469       8.45138011       3.93664489       0.00180471      -0.00552581      -0.00553274
C        7.32241236      -0.10872966       3.87885101       0.00235039       0.00235961       0.01426485
C        6.09034404       2.05344419       3.80169387      -0.00363619      -0.00104255      -0.00203757
C        4.97266708       4.26227008       3.55735113       0.00639855      -0.01051522      -0.00281276
N        3.74561139       6.34795399       3.52882002       0.00227647       0.00461981       0.00541227
C        2.39863931       8.41142124       3.73574664       0.00107477       0.00617609       0.01111891
C        9.77716696      -0.10471282       3.84793956       0.00487241       0.00654388       0.00545567
C        8.54581648       2.04333531       3.98916179      -0.00026646       0.00397277      -0.00299188
C        7.32232474       4.19670448       4.10180700       0.00150592      -0.00119335       0.00923677
C        6.10996408       6.36266934       4.00371088      -0.00528807      -0.00607801       0.01076196
C        4.86100222       8.45484912       3.82866733      -0.00562912      -0.00184129      -0.00606396
C       -0.09198558       1.34709153       3.64184269       0.00405815      -0.00384979      -0.00933207
C       -1.36206600       3.47969750       3.86085031      -0.00403000       0.00482185       0.00089539
C       -2.57285178       5.62518645       4.18910501       0.00931043      -0.00218653      -0.00332746
C       -3.78820449       7.77670854       4.15141626      -0.00181447      -0.00862395      -0.01222942
C       -5.01722787       9.91133533       3.89716639      -0.00173977       0.00371233      -0.00100771
C        2.38464411       1.33833516       3.47070606       0.00073844      -0.00179183      -0.00879323
P        0.99219195       3.60067540       2.53196320      -0.00283182       0.01378059       0.00023398
C       -0.15897630       5.65795702       3.80181682      -0.00828879       0.00165547       0.00420391
C       -1.33106099       7.77256923       4.08210456      -0.00041517       0.00087093       0.00260269
C       -2.55686200       9.90860082       3.93710485      -0.00506215       0.00059349       0.00481786
C        4.85979915       1.34095021       3.67744560      -0.00480221      -0.00022762      -0.01581118
S        3.80139104       3.53755054       2.50345935      -0.00479422      -0.00174975       0.00145024
C        1.14162170       7.69770185       3.76040864       0.00157748      -0.00124911      -0.00301377
C       -0.08154319       9.87228080       3.91149614       0.00358148      -0.00590398      -0.00708914
C        7.31229779       1.32895194       3.91420119      -0.00182676       0.00404576      -0.00729587
C        6.10641009       3.48480784       3.86494436       0.00572466      -0.00439008       0.00133022
C        4.92162328       5.66989221       3.72150524      -0.00033055      -0.00665627      -0.00940339
C        3.64990180       7.70949543       3.68920024      -0.00279522       0.00389634       0.00207872
C        2.38638591       9.84205622       3.83255355       0.00445150       0.00714424       0.00458219
C        9.77764917       1.32770445       3.89496884       0.00450014       0.00697262      -0.00705317
C        8.54380082       3.47209102       4.10907596      -0.00125897       0.00349884      -0.00839161
C        7.32124754       5.62819294       4.14690063       0.00271315      -0.00574750       0.00793249
C        6.09306910       7.77670580       3.96602360      -0.00522165      -0.00304186      -0.00145910
C        4.84899891       9.87932200       3.83714591      -0.00288920      -0.00073538      -0.01363803
Ni       2.42914049       5.12888345       3.10777165       0.00750924       0.00182594       0.00342545
O        4.65029387       7.02710353       6.31899930      -0.00988836       0.00701509       0.00553053
O        3.75959909       6.04626707       6.58452984       0.01850815      -0.00341244       0.00434409
H        3.94526118       5.80694063       7.52124179       0.00525357      -0.00882720       0.00150816
