52
Lattice="12.336457 0.0 0.0 -6.168228499999997 10.683685154694365 0.0 0.0 0.0 15.0" Properties=species:S:1:pos:R:3:forces:R:3 energy=-444.2675282066682 free_energy=-444.2675282066682 stress="-0.004687274845096413 -0.00586838331582231 -1.197574368448069e-05 -0.00586838331582231 -0.00504749323126351 6.635051211180388e-06 -1.197574368448069e-05 6.635051211180388e-06 1.6490478276722405e-05" pbc="T T T"
C        0.05965904      -0.09417999       3.74004406       0.00359265      -0.00057763       0.00345785
C       -1.21785134       2.01806408       3.71448122       0.00522732       0.01539736       0.00240994
C       -2.43283560       4.17311856       3.77182764      -0.00766712       0.00355906       0.00167603
C       -3.61446428       6.32009738       3.80403654      -0.00042598      -0.00349908       0.00396711
C       -4.84383667       8.46970789       3.80646627      -0.00398064      -0.00736913      -0.00463004
C        2.52149503      -0.07804873       3.87002013       0.00037859       0.00281261      -0.00232713
C        1.21922822       2.01353052       3.85649071       0.00190604      -0.01050452       0.00568081
C       -0.03312796       4.08183629       4.06886400       0.00644849       0.00759233      -0.00220647
C       -1.14382398       6.26810598       4.06344995       0.00031194       0.00113186       0.00456452
C       -2.37684777       8.44397236       3.96911287      -0.00387013      -0.00088227      -0.00673225
C        4.98749383      -0.08840265       3.85403935      -0.00083069      -0.00291364      -0.00009493
C        3.71498995       2.01885022       3.51616257      -0.00014975       0.00078276      -0.00101267
P        1.58422992       6.13071224       4.79185342       0.00499266      -0.00970716      -0.00704587
C        0.08675197       8.45305622       4.11496001       0.00017794       0.00070729      -0.00250983
C        7.44150811      -0.07661516       3.80094733      -0.00719044       0.00192727      -0.00312953
C        6.19375616       2.05891436       3.58043322      -0.00342856       0.00057078       0.00391788
C        5.00247432       4.24204767       3.38991013       0.00832480       0.00236082       0.00427752
C        3.86618365       6.41209510       3.75877704      -0.00134344       0.00194505      -0.00775857
C        2.53224637       8.49534416       3.95455887      -0.00221982       0.00513121       0.00369526
C        9.91400339      -0.08853425       3.70321095      -0.00315632      -0.00090737       0.00084114
C        8.66004578       2.04811413       3.65440901      -0.00004857      -0.00480422       0.00005363
C        7.45151177       4.19784087       3.62273054       0.00117737      -0.00299298      -0.00440817
C        6.28020918       6.36290554       3.63238518       0.00390713      -0.00670434      -0.00733237
C        5.02279744       8.48282005       3.72952243       0.00429241       0.00341256       0.00770275
C        0.02464327       1.31978069       3.74223546      -0.00075890       0.00074278       0.00402493
C       -1.22684839       3.42404704       3.80933939       0.00117846       0.01705803       0.00423213
C       -2.39343258       5.59068520       3.87166443      -0.00157971       0.00064679       0.00327229
C       -3.61299450       7.74499022       3.86880552      -0.00401600      -0.00518687      -0.00165990
C       -4.86589141       9.89105027       3.82447851       0.00279408      -0.00322095       0.00012475
C        2.48603901       1.35187519       3.77367977       0.00214116       0.00182163       0.00300192
O        1.11260040       3.32331309       4.25794449      -0.00021978      -0.00290914      -0.00118516
C        0.02248619       5.46254106       4.22870881       0.00132333       0.00553299       0.00206060
C       -1.14335290       7.71643296       4.07635045      -0.00128978       0.00298949       0.00719029
C       -2.40459398       9.88010497       3.91843213      -0.00245883       0.00099890      -0.00249911
C        4.96217770       1.33890561       3.64342553      -0.00129085      -0.00147092       0.00407799
P        3.69473979       3.45257493       2.45655757       0.00208846       0.00521853       0.00023077
C        1.35004553       7.81778677       4.26149667      -0.00145817      -0.00387400      -0.00749811
C        0.05508482       9.88584163       3.92888331      -0.00196577      -0.00202787      -0.00509244
C        7.42739105       1.34385115       3.66911001      -0.00456580       0.00042503       0.00445941
C        6.21993850       3.48167901       3.51073491       0.00143067       0.00025756      -0.00386043
C        5.02839242       5.67929932       3.56007844       0.00279662       0.00142248      -0.00281760
C        3.78470769       7.78881415       3.81673328      -0.00032228       0.00632056      -0.00492350
C        2.51315590       9.90582145       3.79904152      -0.00807061       0.00190143       0.00304785
C        9.89670777       1.32772637       3.66940642       0.00621418       0.00295772      -0.00133252
C        8.66848515       3.47289177       3.66869107      -0.00344665      -0.00462087       0.00331422
C        7.48717510       5.62199827       3.67339835       0.00317007      -0.00494498      -0.00090839
C        6.25884765       7.77377270       3.71666338       0.00042359      -0.00743228      -0.00079291
C        4.99547476       9.89226323       3.71499216       0.00179140       0.00241636       0.01196825
Ni       3.19843386       4.77685001       4.03480423      -0.00676030      -0.01453562      -0.00595624
O        1.39702861       6.01934545       6.40230896      -0.00326498       0.00716347      -0.00362188
O        2.41437677       6.95499696       7.08724171       0.00066273      -0.00256741       0.00422542
H        2.80012991       6.27881324       7.68015573       0.00902777      -0.00155147      -0.00613921
