51
Lattice="12.336457 0.0 0.0 -6.168228499999997 10.683685154694365 0.0 0.0 0.0 15.0" Properties=species:S:1:pos:R:3:initial_magmoms:R:1:forces:R:3 energy=-438.7840015103162 free_energy=-438.7840015103162 stress="0.0019268964918574489 -0.0001228190136857018 3.8283034162911565e-06 -0.0001228190136857018 0.00018781475445953097 -3.7672886182741913e-06 3.8283034162911565e-06 -3.7672886182741913e-06 1.0798366290709097e-07" pbc="T T T"
C        0.00513434       0.02747591       3.79966576       0.00000000      -0.00107478      -0.00064302       0.00242723
C       -1.24061846       2.15851861       3.60487485       0.00000000      -0.00541936      -0.00264497      -0.00579993
C       -2.49962993       4.29720779       3.65921339       0.00000000       0.00128956       0.00941604      -0.00454961
C       -3.72563707       6.43125464       3.78771218       0.00000000       0.00115949       0.00150574       0.00729693
C       -4.93790511       8.56673009       3.86370009       0.00000000       0.00321507      -0.00049799      -0.00557742
C        2.47768049       0.03814995       3.86159743       0.00000000      -0.00608467       0.00241032      -0.00450411
C        1.25430514       2.11309819       3.40996385       0.00000000       0.00142541       0.00235156       0.00268455
C       -0.09022693       4.28811099       3.15538620       0.00000000       0.00301328      -0.00383913      -0.00131452
C       -1.25017092       6.43475091       3.58328048       0.00000000      -0.00107711       0.00137466       0.00241276
C       -2.46522028       8.56233795       3.84185046       0.00000000       0.00003729       0.00361183       0.00034228
C        4.93360204       0.01433813       3.92845688       0.00000000      -0.00055912      -0.00039589       0.00225278
C        3.73117498       2.15322534       3.84625787       0.00000000       0.00585005      -0.00238232      -0.00645917
P        1.49031146       6.45875520       2.62510973       0.00000000      -0.00076005      -0.00565345      -0.00494545
C        0.00851110       8.56082249       3.78179424       0.00000000       0.00035608      -0.00417425      -0.00219145
C        7.39864621       0.03190770       3.94062976       0.00000000      -0.00338336       0.00337295       0.00164761
C        6.15858365       2.16429617       3.93928671       0.00000000       0.00051697       0.00320573       0.00055707
C        4.90571975       4.26553787       3.84286373       0.00000000      -0.00435985      -0.00352604      -0.01109223
C        3.63285556       6.45978928       3.65484639       0.00000000      -0.00006859      -0.00670174       0.00920384
C        2.48345898       8.60440225       3.82831533       0.00000000       0.00422658       0.00290073       0.00245285
C        9.87732112       0.03975723       3.87687006       0.00000000       0.00039451      -0.00294037      -0.00049031
C        8.62826904       2.16879069       3.84859190       0.00000000       0.00140636      -0.00085892       0.00174663
C        7.36804655       4.30318014       3.83448182       0.00000000       0.00118409      -0.00329545       0.00322255
C        6.11170171       6.41504530       3.80817944       0.00000000       0.00501204       0.00554057      -0.00053300
C        4.94159830       8.57352104       3.85155690       0.00000000      -0.00099164       0.00373433       0.00507883
C        0.00877064       1.44947878       3.60821481       0.00000000      -0.00120567      -0.00039128      -0.00270089
C       -1.27754355       3.57359263       3.46810027       0.00000000      -0.00124055       0.00166635       0.00389911
C       -2.49160366       5.72361016       3.68459703       0.00000000       0.00032811       0.00830231      -0.00090063
C       -3.70769339       7.85431619       3.83773884       0.00000000       0.00353483       0.00023354      -0.00400514
C       -4.92938760       9.99679308       3.85280256       0.00000000      -0.00280272      -0.00244857      -0.00373547
C        2.48831681       1.46744165       3.73267567       0.00000000       0.00248113       0.00263085       0.00161904
P        1.29944587       3.54533120       2.39417155       0.00000000       0.00185454      -0.00120522      -0.00254707
C       -0.04778845       5.70565397       3.31584904       0.00000000      -0.00415563      -0.00453927      -0.00202387
C       -1.23041127       7.85224310       3.73739706       0.00000000      -0.00149071      -0.00064970       0.00300838
C       -2.46585771       9.99254184       3.90050355       0.00000000      -0.00475251       0.00505360      -0.00302356
C        4.93037252       1.44944817       3.93749407       0.00000000       0.00565674      -0.00095905      -0.00115930
O        3.74254260       3.52919761       3.96276471       0.00000000      -0.00624497      -0.00142436       0.00139350
C        1.27191768       7.87257952       3.70490428       0.00000000       0.00564307       0.00169611       0.00036272
C        0.00280097       9.98340047       3.91190126       0.00000000      -0.00193545      -0.00422309       0.00519317
C        7.39050317       1.45935147       3.93155937       0.00000000      -0.00112774       0.00410276       0.00264934
C        6.12919997       3.58774486       3.88303468       0.00000000      -0.00317297       0.00050862       0.00285723
C        4.83874762       5.69791972       3.76845727       0.00000000       0.00471662      -0.00103033      -0.00140722
C        3.70253144       7.85718667       3.78092033       0.00000000       0.00194481      -0.00355935       0.00259462
C        2.47235344      10.01735176       3.92014980       0.00000000      -0.00093664       0.00428157       0.00315816
C        9.87130280       1.45846240       3.79665639       0.00000000      -0.00311723      -0.00577669      -0.00241028
C        8.61025110       3.59168639       3.79408139       0.00000000       0.00500415       0.00118692      -0.00427764
C        7.35803580       5.72114281       3.81105767       0.00000000       0.00276924      -0.00181247       0.00609037
C        6.15669609       7.84630741       3.84223313       0.00000000       0.00128351       0.00769399       0.00197599
C        4.94098501      10.00263263       3.85652467       0.00000000       0.00016246       0.00107908       0.00335435
Ni       1.93853810       5.71751576       4.46936908       0.00000000      -0.00751264      -0.01163817       0.00187857
O        2.77230058       4.96969147       6.03716395       1.00000000       0.00842426       0.01504485      -0.00129792
O        1.64825905       4.35781006       5.75247485       1.00000000      -0.00941628      -0.01569390      -0.00441427
