51
Lattice="12.336457 0.0 0.0 -6.168228499999997 10.683685154694365 0.0 0.0 0.0 15.0" Properties=species:S:1:pos:R:3:initial_magmoms:R:1:forces:R:3 energy=-439.2565021248521 free_energy=-439.2565021248521 stress="-0.004474296795148591 -0.005418833249572766 -8.288317752826009e-06 -0.005418833249572766 -0.004350099072849123 1.2976873070245708e-05 -8.288317752826009e-06 1.2976873070245708e-05 -1.636792149301878e-05" pbc="T T T"
C        0.11320079       0.09278205       3.72943922       0.00000000      -0.00819159       0.01062855      -0.01145771
C       -1.16131286       2.20599069       3.72158509       0.00000000       0.00890204       0.00254129       0.00802116
C       -2.37312504       4.36134141       3.77178092       0.00000000       0.00374672       0.00042087      -0.00689972
C       -3.55549318       6.50910045       3.78186397       0.00000000       0.00051055       0.00238368      -0.02709969
C       -4.78937214       8.65824086       3.75606984       0.00000000       0.01551302       0.01555045      -0.01244446
C        2.57812436       0.11176896       3.86461257       0.00000000       0.00115293       0.01081502       0.00494562
C        1.27484929       2.19794689       3.86015594       0.00000000       0.00434910       0.00266882      -0.01593648
C        0.02673746       4.27204475       4.06144166       0.00000000      -0.01099494       0.00310961      -0.00334075
C       -1.08919071       6.46797607       4.05249524       0.00000000      -0.01774926      -0.00390879       0.00371518
C       -2.32514153       8.63673982       3.95075715       0.00000000      -0.00406803      -0.00592981      -0.00444684
C        5.04587969       0.10184683       3.81707559       0.00000000      -0.01090735      -0.00406195      -0.01419924
C        3.77113800       2.21041896       3.48788301       0.00000000      -0.00524065       0.00185394      -0.00804404
P        1.65502304       6.32934627       4.66672933       0.00000000       0.01377911      -0.00855385       0.01965115
C        0.13994503       8.63652591       4.01450260       0.00000000      -0.00692683      -0.00296880      -0.00753311
C        7.49969280       0.10736979       3.70702244       0.00000000       0.00188556      -0.01324783      -0.00013294
C        6.25409287       2.24695050       3.52410429       0.00000000      -0.00234099      -0.01572203       0.01456315
C        5.08128229       4.42507950       3.25028463       0.00000000      -0.00753551      -0.00604699      -0.02026950
C        3.93141266       6.59935668       3.41823841       0.00000000       0.01336129       0.01626563       0.03116435
C        2.59290382       8.67238543       3.73927435       0.00000000      -0.01004166      -0.01236842      -0.00115676
C        9.97262010       0.09846353       3.62225187       0.00000000      -0.00931336      -0.00329591      -0.01649569
C        8.72021432       2.23630225       3.61424472       0.00000000       0.00841288      -0.00286232       0.01433162
C        7.51593491       4.38539276       3.56845813       0.00000000       0.00208502      -0.00182164      -0.01034468
C        6.35039479       6.55382175       3.48236172       0.00000000       0.00318323      -0.00012599       0.02427024
C        5.08030447       8.67022342       3.56656884       0.00000000       0.01449488       0.00838359      -0.01275671
C        0.07892862       1.50590957       3.77379647       0.00000000       0.00650222       0.00360890      -0.01825399
C       -1.16703648       3.61409910       3.82204385       0.00000000      -0.00160239      -0.00128167       0.02038422
C       -2.33546566       5.78216931       3.87222256       0.00000000      -0.01272307      -0.00072053      -0.00136311
C       -3.55797654       7.93549696       3.84287974       0.00000000       0.00190830      -0.00294059       0.00392901
C       -4.81043982      10.07825287       3.80577628       0.00000000      -0.00301115       0.01823251       0.01216197
C        2.54376306       1.54266710       3.76965168       0.00000000       0.00239743       0.00918286       0.00022266
O        1.18664847       3.52967922       4.20284225       0.00000000      -0.02154244      -0.00290118      -0.01178987
C        0.09157151       5.67029294       4.20188126       0.00000000      -0.01180200       0.00868781       0.00227607
C       -1.08690662       7.90844685       4.04157356       0.00000000      -0.01084478      -0.00329101      -0.00672664
C       -2.34848243      10.07187085       3.90124435       0.00000000      -0.00687703      -0.00408490      -0.00704636
C        5.01934259       1.52993671       3.60639130       0.00000000      -0.01243840      -0.00446291      -0.00757164
P        3.74952027       3.61575465       2.38506064       0.00000000       0.01344306       0.00109755       0.00892314
C        1.40539130       7.96793298       4.05633273       0.00000000      -0.00268780      -0.01075284       0.03182285
C        0.11300109      10.06952927       3.84819010       0.00000000      -0.00449851       0.00139969       0.00333621
C        7.48708783       1.53077259       3.60812371       0.00000000       0.00757140      -0.01379198       0.01200687
C        6.28679258       3.66814256       3.43216822       0.00000000      -0.00411144      -0.01507682       0.00379064
C        5.10866579       5.86919565       3.33785083       0.00000000      -0.00508479      -0.00107105      -0.02494264
C        3.83759044       7.97682320       3.54349926       0.00000000       0.00857273       0.01281317       0.01324457
C        2.57094763      10.08601179       3.66494407       0.00000000      -0.00372684      -0.01203972       0.01799846
C        9.95760103       1.51663916       3.63654132       0.00000000       0.01140449      -0.00039885      -0.00972972
C        8.73013542       3.66063739       3.64596737       0.00000000       0.00481716       0.00260423       0.00199275
C        7.55143781       5.81127620       3.60369273       0.00000000       0.00416641       0.00310471      -0.00253333
C        6.31903394       7.96325120       3.58995167       0.00000000       0.01767229       0.00683355       0.01452333
C        5.05276589      10.07857244       3.63564720       0.00000000      -0.00711879       0.00657489       0.00189716
Ni       3.26914818       5.01535855       3.90284034       0.00000000       0.02024930       0.00847917      -0.01740598
O        0.46668709       2.49274449       6.76995084       1.00000000       0.10996404      -0.04431800       0.00493748
O       -0.73648270       2.59757823       6.53993266       1.00000000      -0.09866556       0.04080591       0.00581171
