52
Lattice="12.336457 0.0 0.0 -6.168228499999997 10.683685154694365 0.0 0.0 0.0 15.0" Properties=species:S:1:pos:R:3:forces:R:3 energy=-448.55152738153674 free_energy=-448.55152738153674 stress="-0.0012247544509999177 -0.00027085707877617677 1.3919465031715238e-05 -0.00027085707877617677 0.005370675681445231 3.541734742451436e-05 1.3919465031715238e-05 3.541734742451436e-05 -1.1589813581540529e-05" pbc="T T T"
C        0.03806919       0.07576794       3.71423620       0.00305413      -0.00189680      -0.00261708
C       -1.20806779       2.19537622       3.74877764      -0.00055993       0.00618755      -0.01480000
C       -2.43502745       4.34132040       3.71599425       0.00155548       0.00117512      -0.01224893
C       -3.66553757       6.48633751       3.64116342       0.00137988       0.00200621       0.00467977
C       -4.89664113       8.63243683       3.65102781      -0.00422726      -0.00071398       0.00900475
C        2.50038594       0.13664704       3.67424191       0.00452207       0.00395886       0.00870286
C        1.22975856       2.22963729       3.68735755      -0.00097522       0.00194715       0.00648545
C        0.00942990       4.30676995       3.79592647       0.00153137       0.00084564       0.00099973
C       -1.20968725       6.47799529       3.75109773       0.00255855      -0.00100262      -0.01698790
C       -2.44312172       8.63532368       3.69007237       0.00230165       0.00135412      -0.00835725
C        4.96219340       0.08154740       3.71792388      -0.00478222       0.00350125       0.00311810
C        3.76967508       2.24066256       3.64104414       0.00618564      -0.00015950      -0.00497987
C        1.16061066       6.49708313       4.13969918       0.00086922      -0.00787840      -0.00375203
C        0.01933508       8.61222589       3.82461757       0.00308679       0.00166635      -0.00628523
C        7.43946082       0.04511690       3.79404605      -0.00932468       0.00539589       0.00384795
C        6.20850380       2.20137480       3.69333762      -0.00098181       0.00428417       0.00716206
C        4.99577406       4.32740769       3.66248240      -0.00598420      -0.00465417       0.00986041
N        3.85846386       6.49101538       4.06175521       0.00056513      -0.00181172      -0.00164455
C        2.51413547       8.56324479       3.95470356       0.00584350       0.00139291      -0.00032370
C        9.90114252       0.04281476       3.79430108       0.00483299      -0.00246103       0.00764454
C        8.66974542       2.19431057       3.73379931       0.00220454      -0.00548428       0.00272984
C        7.44031800       4.34385878       3.65605700       0.00113709       0.00165913       0.00519658
C        6.20851398       6.47666241       3.63256201      -0.00412120       0.00095497       0.01205166
C        4.97968450       8.60154107       3.76412697       0.00154669       0.00096928       0.00692399
C        0.03653715       1.50572586       3.72250380      -0.00252716       0.00117267      -0.00631141
C       -1.20226873       3.61740361       3.75366882       0.00018206       0.00495795      -0.00599424
C       -2.43523712       5.76759568       3.69149403       0.00294777       0.00074118      -0.01578035
C       -3.66665444       7.91722521       3.64770374      -0.00071280       0.00207228       0.00295076
C       -4.89091253      10.07245680       3.67676178       0.00438674       0.00036000       0.00172787
C        2.50088543       1.58612173       3.66698435       0.00441993       0.00570273       0.00867511
O        1.18432645       3.60170765       3.74218740       0.00004166       0.00504300      -0.01487066
C        0.03050108       5.74458230       3.87342952      -0.00309709      -0.00464799      -0.00060269
C       -1.21068916       7.90683897       3.74953696       0.00375175       0.00088920      -0.00281377
C       -2.44487891      10.07310530       3.69172696       0.00015362       0.00148205      -0.00194600
C        4.96242765       1.51397339       3.68735603       0.00364645       0.00172685       0.00474497
O        3.82175923       3.61516477       3.58537381      -0.00522835      -0.00159185      -0.00333748
C        1.25387150       7.86274138       3.97553987       0.00589377      -0.00575577       0.00186043
C        0.02869518      10.03520288       3.77731256      -0.00869613       0.00495829       0.00563540
C        7.43343325       1.47869808       3.73756967      -0.00407230       0.00267733       0.00440001
C        6.20529852       3.62684046       3.66466563      -0.00189712       0.00226602      -0.00450279
C        4.98960757       5.76171675       3.74166632      -0.00046364      -0.00646733       0.00917317
C        3.76718796       7.85637761       3.93347151       0.00659570      -0.00046091       0.00003138
C        2.50552728       9.99343200       3.84788987      -0.00276027       0.00435874      -0.00404253
C        9.90413409       1.47724664       3.75954720       0.00459665      -0.00234455       0.00082218
C        8.67115033       3.62523554       3.69557286       0.00359319      -0.00307667       0.00347895
C        7.44083478       5.76598359       3.62217526      -0.00160120       0.00446052      -0.00679253
C        6.20840388       7.90547992       3.67053860      -0.00582359       0.00001013      -0.00113962
C        4.97076310      10.02755945       3.75977289       0.00466642      -0.00248110      -0.00373792
Ni       2.60546462       5.65001718       5.06619471      -0.00991799      -0.00695982       0.00063554
O        2.96177341       4.15221747       6.01448637      -0.01005334      -0.01318711       0.00523478
O        1.66170236       3.61379917       6.38461905      -0.00516608      -0.00121622       0.00740213
H        1.83078948       3.44349855       7.33580501       0.00492318      -0.00592575      -0.00131183
