51
Lattice="12.336457 0.0 0.0 -6.168228499999997 10.683685154694365 0.0 0.0 0.0 15.0" Properties=species:S:1:pos:R:3:initial_magmoms:R:1:forces:R:3 energy=-447.17086240252485 free_energy=-447.17086240252485 stress="-0.008144938499667182 0.0013616861696951817 -2.9101281396048316e-07 0.0013616861696951817 0.004599976227257944 -8.460923990424538e-08 -2.9101281396048316e-07 -8.460923990424538e-08 3.0114195876999876e-07" pbc="T T T"
C       -0.04724907      -0.03315634       3.55914084       0.00000000       0.00006074      -0.00118225       0.01218411
C       -1.29931386       2.06454030       3.53842262       0.00000000      -0.00263969       0.00474951       0.00381202
C       -2.54344663       4.21339720       3.52832818       0.00000000      -0.00387111       0.00075938       0.00888320
C       -3.76357048       6.36898425       3.54499821       0.00000000      -0.00255843      -0.00486966      -0.00221483
C       -4.98503025       8.52167970       3.56213537       0.00000000       0.00098509      -0.00745644      -0.00113766
C        2.42448551       0.01150633       3.56903188       0.00000000      -0.01098954       0.00010135      -0.00004562
C        1.18875336       2.18183555       3.56654918       0.00000000       0.00712461      -0.00480110      -0.00130724
C       -0.10876981       4.20980913       3.54265159       0.00000000       0.00596578       0.00309729      -0.00303348
C       -1.33962836       6.37938269       3.54217314       0.00000000      -0.00323498      -0.00109260      -0.00164679
C       -2.53682707       8.52110005       3.55558770       0.00000000      -0.00318237       0.00912390       0.00214162
C        4.88524301      -0.05285606       3.57007637       0.00000000       0.00010240       0.00824566       0.00403644
C        3.69991345       2.08033088       3.59145839       0.00000000       0.00906085       0.00794603      -0.00929051
C        1.07822830       6.33494768       3.56534674       0.00000000       0.00212219      -0.00359580       0.00420784
C       -0.06608340       8.47395484       3.56543646       0.00000000      -0.00395230       0.00265312      -0.00303240
C        7.36065715      -0.09930415       3.56546719       0.00000000       0.00584468       0.00825312      -0.00701912
C        6.13999133       2.06018066       3.56660623       0.00000000       0.00525362       0.00170400      -0.00108924
C        4.96798204       4.21185753       3.57826328       0.00000000      -0.00325871      -0.00664141       0.00615380
N        3.72896023       6.32300009       3.58403923       0.00000000      -0.00221253      -0.00414565       0.00687527
C        2.43075385       8.41741885       3.57552742       0.00000000      -0.00264833      -0.00305912      -0.00326667
C        9.81652341      -0.09407234       3.55681398       0.00000000       0.00326241      -0.00000206       0.00382550
C        8.58700909       2.05521916       3.54152918       0.00000000       0.00223155      -0.00279173       0.00586837
C        7.36369381       4.21783662       3.54541667       0.00000000      -0.00118919      -0.01096706      -0.00662663
C        6.13527959       6.35878558       3.56392782       0.00000000      -0.00212267      -0.00077941       0.00592440
C        4.89094607       8.46741439       3.57386198       0.00000000      -0.00175624       0.00640798      -0.01232349
C       -0.04755298       1.39620671       3.55295350       0.00000000      -0.00095636      -0.00046172       0.00713209
C       -1.33002856       3.48466091       3.52997379       0.00000000       0.00074807       0.00852321       0.00771240
C       -2.55004413       5.64883326       3.53613948       0.00000000      -0.00299807      -0.00153325      -0.00548299
C       -3.76070887       7.80309428       3.55355806       0.00000000       0.00320272      -0.00335455       0.00009733
C       -4.97647407       9.95670510       3.56507044       0.00000000      -0.00726883      -0.00952070      -0.00734389
C        2.44850568       1.45113178       3.57867910       0.00000000       0.01134496      -0.00030103      -0.00199367
C        1.10605415       3.56661896       3.56493410       0.00000000       0.00502436      -0.00552087      -0.00872691
C       -0.12205870       5.65571460       3.54587340       0.00000000       0.00004629       0.00013344       0.00387280
C       -1.31083054       7.79734008       3.55411268       0.00000000      -0.00639682       0.00258914      -0.00276068
C       -2.52634477       9.95270123       3.56404330       0.00000000      -0.00714041       0.01137516       0.01361615
C        4.89930024       1.37519838       3.58049467       0.00000000       0.00758875       0.00668471      -0.01222130
O        3.78476018       3.48397193       3.62298363       0.00000000      -0.00414015      -0.00045954      -0.00134910
C        1.17316401       7.71725561       3.57193274       0.00000000      -0.00378018      -0.00254447      -0.01170975
C       -0.05080130       9.89345555       3.56754008       0.00000000       0.00347483       0.00639086       0.00377192
C        7.35602341       1.33638252       3.55741883       0.00000000       0.00338430       0.00536928      -0.00165909
C        6.14435814       3.48932606       3.55923634       0.00000000      -0.00196226      -0.00576521       0.00743837
C        4.92605172       5.63034713       3.57689502       0.00000000      -0.00005768      -0.00758624      -0.00118205
C        3.67448505       7.69867143       3.57987719       0.00000000      -0.00243230      -0.00354759      -0.00751125
C        2.42388307       9.84810287       3.56595490       0.00000000       0.00366921       0.00070039       0.00250931
C        9.80952740       1.33463433       3.54298794       0.00000000       0.00005302      -0.00104985       0.00040156
C        8.57965020       3.49129839       3.53414000       0.00000000       0.00044328      -0.00695228       0.00748940
C        7.35393865       5.64128430       3.54967200       0.00000000      -0.00271154      -0.00729498      -0.00098754
C        6.12536058       7.78603311       3.56723616       0.00000000      -0.00333857       0.00357219       0.00008044
C        4.88787437       9.89897783       3.56291445       0.00000000       0.00254951       0.00462035       0.00108049
Ni       2.39929672       5.03570250       3.58468602       0.00000000       0.00324928       0.00428665      -0.00436287
O        3.97471307       6.04464734       9.39417529       1.00000000      -0.00012446       0.00011174       0.00038766
O        3.33407673       6.63966847      10.26871859       1.00000000       0.00013126      -0.00012192      -0.00017773
