51
Lattice="12.336457 0.0 0.0 -6.168228499999997 10.683685154694365 0.0 0.0 0.0 15.0" Properties=species:S:1:pos:R:3:initial_magmoms:R:1:forces:R:3 energy=-437.1271924823935 free_energy=-437.1271924823935 stress="-0.007801882189592192 5.116465817356102e-05 -1.3314991510774378e-05 5.116465817356102e-05 -0.006894953467236305 -4.836430001996609e-06 -1.3314991510774378e-05 -4.836430001996609e-06 2.202609767738809e-06" pbc="T T T"
C       -0.03682653      -0.00478332       3.67987123       0.00000000       0.00144208      -0.00089795      -0.01043328
C       -1.26900009       2.13566234       3.55619456       0.00000000      -0.00444980      -0.00236197       0.00135193
C       -2.50548902       4.27548528       3.64554431       0.00000000       0.00380171       0.00573795       0.00622914
C       -3.72975023       6.41310291       3.72287702       0.00000000      -0.00728686       0.00124893      -0.00159058
C       -4.97813901       8.54026875       3.68356742       0.00000000      -0.00379212      -0.00261729       0.00321707
C        2.42791043      -0.02628367       3.84168299       0.00000000      -0.00901298       0.00234399      -0.00689958
C        1.21724885       2.08103060       3.53531475       0.00000000       0.00246714      -0.00091556      -0.00502940
C       -0.11083187       4.30989530       3.21705674       0.00000000       0.00377664       0.00636195       0.00867042
C       -1.30244851       6.43481270       3.54255670       0.00000000       0.00124426      -0.00277251      -0.00108261
C       -2.50984687       8.54827919       3.75871848       0.00000000       0.00229215      -0.00220158      -0.00064458
C        4.90441968      -0.01187104       3.88558567       0.00000000      -0.00096082       0.00381441       0.01215646
C        3.65451671       2.07007778       4.10806401       0.00000000       0.00660747       0.01001572       0.00200072
C        1.11915312       6.45276781       3.25231354       0.00000000       0.00602111      -0.00206538       0.00575003
C       -0.04351793       8.55061741       3.59903627       0.00000000       0.00155743      -0.00274234      -0.00185098
C        7.36853782      -0.00183266       3.76043985       0.00000000       0.00651699       0.00328762       0.00337965
C        6.14537418       2.12946262       3.98663255       0.00000000       0.00143882       0.00436609      -0.00486352
C        4.96098064       4.31206773       3.82667113       0.00000000       0.00574496      -0.00640808      -0.00479654
S        3.73153420       6.36617742       2.42947925       0.00000000      -0.01098539      -0.00697744       0.01360356
C        2.43402724       8.56424833       3.38707649       0.00000000      -0.00036269      -0.00476870       0.00621457
C        9.83356396       0.00187400       3.64200001       0.00000000       0.00651561      -0.00076624      -0.00177120
C        8.60779157       2.13324270       3.77914381       0.00000000      -0.00767366       0.00372792       0.00152562
C        7.39060527       4.27138905       3.81211981       0.00000000       0.00482490      -0.00245252       0.01217952
C        6.17088559       6.41911802       3.54909083       0.00000000      -0.00161826      -0.00043695       0.00037182
C        4.90801026       8.55579571       3.44983859       0.00000000       0.00080546       0.00279866       0.00043278
C       -0.03478324       1.42014223       3.59005405       0.00000000      -0.00035901      -0.00353228      -0.01230241
C       -1.28095733       3.56174468       3.47782998       0.00000000       0.00272274       0.00283686      -0.00224502
C       -2.50832005       5.70092139       3.65491122       0.00000000      -0.00356354       0.00453867      -0.00019165
C       -3.73828096       7.83441471       3.73059575       0.00000000      -0.00086622       0.00090812      -0.00382598
C       -4.97525584       9.96164943       3.73887112       0.00000000      -0.00572768      -0.00419377      -0.00891358
C        2.43040194       1.39233067       3.85346288       0.00000000       0.00537464       0.00506831      -0.00565084
P        1.30049775       3.52822140       2.51056703       0.00000000      -0.01144128      -0.00279509      -0.00923845
C       -0.08057523       5.73819797       3.30733038       0.00000000       0.00445560       0.00445404      -0.00097210
C       -1.27822583       7.84597322       3.64530939       0.00000000       0.00415432      -0.00495547       0.00530925
C       -2.50172184       9.96115075       3.84697684       0.00000000      -0.00691847       0.00134365       0.00282030
C        4.90596241       1.41199797       4.02160007       0.00000000       0.00558331       0.00765000      -0.00225865
P        3.54093164       3.73586739       4.71364384       0.00000000       0.00222693      -0.00868448      -0.00269083
C        1.18943049       7.82549168       3.38480907       0.00000000      -0.00052696      -0.00290198      -0.00454184
C       -0.03459304       9.96615334       3.75690447       0.00000000       0.00294155       0.00183403      -0.00272522
C        7.37268368       1.42007842       3.86570332       0.00000000      -0.00365456       0.00431765      -0.00366736
C        6.16470691       3.55424709       3.91247930       0.00000000       0.00629361      -0.00038419       0.00133994
C        4.99978555       5.66124227       3.39838679       0.00000000      -0.00287067      -0.00130289       0.01258438
C        3.67069664       7.92221672       3.18169548       0.00000000      -0.00026337       0.00269176      -0.00043201
C        2.43127773       9.97619569       3.61446501       0.00000000       0.00763732      -0.00247623       0.00028066
C        9.83954863       1.42792221       3.67477409       0.00000000      -0.00872779       0.00076358       0.00762480
C        8.61392831       3.55845148       3.76990085       0.00000000       0.00383592       0.00249564      -0.00152504
C        7.39073662       5.69559049       3.72245314       0.00000000      -0.00471138      -0.00440582       0.00191310
C        6.13734620       7.83711801       3.52477275       0.00000000      -0.00120966      -0.00021029      -0.00814178
C        4.89921062       9.97582957       3.60681843       0.00000000       0.00546863       0.00090829      -0.00013691
Ni       2.39008828       5.06770977       3.53294312       0.00000000      -0.00820882      -0.00874928      -0.00262715
O        2.65915066       4.50816170       9.26489341       1.00000000      -0.00371662      -0.00216984       0.00261895
O        3.71379645       5.15214099       9.30526796       1.00000000       0.00315731       0.00163231      -0.00052554
