52
Lattice="12.336457 0.0 0.0 -6.168228499999997 10.683685154694365 0.0 0.0 0.0 15.0" Properties=species:S:1:pos:R:3:forces:R:3 energy=-451.1892650438595 free_energy=-451.1892650438595 stress="-0.007445871517310612 0.0014898486653594039 7.1665923768716016e-06 0.0014898486653594039 0.005321489358092143 9.526340920290589e-06 7.1665923768716016e-06 9.526340920290589e-06 1.6667873085943103e-05" pbc="T T T"
C       -0.10482486       0.11950398       3.79696328      -0.01091091      -0.00125732       0.00509752
C       -1.35737784       2.21775068       3.78383559       0.00266216      -0.00119641      -0.01234550
C       -2.60253887       4.36467866       3.76495378      -0.00111425       0.00326447      -0.00897060
C       -3.82481775       6.51841981       3.77449474      -0.00634592       0.01032962      -0.00167671
C       -5.04496483       8.67187772       3.79235480       0.00685476      -0.00105344       0.00580077
C        2.36381768       0.16434235       3.78044268      -0.00749026      -0.00299306       0.00402338
C        1.13052235       2.33527407       3.79579279       0.00549766      -0.00659286      -0.01311876
C       -0.16471299       4.36164606       3.76019861      -0.00338995       0.00784758       0.00143855
C       -1.39924039       6.53206026       3.74640446      -0.01054282      -0.01179534       0.00296113
C       -2.59802457       8.67456969       3.75659095       0.00932136       0.00519513       0.00076288
C        4.82674116       0.10333659       3.71213082       0.00752186      -0.00444217       0.00397150
C        3.64452765       2.24137880       3.78946388       0.00232936       0.00616587       0.00706629
C        1.02018107       6.48628408       3.74297517       0.00785050       0.00949850      -0.00664314
C       -0.12580234       8.62747813       3.73199745      -0.00343020      -0.00399763      -0.00388351
C        7.30215918       0.05247208       3.72427696       0.01215142       0.00114903      -0.00478122
C        6.08214770       2.21105095       3.69553122      -0.00337624      -0.00375467      -0.00401496
C        4.90153154       4.35779665       3.77309586       0.00342804       0.00033584       0.01625480
N        3.66940014       6.47634417       3.79399757       0.00414563      -0.00674044       0.00137344
C        2.37107855       8.56971944       3.75842783       0.00132031      -0.00553080       0.00454882
C        9.75832388       0.05869423       3.77027839      -0.00671674      -0.00998938       0.00031962
C        8.52946290       2.20658867       3.74030576       0.00378889       0.00720184       0.00702142
C        7.30291096       4.36530571       3.73960279      -0.00297654       0.00584277      -0.00184999
C        6.07374399       6.50895235       3.79669413      -0.00051550       0.00519612      -0.00373991
C        4.83141031       8.61950244       3.79556494       0.00172487      -0.00336096       0.00248924
C       -0.10466110       1.54957105       3.79743503       0.00367669      -0.00129587      -0.01162587
C       -1.38742371       3.63732615       3.77057262      -0.00058947       0.00287537       0.00424933
C       -2.60987101       5.80016186       3.76113029      -0.01531589      -0.00124928       0.00412132
C       -3.82173988       7.95356360       3.77822365       0.01015147       0.00854470      -0.00591268
C       -5.03511122      10.10813606       3.79213659      -0.01241446      -0.00228999       0.01171105
C        2.39113575       1.60621817       3.79104591       0.00714316      -0.00189666       0.00825237
C        1.05246542       3.72089837       3.77186184      -0.01363380      -0.00746713       0.00788940
C       -0.18135463       5.80753479       3.74462611       0.00441336       0.00981257      -0.00529527
C       -1.37127895       7.95105322       3.74026007      -0.00363511      -0.01291774       0.00939759
C       -2.58726811      10.10564693       3.75117121       0.00122673       0.00479098       0.00525297
C        4.84038068       1.53109804       3.71512570      -0.00367103      -0.00276562      -0.00003548
O        3.74142550       3.62571995       3.96512283       0.00016691       0.00723984      -0.00322518
C        1.11345412       7.86950405       3.74229459      -0.00056072       0.00741751      -0.00106921
C       -0.10937140      10.04654864       3.71896227       0.01336433      -0.00148118       0.00318933
C        7.29774096       1.48831252       3.70677791       0.00390723       0.00559836       0.00067813
C        6.08230814       3.63841261       3.71565677       0.00031457      -0.00483801       0.00370902
C        4.86501786       5.78112238       3.79707840       0.00485771      -0.00294509      -0.00232093
C        3.61483742       7.85142262       3.78398320       0.00240361      -0.00559282       0.00374801
C        2.36528381      10.00060762       3.75186068       0.00128783      -0.00941811      -0.00578946
C        9.75173019       1.48732153       3.76601905      -0.00013370      -0.00703872       0.00468202
C        8.52142650       3.64135799       3.75166708      -0.00006171       0.00957121      -0.01274093
C        7.29317944       5.79078223       3.77684010      -0.00310698       0.00909016      -0.01123997
C        6.06488404       7.93642380       3.80148972       0.00644134       0.00185823      -0.00403595
C        4.82983050      10.05168172       3.78995618      -0.00731504      -0.00484654       0.00476260
Ni       2.34699394       5.18600972       3.77270746      -0.00664610       0.00365222      -0.00267407
O        4.87864394       2.61783576       6.20924625       0.00766692       0.00693409       0.00392879
O        4.67160494       3.88872166       6.61832448      -0.01427046       0.00043555       0.00270267
H        3.88876970       3.82833473       7.20829438       0.00254511      -0.01110034      -0.01441469
