52
Lattice="12.336457 0.0 0.0 -6.168228499999997 10.683685154694365 0.0 0.0 0.0 15.0" Properties=species:S:1:pos:R:3:forces:R:3 energy=-442.3767559673197 free_energy=-442.3767559673197 stress="-0.006688119493160594 -0.00030047089468696937 -4.242230980672118e-05 -0.00030047089468696937 -0.007645175432130307 -7.154765790983124e-06 -4.242230980672118e-05 -7.154765790983124e-06 5.036109538848954e-06" pbc="T T T"
C        0.02654449       0.08687015       4.02014213       0.00149964      -0.00266866      -0.00359447
C       -1.21813663       2.22882239       4.24798018      -0.00615267      -0.01071424      -0.01136876
C       -2.47432697       4.37286688       4.11337247       0.00075253       0.00067606      -0.00786951
C       -3.67987192       6.50958615       3.88505769       0.00469764      -0.00119930      -0.01645673
C       -4.89848635       8.64552314       3.85260011       0.00042874      -0.01092456      -0.00122977
C        2.50121495       0.06472371       3.87800808      -0.00876497      -0.00198180       0.00406941
C        1.29786216       2.13181215       4.26717216       0.00455096       0.00032568       0.00259367
C       -0.08444235       4.43990182       4.43042755      -0.00334137       0.01683199       0.00502919
C       -1.24191081       6.51545498       3.89694387      -0.00007668      -0.00372351       0.00008420
C       -2.43486543       8.63458978       3.81107700      -0.00322561       0.00385551      -0.00758419
C        4.96672568       0.08735825       3.75449016       0.00168961      -0.00181920      -0.00151318
C        3.71440581       2.16070095       3.53312309       0.00144868       0.00135433       0.00387809
P        1.32073477       6.32062708       2.97817552      -0.00665209      -0.00875762       0.00693421
C        0.02607066       8.64546284       3.67446341      -0.00906350      -0.00821773       0.00364789
C        7.42921877       0.10462678       3.79715069       0.00197943       0.00555360      -0.00572842
C        6.19351161       2.23672382       3.63917088       0.00087533      -0.00082187      -0.00076393
C        5.05475118       4.40695851       3.24454543      -0.00119151       0.00514859       0.00957730
C        3.80870547       6.55253712       3.41113074       0.00502127       0.00542524       0.00328760
C        2.50189733       8.66952597       3.62366873      -0.00039034       0.00837496       0.00766371
C        9.89761239       0.10441087       3.94253744      -0.00188217      -0.00393963      -0.00803322
C        8.65423385       2.23644334       3.96609719      -0.00046193       0.00034590       0.00686796
C        7.42985961       4.37486440       3.78090927       0.00432263      -0.00032852      -0.00380024
C        6.23105836       6.53295246       3.63119829       0.00170621       0.00378470      -0.00017238
C        4.97931913       8.65679817       3.74467044       0.00034235       0.00747948      -0.00997487
C        0.03210001       1.50678804       4.20680493       0.00270207      -0.00268923      -0.00377522
C       -1.25141420       3.66008371       4.31630811      -0.00256401       0.00111444       0.00751692
C       -2.46642437       5.79513234       3.98949477       0.00266354      -0.00084231       0.00685521
C       -3.67137268       7.93117866       3.85078359       0.00418309      -0.00125735      -0.00036077
C       -4.90722112      10.05819668       3.93058601      -0.00354532      -0.01257749       0.00628947
C        2.49613910       1.48779018       3.89443047      -0.00012716      -0.00156407      -0.00048715
P        1.46777605       3.75014034       4.94877806       0.00637275      -0.00138138      -0.00169959
C       -0.04448940       5.76677046       3.97732848       0.01069689       0.01347677      -0.00876768
C       -1.20857402       7.92820563       3.75669685      -0.01107403      -0.01022921      -0.00279121
C       -2.43382629      10.05380430       3.80007711      -0.00445814       0.00472925       0.01092529
C        4.96552277       1.51524769       3.63879637       0.00208763      -0.00256873       0.00292647
S        3.68426291       3.59173429       2.54204815      -0.01638321      -0.00566908      -0.00936133
C        1.27172210       7.99148046       3.50647987      -0.00187554       0.00651296       0.01122835
C        0.03162557      10.07024037       3.74820437       0.00161640      -0.00451503      -0.00092087
C        7.42068856       1.53192533       3.81187482       0.00133949       0.00498439       0.00959661
C        6.20958805       3.65872862       3.55791746       0.00141065       0.00202209      -0.00385326
C        5.00502738       5.83119893       3.38577138       0.00581563       0.00697346      -0.00731342
C        3.74590415       7.93643579       3.57463324       0.00036513       0.00385019       0.01214846
C        2.50017222      10.08461973       3.80427388      -0.00002472       0.00652453      -0.00552449
C        9.89402654       1.52505543       4.07367478      -0.00814967      -0.01045107      -0.00570186
C        8.64545216       3.65897112       3.97505805       0.00308782      -0.00046659      -0.00372093
C        7.43396749       5.79929632       3.77577464       0.00136598      -0.00004524      -0.00011601
C        6.20641262       7.94596455       3.75119478      -0.00315390      -0.00045768       0.00812885
C        4.96490643      10.07009590       3.91489755      -0.00044957       0.00293680      -0.00133353
Ni       2.76197842       5.04844396       3.89705838       0.00628275      -0.00458226       0.00286484
O        1.37375414       3.68666169       6.55958652      -0.00873052       0.00409220       0.00517483
O        2.55539348       2.82852823       7.09427766       0.01294553      -0.01405438      -0.00148049
H        2.89700326       3.50488884       7.71279392       0.00948827       0.01207463      -0.00199106
