51
Lattice="12.336457 0.0 0.0 -6.168228499999997 10.683685154694365 0.0 0.0 0.0 15.0" Properties=species:S:1:pos:R:3:initial_magmoms:R:1:forces:R:3 energy=-441.3556709468426 free_energy=-441.3556709468426 stress="-0.005942720493031452 -0.000512563447375853 -2.7354194897269194e-06 -0.000512563447375853 0.0007911350531797657 2.7196855969523757e-06 -2.7354194897269194e-06 2.7196855969523757e-06 -1.2543172344176074e-05" pbc="T T T"
C       -0.01108310       0.02915861       3.63536505       0.00000000       0.00088253      -0.00148271      -0.00213213
C       -1.25962947       2.15687683       3.58137303       0.00000000       0.00267674      -0.00381499       0.00008481
C       -2.49591768       4.29976361       3.91250473       0.00000000      -0.00191436       0.00049906      -0.00090025
C       -3.71394923       6.45203771       4.04127745       0.00000000      -0.00246858       0.00114686       0.00836587
C       -4.94003440       8.59948157       3.89333583       0.00000000       0.00495822      -0.00295416      -0.00236670
C        2.45919478       0.04087457       3.61123629       0.00000000       0.00420758      -0.00216882      -0.00767021
C        1.20741915       2.11094333       3.13065262       0.00000000       0.00598138       0.00874394       0.00930047
C       -0.12404218       4.35013021       3.44026251       0.00000000      -0.00316749      -0.00823256      -0.00475516
C       -1.28520323       6.46424707       3.90970274       0.00000000      -0.00091057       0.00314066       0.00406180
C       -2.48590520       8.59870291       3.90805136       0.00000000      -0.00599031      -0.00196026      -0.00207100
C        4.92839405       0.02381914       3.66179433       0.00000000      -0.00055843       0.00442456      -0.00959797
C        3.72323646       2.09262862       3.11951595       0.00000000      -0.00460913       0.00915670      -0.00144355
C        1.12317326       6.43381997       3.40137574       0.00000000      -0.00038267      -0.00853400      -0.00567340
C       -0.01601442       8.56016714       3.74381606       0.00000000      -0.00110539       0.00201710      -0.00207847
C        7.39810750      -0.00072930       3.68570755       0.00000000      -0.00231116      -0.00090449      -0.00751958
C        6.16649964       2.15961409       3.59714930       0.00000000       0.00143064      -0.00219684      -0.00222891
C        5.05167640       4.36992308       3.38200732       0.00000000      -0.00410807       0.00155103       0.00160946
N        3.81707141       6.45080336       3.37740701       0.00000000       0.00472173       0.00277259       0.00127720
C        2.47340085       8.52027292       3.58211996       0.00000000      -0.00131494       0.00391884      -0.00574965
C        9.85457407       0.00247305       3.66841449       0.00000000      -0.00349903       0.00638485       0.01099849
C        8.62322328       2.15103317       3.78726540       0.00000000      -0.00154321      -0.00342724       0.00317587
C        7.40107453       4.30251469       3.92400469       0.00000000      -0.00039162       0.00101065      -0.00128190
C        6.18799055       6.46670391       3.87926972       0.00000000       0.00595657      -0.00051849      -0.00077490
C        4.93541443       8.56301839       3.71143762       0.00000000       0.00661399      -0.00163002       0.00598139
C       -0.01594380       1.45112861       3.44357328       0.00000000       0.00566572      -0.00055625       0.00199134
C       -1.28353136       3.58652983       3.66482976       0.00000000      -0.00204502      -0.00646277      -0.00025207
C       -2.49486248       5.73116915       3.99626889       0.00000000      -0.00168144       0.00399306       0.01618026
C       -3.71221435       7.88369669       3.98083091       0.00000000      -0.00202525      -0.00462613       0.00071788
C       -4.94159435      10.01747051       3.72871372       0.00000000       0.00492242      -0.00460108      -0.01022052
C        2.46013614       1.44132129       3.26205823       0.00000000       0.00014512       0.00423955       0.00347433
P        1.06679954       3.71065352       2.33674604       0.00000000       0.00209249      -0.00116548      -0.00228234
C       -0.08213629       5.76571115       3.61498502       0.00000000      -0.00213599      -0.00779912      -0.00021782
C       -1.25597271       7.88068058       3.88860788       0.00000000      -0.00398164       0.00553016      -0.00093461
C       -2.48148353      10.01545299       3.74199801       0.00000000       0.00218922      -0.00067523       0.00277941
C        4.93609800       1.44637886       3.46521643       0.00000000      -0.00454869       0.00887813       0.00476954
S        3.87574266       3.66048318       2.32567240       0.00000000      -0.00190505      -0.01001404      -0.00364019
C        1.21828607       7.80700026       3.58376523       0.00000000       0.00085250      -0.00462493       0.00285952
C       -0.00653692       9.98013780       3.71194076       0.00000000      -0.00241663       0.00283788       0.00917474
C        7.38826579       1.43653618       3.71130533       0.00000000       0.00108723      -0.00698033       0.00212045
C        6.18482204       3.59122919       3.67654867       0.00000000      -0.00220539      -0.00004213       0.00183566
C        4.99923105       5.77647682       3.56852892       0.00000000       0.00541001       0.00288763      -0.00771978
C        3.72389134       7.81432612       3.55942242       0.00000000       0.00341117       0.00259666       0.00057905
C        2.46300925       9.94981176       3.65752895       0.00000000      -0.00247144       0.00635918      -0.00225383
C        9.85492837       1.43578584       3.69673638       0.00000000      -0.00038621       0.00445213       0.00204717
C        8.62292680       3.57838782       3.91500437       0.00000000      -0.00137041      -0.00043468      -0.00614014
C        7.40070954       5.73122185       3.99479168       0.00000000       0.00100850       0.00075829      -0.00155862
C        6.16829768       7.88355635       3.85741041       0.00000000       0.00836934      -0.00264427       0.00236705
C        4.92463398       9.98774257       3.68335632       0.00000000      -0.00415586       0.00065281      -0.00904190
Ni       2.49481551       5.22123870       2.96681324       0.00000000      -0.00699985       0.00068815       0.00343093
O        2.50838056       4.65292158       8.76354204       1.00000000      -0.00394904       0.01098149      -0.00995197
O        2.80823537       3.80920891       9.61607722       1.00000000       0.00396977      -0.01117094       0.01127490
