52
Lattice="12.336457 0.0 0.0 -6.168228499999997 10.683685154694365 0.0 0.0 0.0 15.0" Properties=species:S:1:pos:R:3:forces:R:3 energy=-451.3969738722359 free_energy=-451.3969738722359 stress="-0.004697733627852542 -0.0010083505036382987 -8.11210131877624e-06 -0.0010083505036382987 0.0047215622706326356 3.2886157530713134e-05 -8.11210131877624e-06 3.2886157530713134e-05 2.280673453202574e-05" pbc="T T T"
C       -0.08947055      -0.10718425       3.71876523      -0.00788849       0.00916440       0.01034091
C       -1.34234363       1.99766623       3.75715810       0.00131447      -0.00078763       0.00423848
C       -2.57533022       4.14485207       3.77287478       0.00308698      -0.00309670       0.00665430
C       -3.79182010       6.29573889       3.75007228       0.00672186      -0.00021685       0.00609819
C       -5.02206705       8.44462221       3.70186030       0.00451105      -0.00447435      -0.00080302
C        2.38204942      -0.07596096       3.74472686      -0.00301253      -0.00258445       0.01030471
C        1.13430792       2.06791807       3.74931350       0.01002761      -0.00486941       0.00407666
C       -0.12455545       4.14531757       3.76948952      -0.00910399       0.00418221       0.00307321
C       -1.34417685       6.29997463       3.78614008      -0.00791935       0.00472041      -0.00407401
C       -2.55629718       8.44471205       3.76650036       0.00424304       0.00082062      -0.00215234
C        4.85337199      -0.11201059       3.78766084      -0.00450620      -0.01122938      -0.00040123
C        3.61776005       2.08656417       3.78479546       0.00934112       0.00319829      -0.00045052
N        1.07124384       6.25602472       3.78807668      -0.01039363       0.00515175      -0.00308003
C       -0.07570722       8.39292101       3.79734583      -0.00923898       0.00407573       0.00380586
C        7.32447077      -0.16088721       3.79057019       0.00331362       0.00832200       0.00393624
C        6.09184025       2.00508099       3.79420924      -0.00911352      -0.00209819       0.01136736
C        4.85769571       4.16888936       3.80332428       0.00460819       0.00473303      -0.00376864
O        3.72927822       6.32116380       3.90437863      -0.00588450      -0.00225609      -0.00916045
C        2.39534332       8.33719579       3.77539932      -0.00249689      -0.00685552       0.00468336
C        9.77101626      -0.16024486       3.75619002      -0.00295883       0.00256254      -0.00173749
C        8.54183691       1.99159403       3.78022169       0.00482163       0.00634881       0.00469526
C        7.31506526       4.14741160       3.77357566       0.00349363       0.00388831       0.00655882
C        6.09212643       6.30431757       3.72926692       0.00083327      -0.00285860       0.00551550
C        4.85062866       8.41085588       3.70367224       0.00368897       0.00071300      -0.01270299
C       -0.10572585       1.31345765       3.74008838       0.00352975       0.00716262      -0.00107844
C       -1.35774465       3.42116017       3.76931124      -0.00213865      -0.00402575      -0.00889101
C       -2.57059264       5.57477132       3.77377134       0.00197771      -0.00534206      -0.01324899
C       -3.78663690       7.72784768       3.73810262       0.01107499      -0.00213092       0.00772700
C       -5.01639818       9.87855655       3.71642392      -0.00919827       0.00051178       0.00936486
C        2.37852760       1.35080563       3.75800468       0.01385011      -0.00236434       0.00338614
C        1.07812535       3.46457956       3.75938363      -0.01304087      -0.00298369      -0.00170087
C       -0.12651363       5.59641322       3.78361569      -0.00903674       0.00837542      -0.00320723
C       -1.32739987       7.71828786       3.78899187      -0.00526067       0.00322181      -0.00754736
C       -2.55545121       9.87419496       3.76736049      -0.00388927      -0.00462161      -0.00681652
C        4.85907200       1.31441461       3.79146778      -0.00372592      -0.01175088       0.00203605
C        3.64931806       3.47881875       3.79984764       0.00539251       0.00410179      -0.00480487
C        1.13589312       7.63588742       3.79460660      -0.01301587       0.00420954      -0.01407720
C       -0.08059049       9.82674628       3.79524051       0.00138603       0.00104344       0.00159978
C        7.32191158       1.27217380       3.78930249       0.00048261       0.01014310       0.00253223
C        6.09804856       3.43041960       3.79411813       0.00083672       0.00209431       0.00757892
C        4.90903411       5.59619856       3.79359836       0.00048412      -0.00105346      -0.00474572
C        3.65050994       7.70968602       3.74941788       0.00201381      -0.00076721      -0.00354241
C        2.38206815       9.78307942       3.77622340       0.00045957      -0.00396987       0.00730563
C        9.76605917       1.27214247       3.76769138       0.00082462       0.00296544      -0.01391172
C        8.53974533       3.42604936       3.77588328       0.00480209       0.00359175       0.00433314
C        7.32055258       5.57653240       3.74043934       0.00156747       0.00236794       0.00122168
C        6.09516336       7.72697858       3.69301892       0.00460991      -0.00465640       0.00486817
C        4.84598392       9.84051686       3.71395684      -0.00454860       0.00562011       0.00334117
Ni       2.32316860       4.87884369       3.77797347       0.01416817      -0.00908493      -0.00384001
O        5.00753049       6.99901768       6.16840177       0.01482038      -0.00023279       0.00072825
O        3.74175736       7.21649533       6.59182033      -0.00477568      -0.00156591      -0.01596925
H        3.57535322       6.49659741       7.23891843      -0.00113859      -0.01741315       0.00034045
