51
Lattice="12.336457 0.0 0.0 -6.168228499999997 10.683685154694365 0.0 0.0 0.0 15.0" Properties=species:S:1:pos:R:3:initial_magmoms:R:1:forces:R:3 energy=-444.1251137151041 free_energy=-444.1251137151041 stress="-0.0050403808401929965 0.0004880735327877942 -2.6428660846482176e-05 0.0004880735327877942 0.0041776654039925665 -1.4497463854194955e-05 -2.6428660846482176e-05 -1.4497463854194955e-05 -1.8143518412340287e-07" pbc="T T T"
C       -0.04495060       0.09199916       3.70547399       0.00000000       0.00323105       0.00706163      -0.00041901
C       -1.29126381       2.20899986       3.74191979       0.00000000      -0.00172499       0.00126893      -0.00428409
C       -2.52449474       4.35757396       3.76971620       0.00000000       0.00116670      -0.00014592      -0.00951915
C       -3.75453221       6.50527071       3.76040049       0.00000000       0.00125277      -0.00544741      -0.01297074
C       -4.98071223       8.65238718       3.72298296       0.00000000       0.00054447      -0.00824281      -0.00510980
C        2.41448001       0.14601978       3.67084555       0.00000000      -0.00382035       0.01049199       0.00644428
C        1.15581293       2.22513428       3.68279240       0.00000000      -0.00203574      -0.00243397      -0.00170009
C       -0.10755761       4.34496051       3.75501320       0.00000000       0.00833535       0.00344957      -0.00300274
C       -1.32155670       6.50715588       3.74599552       0.00000000      -0.01370933      -0.00066326      -0.00168540
C       -2.53413659       8.65904710       3.70693111       0.00000000       0.00369144      -0.00745606       0.00806823
C        4.88006599       0.09697094       3.64484021       0.00000000      -0.00888170      -0.00373606       0.00796178
C        3.68667845       2.22971261       3.59250794       0.00000000       0.00011071      -0.00206305      -0.00497689
C        1.07912645       6.49999223       3.69840039       0.00000000       0.01370370      -0.00176476      -0.00082074
C       -0.07123605       8.62744529       3.68514193       0.00000000       0.00722379       0.00413926       0.00539137
C        7.35846489       0.05487991       3.67527503       0.00000000      -0.00604410      -0.00711492       0.01505343
C        6.13006544       2.20964603       3.67490111       0.00000000      -0.00367559      -0.00369996       0.00162368
C        4.95636117       4.35689460       3.70171363       0.00000000       0.00213068       0.00342363      -0.00504773
N        3.74312458       6.48453336       3.67448973       0.00000000      -0.00972863       0.00393907       0.00382702
C        2.43111664       8.56783595       3.68299423       0.00000000      -0.00704554       0.00543031      -0.00934222
C        9.81881590       0.05269462       3.70535903       0.00000000      -0.00738554      -0.00638762       0.00204466
C        8.58898072       2.20364316       3.73141509       0.00000000      -0.00311281       0.00122554      -0.00649930
C        7.36475574       4.35597681       3.74872499       0.00000000       0.00111588       0.00589981       0.00290997
C        6.14176571       6.50076567       3.73843034       0.00000000       0.01576939      -0.00330998      -0.00010561
C        4.89411131       8.61039896       3.70660767       0.00000000      -0.00318949       0.00508639      -0.00465333
C       -0.03922845       1.52753692       3.71119241       0.00000000      -0.00178985       0.00342397       0.00017439
C       -1.29242456       3.63163133       3.76198173       0.00000000       0.00380113       0.00372488       0.00323208
C       -2.53147928       5.78410000       3.76591826       0.00000000      -0.01014999      -0.00553231      -0.00527748
C       -3.75507160       7.93783305       3.73493571       0.00000000       0.00203495      -0.01040897      -0.00596571
C       -4.97464431      10.09101402       3.69989926       0.00000000       0.00115831       0.00056369       0.00184182
C        2.41804113       1.60300959       3.64905689       0.00000000      -0.00014294       0.01145059      -0.00098370
O        1.09624619       3.63697361       3.76583148       0.00000000      -0.00036990      -0.01309604       0.00214640
C       -0.08661514       5.77181525       3.74110828       0.00000000      -0.00132549       0.00634386      -0.00684984
C       -1.30548631       7.93249725       3.71194497       0.00000000       0.00645817      -0.00115630       0.00902174
C       -2.53024320      10.09274027       3.67022210       0.00000000      -0.00926327      -0.00283572       0.00018971
C        4.87946016       1.52939850       3.62516068       0.00000000      -0.00326538      -0.00515718      -0.00094640
O        3.75371103       3.63790587       3.66160179       0.00000000       0.00048291      -0.00391855      -0.00549429
C        1.16952959       7.86417313       3.68681976       0.00000000       0.00483836       0.00486748       0.00184309
C       -0.05577955      10.04798988       3.66524787       0.00000000      -0.00476895       0.00129277       0.00320550
C        7.35178058       1.48899251       3.69178417       0.00000000      -0.00354594      -0.00750014      -0.00074255
C        6.13571040       3.63293466       3.71620199       0.00000000       0.00027030       0.00169353       0.00600339
C        4.93085477       5.77985956       3.71079258       0.00000000       0.01318572       0.00332986       0.00363377
C        3.67483180       7.85249461       3.68891406       0.00000000      -0.00866708       0.00900239      -0.00575208
C        2.42376989       9.99975357       3.68599070       0.00000000      -0.00925233      -0.00359312       0.01340725
C        9.82454463       1.48864274       3.72936123       0.00000000      -0.00403620      -0.00452822      -0.00359314
C        8.59006352       3.63621599       3.75677616       0.00000000       0.00028739       0.00683980      -0.00898395
C        7.36203194       5.78007407       3.75727334       0.00000000       0.01085297      -0.00101922       0.00135055
C        6.12818624       7.92585067       3.72515935       0.00000000      -0.00143094      -0.00418904       0.00758654
C        4.88795176      10.03807433       3.70649374       0.00000000       0.00043734       0.00500439       0.00586025
Ni       2.45272275       5.20490293       3.64548833       0.00000000       0.00708269      -0.00480982       0.00059785
O        4.28397078       2.91543550       6.30183457       1.00000000       0.00862470       0.01240482      -0.00424989
O        3.05086942       2.92868284       6.30156813       1.00000000       0.01057119      -0.00114774       0.00555708
