52
Lattice="12.336457 0.0 0.0 -6.168228499999997 10.683685154694365 0.0 0.0 0.0 15.0" Properties=species:S:1:pos:R:3:forces:R:3 energy=-442.2512181942211 free_energy=-442.2512181942211 stress="-0.00811957350197488 -0.0002900421376935969 1.6773207312311818e-05 -0.0002900421376935969 -0.008383598327054743 -9.674812651380946e-06 1.6773207312311818e-05 -9.674812651380946e-06 -2.5037484577431005e-05" pbc="T T T"
C       -0.00859592       0.06931365       3.82473256       0.00021509      -0.00106168      -0.00294760
C       -1.24066329       2.21390651       3.71425959      -0.00015468       0.00100389       0.00636444
C       -2.47001923       4.35378789       3.83553951      -0.00881155       0.00201445      -0.00852772
C       -3.69515541       6.49097705       3.91137237      -0.00322187       0.00570664      -0.01275650
C       -4.94716691       8.61485668       3.84597567      -0.00298248      -0.00233183      -0.00655202
C        2.45515207       0.04031896       3.98796143      -0.00332818       0.00365221      -0.00748122
C        1.24337161       2.15356416       3.65409754       0.00130717       0.00515570      -0.00548695
C       -0.07996356       4.38965210       3.36268824       0.00545708      -0.00259951      -0.00423480
C       -1.27292612       6.51338429       3.72092269       0.00259563       0.00038522      -0.00377545
C       -2.47903093       8.62359123       3.93714763      -0.00057161       0.00197271      -0.00211579
C        4.93139093       0.06433666       4.07755648       0.00166432      -0.00226695      -0.00035186
C        3.66363941       2.11043558       4.30340786       0.01249610       0.00357410      -0.00637469
C        1.13357727       6.55184747       3.43236554      -0.00205311       0.00093616       0.00447521
C       -0.01623777       8.63581978       3.78930906      -0.00133173       0.00204716      -0.01403711
C        7.39646050       0.08330487       3.95740793      -0.01176335       0.00378729       0.00224394
C        6.17156649       2.21278217       4.20450136       0.00537871      -0.00487943      -0.00282140
C        5.02043116       4.42759622       4.12933484       0.01028309       0.00066646       0.01430882
S        3.73137183       6.41875702       2.69642129      -0.01209139      -0.01175539      -0.00341398
C        2.46026245       8.65054268       3.58113007       0.00310591       0.00587130       0.00113548
C        9.86309613       0.08323689       3.82223401      -0.00341059       0.00075169      -0.01333222
C        8.63803860       2.21493525       3.98229589      -0.00596307      -0.00464848      -0.00639182
C        7.42835319       4.35362291       4.04364214      -0.00267312       0.00050392      -0.00687108
C        6.20930654       6.49952601       3.74467636       0.00020404      -0.00178229      -0.00034188
C        4.93563397       8.63184747       3.62886792       0.00924635      -0.00098871      -0.00513325
C       -0.00735770       1.49456894       3.72609866       0.00115118      -0.00024467      -0.00841242
C       -1.25055454       3.63882709       3.64158660      -0.00008360       0.00455625       0.00969327
C       -2.47518959       5.77774950       3.84018885       0.00023440       0.00410182       0.01267241
C       -3.70676465       7.91091473       3.90356470      -0.00303354       0.00421646       0.00464637
C       -4.94761534      10.03357850       3.88573599      -0.00217740      -0.00309150      -0.00709756
C        2.45629489       1.46042561       3.98869497       0.00516108       0.00770640      -0.00407162
P        1.30439948       3.58898107       2.60207504       0.01821320      -0.00534210      -0.00564902
C       -0.05164466       5.81704149       3.47264289       0.00054690      -0.00138304      -0.01241069
C       -1.24660392       7.92412127       3.83047763       0.00165829       0.00126991      -0.00103302
C       -2.47295274      10.03525915       4.02251918      -0.00151684       0.00299139      -0.00881982
C        4.92586462       1.48783774       4.22165489       0.00943767      -0.00404093      -0.00353104
P        3.49890890       3.80034104       4.78782579      -0.00485000       0.00435234       0.01114525
C        1.21574546       7.91990551       3.56946440       0.00129664       0.00127592       0.00456338
C       -0.00591379      10.05017664       3.95154238      -0.00360088      -0.00282393       0.00895824
C        7.39819593       1.50530331       4.07046457      -0.00282347      -0.00288740       0.01189060
C        6.19957338       3.64417100       4.17222281       0.00556005      -0.00471674       0.00263273
C        5.03502718       5.73505376       3.64021861      -0.00116666      -0.00052904       0.00790528
C        3.69316698       7.99771755       3.38863392       0.00561321       0.00205663       0.00017025
C        2.45955989      10.06207017       3.80666937      -0.00996075       0.00829568      -0.00211729
C        9.86782974       1.50851823       3.85509845      -0.00114787      -0.00004431       0.01414441
C        8.64978060       3.63870816       3.98105909      -0.00810390      -0.00427265      -0.00319523
C        7.42584799       5.77542107       3.92731924      -0.00275708       0.00331551       0.00825391
C        6.16740727       7.91315135       3.69707479       0.00301744      -0.00518511       0.00717344
C        4.92726292      10.05360155       3.77059956       0.00086793      -0.00210358       0.01270578
Ni       2.27928581       5.13302254       3.71736993      -0.00091858      -0.01027468       0.01490550
O        3.68517781       3.88364787       6.38985594       0.00977412      -0.00021549       0.00305122
O        2.50672894       3.13047623       7.06788337      -0.00944102      -0.01669181       0.00050162
H        2.19257747       3.88883419       7.59981187      -0.00454727       0.01399405       0.00574353
