51
Lattice="12.336457 0.0 0.0 -6.168228499999997 10.683685154694365 0.0 0.0 0.0 15.0" Properties=species:S:1:pos:R:3:initial_magmoms:R:1:forces:R:3 energy=-447.5181080686069 free_energy=-447.5181080686069 stress="-0.005350175866449256 -0.0009454571714497284 -3.140569868599881e-06 -0.0009454571714497284 0.004378970501247346 1.4870487157689165e-05 -3.140569868599881e-06 1.4870487157689165e-05 -1.899561435518212e-06" pbc="T T T"
C        0.10996810       0.09632332       3.67525805       0.00000000       0.00765360       0.00327562      -0.00384974
C       -1.14100954       2.19808896       3.68355965       0.00000000      -0.00010245       0.00060877       0.00882974
C       -2.37282724       4.34138245       3.70429810       0.00000000       0.00929578      -0.00469615      -0.00746494
C       -3.59142136       6.49265207       3.71201550       0.00000000      -0.00475034       0.00196195      -0.00733724
C       -4.82092420       8.64452113       3.69235357       0.00000000      -0.00735673       0.00517167      -0.00196225
C        2.58151662       0.12360723       3.70828824       0.00000000      -0.00326470      -0.00141016      -0.00123155
C        1.33308328       2.27067592       3.71423705       0.00000000      -0.01277882       0.00455494      -0.00127789
C        0.07117375       4.33922437       3.73130517       0.00000000       0.00078126       0.01064644       0.00344231
C       -1.14713707       6.49801533       3.73532006       0.00000000       0.00308736       0.00388553      -0.01024818
C       -2.35719136       8.64380588       3.72376809       0.00000000       0.00216578      -0.00530926      -0.00009917
C        5.05315803       0.08561881       3.71667354       0.00000000      -0.00672975       0.00326286      -0.00375006
C        3.81926774       2.28433016       3.70598017       0.00000000       0.00427417       0.00126085      -0.00369543
N        1.26677520       6.45196854       3.70554101       0.00000000      -0.00187228      -0.00944798      -0.00620769
C        0.12239787       8.59104170       3.71568876       0.00000000       0.00603169       0.00142071       0.00043937
C        7.52401198       0.03811795       3.69781163       0.00000000      -0.00406125      -0.00158542      -0.00065760
C        6.29180843       2.20294358       3.70064530       0.00000000       0.01275276       0.00112583      -0.00572380
C        5.06268522       4.36497466       3.67595011       0.00000000       0.00025693      -0.00372399       0.01094885
O        3.92158944       6.51068628       3.64819969       0.00000000       0.00196017      -0.00426686       0.00196702
C        2.59535449       8.53597922       3.67528599       0.00000000      -0.00247651      -0.00548462       0.00730149
C        9.97070273       0.04002913       3.67068323       0.00000000       0.01119651       0.00099140      -0.00426846
C        8.74254576       2.19061465       3.68947003       0.00000000      -0.00065688       0.00285503      -0.00152174
C        7.51863051       4.34573195       3.69192222       0.00000000      -0.01223090       0.00160013       0.00282386
C        6.29771340       6.50170758       3.67091431       0.00000000      -0.00345923       0.00130527      -0.00177542
C        5.05234540       8.61547005       3.65759679       0.00000000       0.00180798       0.00001482       0.00586580
C        0.09467656       1.51563496       3.68626942       0.00000000      -0.00640213      -0.00024077       0.00772809
C       -1.15848993       3.61806733       3.70849840       0.00000000       0.01234885       0.00028723       0.00207605
C       -2.37077492       5.77183260       3.72052454       0.00000000       0.00247515       0.00048540      -0.00431536
C       -3.58670922       7.92655919       3.71374087       0.00000000      -0.00644182       0.00473823      -0.01158406
C       -4.81723376      10.07817293       3.69222711       0.00000000      -0.00022384       0.00125605       0.00126696
C        2.57711683       1.55206486       3.70821463       0.00000000      -0.00598245       0.00358561      -0.00347169
C        1.27039557       3.66249216       3.72264065       0.00000000      -0.00927327       0.00285129       0.00001392
C        0.06934207       5.78990194       3.72683430       0.00000000      -0.00311821       0.00408244      -0.00110887
C       -1.12899052       7.91670287       3.73047771       0.00000000       0.00952485       0.00125109      -0.00398494
C       -2.35622667      10.07368543       3.71768324       0.00000000      -0.00526389      -0.00564467       0.00712408
C        5.05914478       1.51170742       3.70944377       0.00000000       0.01128650       0.00463414      -0.00195501
C        3.85601524       3.67639283       3.69180659       0.00000000       0.00412304      -0.00198214      -0.00439915
C        1.33428004       7.83133565       3.69780426       0.00000000      -0.00096575      -0.00940422       0.00675686
C        0.11911235      10.02493810       3.71233400       0.00000000      -0.00742985       0.00356798      -0.00781155
C        7.52211446       1.47105039       3.69863745       0.00000000       0.00499461      -0.00240435      -0.00737075
C        6.30128003       3.62850375       3.68717686       0.00000000      -0.00499364      -0.00121720       0.00703219
C        5.11523728       5.79054750       3.66087366       0.00000000       0.00510160      -0.00583520       0.00684150
C        3.85082926       7.91826059       3.65639510       0.00000000       0.00033554      -0.00208590       0.01696611
C        2.58295091       9.98209056       3.68072231       0.00000000       0.00261543      -0.00027203       0.00335926
C        9.96772249       1.47378480       3.67524734       0.00000000       0.00116004       0.00310413       0.00375076
C        8.74207644       3.62367783       3.69530851       0.00000000      -0.00420894       0.00388963      -0.00679587
C        7.52457559       5.77186885       3.69105340       0.00000000      -0.00881215       0.00202230       0.00774152
C        6.29597313       7.92662547       3.66868752       0.00000000      -0.00366934       0.00031919       0.01120945
C        5.04451692      10.04421452       3.66385757       0.00000000       0.01464936       0.00118233       0.00329962
Ni       2.52640398       5.07101640       3.68197034       0.00000000      -0.00585672      -0.00552806      -0.01536108
O       -0.64267993       3.53389074       6.57204162       1.00000000      -0.00041299      -0.01158715      -0.00031734
O       -0.04996321       2.45979350       6.52930294       1.00000000       0.00291585       0.00092726       0.00276206
