52
Lattice="12.336457 0.0 0.0 -6.168228499999997 10.683685154694365 0.0 0.0 0.0 15.0" Properties=species:S:1:pos:R:3:forces:R:3 energy=-440.8793472857837 free_energy=-440.8793472857837 stress="-0.005810077229249481 -0.0003281436337070359 -2.80475299499109e-06 -0.0003281436337070359 -0.006361665834646541 -1.2642611545993457e-06 -2.80475299499109e-06 -1.2642611545993457e-06 1.886123765316825e-05" pbc="T T T"
C       -0.00943390      -0.04033585       3.85382738      -0.00675411       0.00186198      -0.00647095
C       -1.24862298       2.09924920       4.06848526       0.00359663      -0.00035720      -0.01024837
C       -2.50367238       4.24035013       3.91575789      -0.00139096      -0.00675275      -0.00432824
C       -3.71261827       6.37775026       3.70136216       0.00335844       0.00808024      -0.00997785
C       -4.93405128       8.51513195       3.69053139      -0.00507405       0.00185653       0.00276544
C        2.46128591      -0.05782552       3.71515901       0.00622413       0.00070381      -0.00672589
C        1.25073137       2.02721049       4.09417548       0.00158698       0.00354458       0.00555785
C       -0.10355096       4.29106612       4.24776560       0.00580267      -0.00285153      -0.01306549
C       -1.26851244       6.38127845       3.72216384       0.00092834      -0.00418255      -0.00205341
C       -2.46925784       8.50649532       3.62962923      -0.00612716      -0.00277366      -0.00717119
C        4.92854344      -0.03936265       3.56357585      -0.00125972       0.00172376       0.00827564
C        3.66967618       2.05017318       3.40528114      -0.00241729       0.00427578       0.01009115
P        1.27761579       6.18519296       2.79723388       0.00848981      -0.01053739      -0.00003153
C       -0.00971408       8.51644023       3.49263675      -0.00645520       0.00341829       0.00004555
C        7.39508663      -0.02578492       3.61678104      -0.00318662       0.00131677      -0.00984301
C        6.16209502       2.10476604       3.46145632      -0.00033842      -0.00269277       0.00930086
C        4.99912382       4.27779164       3.15474200       0.00402594       0.00818593      -0.00320964
C        3.75698424       6.40540304       3.30983141      -0.00353298      -0.00549075       0.00578685
C        2.46437638       8.53509888       3.47894977       0.00535469      -0.00110027       0.00126114
C        9.86284311      -0.02925242       3.77729316      -0.00959145       0.00473712      -0.00676170
C        8.62091707       2.10475114       3.77686232       0.00296112      -0.00428208      -0.00289826
C        7.39764177       4.24356592       3.59594293       0.00038824       0.00529438      -0.00015597
C        6.19290735       6.40260562       3.48759175      -0.00028988      -0.00142752       0.00826275
C        4.93857936       8.51935715       3.60904203       0.00487095      -0.00412959      -0.00336441
C       -0.00818328       1.38368067       4.02893645       0.00143406       0.00124925       0.00329358
C       -1.27889112       3.52269448       4.12337195       0.00274050      -0.00238783      -0.00052976
C       -2.49618343       5.66271859       3.80060468      -0.00028845      -0.00217016       0.00426481
C       -3.70605826       7.80081282       3.67468379      -0.00534008       0.00566861       0.00683357
C       -4.94245207       9.93093695       3.76743833       0.00142319       0.00139170       0.00160665
C        2.45885722       1.36421577       3.72461247       0.00146767       0.00171694       0.00859805
S        1.36808551       3.58119382       4.85218682       0.00025587      -0.00860544      -0.00277874
C       -0.06730242       5.63731671       3.82676655       0.00563630      -0.00309566      -0.01148194
C       -1.24262845       7.79792446       3.57305292      -0.00614782      -0.00244231       0.00857641
C       -2.47053540       9.92716554       3.62219810       0.00438807      -0.00405056       0.00524361
C        4.92337414       1.38870232       3.45925793      -0.00324591      -0.00037116      -0.00124556
P        3.56715402       3.52799146       2.42795192      -0.00386410      -0.00254543       0.00691132
C        1.23449355       7.86066969       3.34102077       0.00021987       0.00161458       0.00658427
C       -0.00621575       9.94343017       3.56032849      -0.00478772       0.00419385      -0.00228365
C        7.38991804       1.39899942       3.62428267       0.00216192      -0.00290395       0.00934705
C        6.17570091       3.52963222       3.39395151      -0.00015749       0.00242399       0.00429225
C        4.96782630       5.70655653       3.27905569       0.00096243       0.00188217       0.00132284
C        3.70529194       7.79624102       3.45505864       0.00833955      -0.00599363      -0.00267174
C        2.46350322       9.95125726       3.64100592      -0.00534992       0.00156725      -0.00523361
C        9.86152448       1.39430779       3.89306790       0.00005376       0.00215471       0.00333081
C        8.61154369       3.52805383       3.77749764      -0.00309679      -0.00488457      -0.00057211
C        7.40089623       5.66856673       3.60281812       0.00244445       0.00724688      -0.00040294
C        6.17086479       7.81350052       3.60724485       0.00147514      -0.00515931       0.00222325
C        4.92813572       9.93535491       3.75934816      -0.01120132      -0.00002270      -0.00154688
Ni       2.67588221       4.93533839       3.80983173       0.00900747       0.01428709      -0.00934493
O        2.27974985       6.27337654       9.86870671       0.00313349      -0.00287684       0.00302960
O        3.12620974       5.25329682      10.15366935      -0.00159875       0.00226076      -0.00711398
H        3.43751494       4.90895759       9.28667261      -0.00123548       0.00143068       0.00470646
