51
Lattice="12.336457 0.0 0.0 -6.168228499999997 10.683685154694365 0.0 0.0 0.0 15.0" Properties=species:S:1:pos:R:3:initial_magmoms:R:1:forces:R:3 energy=-447.54834248706305 free_energy=-447.54834248706305 stress="-0.007954716625654267 0.0010151413801194795 2.0601363232625023e-05 0.0010151413801194795 0.0020978355574145457 -1.8912394887386857e-06 2.0601363232625023e-05 -1.8912394887386857e-06 4.3566556617520807e-07" pbc="T T T"
C       -0.03154149      -0.19162432       3.67379909       0.00000000       0.00678164       0.00681052      -0.00100862
C       -1.28206363       1.91130648       3.68406314       0.00000000       0.00112443       0.00292730      -0.00216227
C       -2.52671892       4.06086791       3.72604297       0.00000000       0.00074889       0.00111137       0.00632038
C       -3.74404118       6.21239392       3.73355683       0.00000000      -0.00583156      -0.00130664      -0.00174700
C       -4.96196522       8.36567027       3.70725732       0.00000000       0.00354280      -0.00379967       0.00879277
C        2.44257578      -0.15332528       3.69579448       0.00000000       0.00024641      -0.00417341       0.00176140
C        1.20355143       2.00595984       3.67740603       0.00000000      -0.00051241       0.00321455       0.00594416
C       -0.09153517       4.05506292       3.70393889       0.00000000      -0.00243555      -0.00389891      -0.00123923
C       -1.30872616       6.22095721       3.73081419       0.00000000       0.00156339      -0.00009487      -0.00514706
C       -2.51544059       8.36211856       3.72385593       0.00000000      -0.00226606       0.00856763      -0.00089768
C        4.90390344      -0.21053912       3.70745252       0.00000000       0.00633606      -0.00198103       0.00136182
C        3.71520089       1.91451204       3.67566228       0.00000000      -0.00238919      -0.00051107       0.00493083
C        1.12371024       6.18159321       3.69340147       0.00000000      -0.00395101       0.00712752      -0.00059635
C       -0.04829659       8.32249722       3.71029816       0.00000000      -0.00088475      -0.00490599      -0.00645317
C        7.37822526      -0.24376525       3.69338641       0.00000000      -0.00342608      -0.00102297      -0.00415369
C        6.15729014       1.90515879       3.70953251       0.00000000       0.00296670      -0.00349140       0.00477764
C        4.97213680       4.03895608       3.69007446       0.00000000       0.00354879       0.00918549       0.00100595
C        3.71836594       6.17472046       3.67871416       0.00000000      -0.00944425      -0.00906489       0.00522504
C        2.43438093       8.29361748       3.67554046       0.00000000       0.00419637      -0.00432884       0.00577249
C        9.83355305      -0.23694150       3.66351008       0.00000000      -0.00541320       0.00157291       0.00463962
C        8.60361553       1.90493955       3.70713133       0.00000000       0.00719275       0.00092931      -0.00597071
C        7.37759462       4.06313925       3.72857975       0.00000000      -0.00095531      -0.00720275       0.00137699
C        6.15142595       6.20575846       3.70907507       0.00000000      -0.00159810       0.00133341       0.00162619
C        4.91423575       8.32897559       3.68556648       0.00000000       0.00267915      -0.00199116      -0.01052685
C       -0.03379218       1.23462252       3.67549070       0.00000000       0.00363217       0.00876923      -0.00418158
C       -1.31196602       3.33159941       3.70903303       0.00000000      -0.00204980      -0.00143112      -0.00428148
C       -2.52789617       5.49378122       3.73640214       0.00000000      -0.00229247       0.00103687      -0.00919559
C       -3.74089984       7.64565258       3.72467878       0.00000000       0.00116464       0.00116492       0.00033110
C       -4.95930195       9.79589661       3.69399841       0.00000000       0.00306756      -0.00514776      -0.00605771
C        2.46460793       1.28272858       3.67928519       0.00000000      -0.00470409      -0.00256866      -0.00108567
C        1.11385869       3.38615380       3.68397456       0.00000000      -0.00398843       0.00259522      -0.00103542
C       -0.08767478       5.50134129       3.71175124       0.00000000       0.00297097      -0.00247840       0.00868110
C       -1.28727604       7.64018436       3.72721621       0.00000000      -0.00454738       0.00190305      -0.00572294
C       -2.50684038       9.79187036       3.71013403       0.00000000       0.00397321       0.00596505      -0.00036150
C        4.91876678       1.21495999       3.69877116       0.00000000      -0.00051832      -0.00242214       0.00651875
O        3.79454860       3.31126783       3.62277790       0.00000000       0.01103697       0.00474975       0.01215905
C        1.19376623       7.57643838       3.68992488       0.00000000       0.00041212       0.00211973      -0.00668158
C       -0.03197301       9.74208166       3.70306940       0.00000000       0.00188568      -0.00619184      -0.00209531
C        7.37403910       1.18819075       3.70739822       0.00000000       0.00618959       0.00056793      -0.00471299
C        6.15705301       3.33074848       3.71749053       0.00000000      -0.00158708      -0.00214510      -0.00346470
C        4.91584294       5.46658518       3.69032097       0.00000000      -0.00203314       0.00800696       0.00595499
C        3.67456467       7.56399703       3.68284031       0.00000000       0.00227825      -0.00989870      -0.00399234
C        2.43719718       9.71647863       3.67407057       0.00000000      -0.00598933      -0.00411938      -0.00570815
C        9.82646633       1.18414343       3.68086661       0.00000000       0.00224455       0.00178628       0.00175355
C        8.59437486       3.33898079       3.72380030       0.00000000       0.00388293      -0.00153379      -0.00314152
C        7.36923128       5.48918277       3.72695200       0.00000000      -0.00497901      -0.00605523       0.00039084
C        6.14268335       7.63344528       3.70034819       0.00000000       0.00369202      -0.00041867      -0.00407036
C        4.90372093       9.75218250       3.67056167       0.00000000       0.00036602       0.00566016       0.00613704
Ni       2.38503101       4.82324695       3.66544901       0.00000000      -0.00166130       0.00328690       0.00977619
O        3.52297739       9.56163990       6.49437991       1.00000000      -0.00645404       0.01592231      -0.00087859
O        2.95526660      10.65106968       6.50925183       1.00000000      -0.00781220      -0.01413000       0.00133216
