51
Lattice="12.336457 0.0 0.0 -6.168228499999997 10.683685154694365 0.0 0.0 0.0 15.0" Properties=species:S:1:pos:R:3:initial_magmoms:R:1:forces:R:3 energy=-438.6205831585472 free_energy=-438.6205831585472 stress="-0.002806422632062436 -0.001311919401651807 -2.0123071786546753e-06 -0.001311919401651807 -0.002651907027327541 1.2720623895595754e-05 -2.0123071786546753e-06 1.2720623895595754e-05 -2.6067767812181778e-05" pbc="T T T"
C       -0.07804622      -0.06199235       3.96152241       0.00000000      -0.01116370      -0.00538331       0.00190469
C       -1.32037023       2.07450663       3.95822964       0.00000000       0.00097018       0.01241176      -0.00052389
C       -2.56936122       4.21240978       3.79546751       0.00000000       0.00144431      -0.00864065      -0.00992151
C       -3.78891762       6.35132348       3.73068719       0.00000000       0.01446956      -0.00264555      -0.01952453
C       -5.01312723       8.48355995       3.82162102       0.00000000      -0.00400474       0.01015797      -0.00574957
C        2.39500172      -0.09819983       3.87579165       0.00000000       0.01514002      -0.01568708       0.00405394
C        1.18574181       2.01285960       4.09816787       0.00000000       0.00765960      -0.03017542       0.01497987
C       -0.14040757       4.27000350       3.98458367       0.00000000       0.00488463      -0.00402402       0.00327430
C       -1.35440522       6.37297679       3.78823641       0.00000000      -0.00672478       0.00214805      -0.00182794
C       -2.54520728       8.48450214       3.78257111       0.00000000      -0.00927465       0.01335768      -0.01019683
C        4.86428348      -0.07316211       3.68520664       0.00000000      -0.00130282       0.00401162      -0.00691527
C        3.58871248       2.01212896       3.50809261       0.00000000      -0.00296208      -0.00858748      -0.00582662
C        1.08019075       6.35667457       4.19507501       0.00000000      -0.00386608      -0.00610265       0.01286964
C       -0.06626703       8.47082682       3.79684631       0.00000000      -0.00772735      -0.00058540       0.00117227
C        7.33042644      -0.07258658       3.71941348       0.00000000      -0.01211872       0.00562381      -0.00214267
C        6.07781035       2.08751872       3.51733010       0.00000000      -0.01237604       0.00541043       0.00963870
C        4.86284986       4.31307333       3.26884820       0.00000000       0.00402929       0.00762066       0.00196958
O        3.73031578       6.44205789       3.36402855       0.00000000      -0.01417629       0.00193778      -0.00934681
C        2.42379352       8.44480404       3.78999823       0.00000000       0.01619788      -0.00215832      -0.01507022
C        9.78772785      -0.06870519       3.84501009       0.00000000      -0.00222859      -0.00440016      -0.00208698
C        8.54600432       2.07375203       3.73624669       0.00000000       0.01060546       0.00339046       0.00622977
C        7.30329407       4.21897961       3.59808004       0.00000000      -0.00120853       0.00102026      -0.00473520
C        6.10674156       6.38114256       3.57603965       0.00000000       0.00203847      -0.00169957       0.00338733
C        4.86724653       8.49331774       3.76531954       0.00000000       0.01456966       0.00293642      -0.01157715
C       -0.07752322       1.36460513       4.04121935       0.00000000      -0.00846622      -0.00617144       0.01293170
C       -1.32646885       3.50519826       3.91036422       0.00000000       0.00086856       0.00391719       0.00312259
C       -2.56752268       5.63836432       3.76142676       0.00000000       0.00594094      -0.01508016      -0.00411274
C       -3.77771897       7.77331615       3.78243028       0.00000000      -0.00269232       0.00761753      -0.01166751
C       -5.01446695       9.90033499       3.91374497       0.00000000      -0.00060008       0.00700109       0.01837529
C        2.39662638       1.30737146       3.86079817       0.00000000       0.01254704      -0.02500844       0.00215480
P        1.47505898       3.71779938       4.33966172       0.00000000       0.00044584       0.02158438      -0.01580051
C       -0.12943368       5.68260397       3.95903008       0.00000000      -0.00431316      -0.00215664       0.00452055
C       -1.31401148       7.78122166       3.77592075       0.00000000      -0.01704504       0.00821536       0.00349207
C       -2.53552250       9.89658791       3.78170027       0.00000000       0.00970408       0.00541812      -0.01356477
C        4.85123280       1.35545033       3.54515603       0.00000000      -0.00583254      -0.00396078       0.01574050
P        3.29202555       3.59323473       2.78926100       0.00000000      -0.00419756       0.00248511       0.01013275
C        1.16912760       7.72455959       3.91378663       0.00000000       0.00584875       0.00072591       0.00637315
C       -0.06913241       9.89530858       3.72024674       0.00000000      -0.01088920      -0.00013968       0.01032827
C        7.31326303       1.36338273       3.65162161       0.00000000      -0.00208557       0.01244871       0.00151862
C        6.05712819       3.52981724       3.45311213       0.00000000      -0.00694947       0.00681631       0.00558687
C        4.90890024       5.71645074       3.36742186       0.00000000      -0.00230791       0.00671254       0.00398683
C        3.66922678       7.78683555       3.64726077       0.00000000       0.01633503       0.00316711       0.00519679
C        2.39895370       9.87764291       3.78250409       0.00000000      -0.00675332      -0.00102326       0.00253361
C        9.78497881       1.36473683       3.85532304       0.00000000       0.01169408      -0.00021955       0.00277938
C        8.53852506       3.50131655       3.71341765       0.00000000      -0.00092544      -0.00014295      -0.00923005
C        7.32185949       5.64063868       3.63573264       0.00000000       0.00946168      -0.00172053       0.00628169
C        6.10190093       7.78841228       3.73073435       0.00000000       0.00611287      -0.00051262      -0.01436113
C        4.85600828       9.91532721       3.88045005       0.00000000      -0.00375577      -0.00723290      -0.00956969
Ni       2.15378659       5.34588728       5.49649933       0.00000000      -0.00907164       0.00080586      -0.02622680
O        4.63016479       6.18442805       6.05886890       1.00000000       0.01467362       0.00234988      -0.03073935
O        3.38892301       6.34142238       6.37780986       1.00000000      -0.01062197      -0.00583346       0.06618221
