52
Lattice="12.336457 0.0 0.0 -6.168228499999997 10.683685154694365 0.0 0.0 0.0 15.0" Properties=species:S:1:pos:R:3:forces:R:3 energy=-442.82324814478216 free_energy=-442.82324814478216 stress="-3.797525018268589e-05 0.0018543893594499634 1.4084619156827279e-05 0.0018543893594499634 0.0009191602604794622 1.284091426052869e-05 1.4084619156827279e-05 1.284091426052869e-05 1.2543759113413088e-05" pbc="T T T"
C       -0.09263298       0.13846883       3.87577996      -0.00388033      -0.00165792       0.00392630
C       -1.32743952       2.27011739       3.65115705       0.00094112      -0.00151956      -0.00226081
C       -2.59641855       4.40777746       3.72959905       0.00540033       0.00301013      -0.00505347
C       -3.82832402       6.54232385       3.94340535      -0.00766373      -0.00883614      -0.00392535
C       -5.04216236       8.67997318       4.01573887       0.00220224      -0.00314279       0.01124692
C        2.37738743       0.14817948       4.00920953      -0.00192208       0.00260433       0.00069565
C        1.17592838       2.24353438       3.58195826      -0.00340423      -0.00180166       0.00000345
C       -0.23450574       4.42235714       3.09978381       0.00507586       0.00278102       0.00055225
C       -1.38952328       6.56733550       3.59848266      -0.00055036      -0.00173533       0.00646317
C       -2.57715039       8.68089794       3.96081808       0.00481872      -0.00504908      -0.00314023
C        4.84165217       0.12006180       4.00207243      -0.00186105       0.00024061      -0.00183617
C        3.65158272       2.25314114       3.99204517      -0.00197010       0.00349337      -0.00391977
P        0.84977990       6.90588856       2.07437585      -0.00114949      -0.00870702       0.00073599
C       -0.11335217       8.68110589       3.74139858       0.00479552       0.00332485      -0.00410568
C        7.31158110       0.12383637       3.89991493       0.00120004      -0.00648939      -0.00327291
C        6.08377229       2.25757140       3.99153867      -0.00498967       0.00682057       0.00282404
C        4.83477664       4.35672875       4.02929854      -0.00663581       0.00167322       0.01003183
C        3.56319805       6.52086454       3.86474557       0.01597209       0.00704122      -0.00117973
C        2.37464673       8.67852693       3.69856991      -0.00027964       0.00398913       0.00439138
C        9.77890619       0.13054834       3.84931809      -0.00297545      -0.00574887      -0.00473520
C        8.54529631       2.26725540       3.87255266       0.00252289       0.00147144      -0.00443123
C        7.28475879       4.40272412       3.95802744      -0.00325461      -0.00153582      -0.00283029
C        6.02587773       6.52437756       4.01313780      -0.00229004      -0.00359804      -0.00155859
C        4.83402411       8.66654438       3.92131412      -0.00169815       0.00090664      -0.00809098
C       -0.07798395       1.56754099       3.69306087      -0.00137840      -0.00004151       0.00919772
C       -1.37477430       3.69070784       3.49936744       0.00236181      -0.00027511      -0.01120104
C       -2.60260164       5.83576329       3.77688847      -0.00252232       0.00129431       0.00391108
C       -3.81595376       7.96814825       3.99465358       0.00179064      -0.00712695      -0.00379724
C       -5.03179722      10.11019843       3.98165831      -0.00300943       0.00109580       0.00106499
C        2.39806159       1.57699677       3.89615366      -0.00247283       0.00323304       0.00553868
P        1.32017618       3.76626810       2.68747639       0.00464027       0.01003975       0.00446669
C       -0.19480742       5.86566794       3.18795097       0.00454288       0.00240489      -0.00129087
C       -1.35296812       7.97537651       3.76854916       0.00658184      -0.00570333       0.00094602
C       -2.56749859      10.10607695       4.02288037      -0.00118031      -0.00141166       0.00829683
C        4.85253908       1.54812342       4.01945868      -0.00386643       0.00469933       0.00239932
O        3.69090347       3.61540827       4.15601612       0.00199035       0.00328481       0.00097679
C        1.13472978       7.99095404       3.47862535       0.00246590       0.01559552       0.00136120
C       -0.09326376      10.08958679       3.91898128       0.00007283       0.00050633      -0.00337061
C        7.30924938       1.55245942       3.93287863      -0.00159794      -0.00145386       0.00647669
C        6.05720240       3.67921306       4.00004666      -0.00752434       0.00515509       0.00534063
C        4.75779131       5.79320009       3.98562799       0.00392485      -0.00134256      -0.00118658
C        3.59610152       7.92081558       3.82155738      -0.00025440       0.00508594       0.00310778
C        2.37636123      10.09604962       3.83102044       0.00033044      -0.00252466      -0.00510959
C        9.78399093       1.55748365       3.80446261       0.00212141      -0.00701457      -0.00144090
C        8.52613504       3.69344458       3.87272600       0.00366671       0.00543232      -0.00451978
C        7.26668576       5.82774665       3.99029752      -0.00461431      -0.00722635      -0.00265784
C        6.05233509       7.95216676       3.99568341      -0.00173100      -0.00310689       0.01233785
C        4.84225762      10.09823698       3.88405815      -0.00279212      -0.00165812      -0.00454935
Ni       1.75998366       5.84076017       3.59026883       0.00478327       0.00102078      -0.00668788
O        5.09714303       3.10031623       6.48477747      -0.00756746      -0.01080384      -0.00604575
O        3.85029727       2.72553725       6.82928505      -0.00528385       0.00558892      -0.00827455
H        3.42635729       3.55148497       7.15102884       0.00811788      -0.00228234       0.00417916
