51
Lattice="12.336457 0.0 0.0 -6.168228499999997 10.683685154694365 0.0 0.0 0.0 15.0" Properties=species:S:1:pos:R:3:initial_magmoms:R:1:forces:R:3 energy=-443.7622477326309 free_energy=-443.7622477326309 stress="-0.003178463402085152 0.0007451702821310515 3.12434844928837e-05 0.0007451702821310515 0.006610319225031029 1.5807605393119627e-05 3.12434844928837e-05 1.5807605393119627e-05 -1.0907346546172068e-05" pbc="T T T"
C        0.03706197      -0.10392183       3.69334768       0.00000000      -0.01596753      -0.00621295      -0.00035449
C       -1.20751073       2.00918197       3.72534410       0.00000000       0.00677467      -0.00481277      -0.00407020
C       -2.44191430       4.15161065       3.75171716       0.00000000       0.00164908       0.00303478      -0.00056555
C       -3.66191892       6.29761393       3.73712469       0.00000000      -0.00325053      -0.00737056      -0.00652741
C       -4.88990442       8.45265577       3.70436875       0.00000000       0.00092847       0.00542200       0.00041353
C        2.50518635      -0.05751578       3.69950058       0.00000000       0.00125325       0.01228854       0.00736989
C        1.25144765       2.09780975       3.70064445       0.00000000       0.00056995       0.00553355       0.00828730
C       -0.00222036       4.15699119       3.75221878       0.00000000      -0.00677516       0.00114566      -0.00915247
C       -1.21154617       6.29478781       3.74508899       0.00000000      -0.00078341       0.00183484       0.00187257
C       -2.43270828       8.44271994       3.72069133       0.00000000      -0.00229477      -0.00292860      -0.01119736
C        4.96535230      -0.11510275       3.69576254       0.00000000       0.01558476       0.00204664      -0.00053831
C        3.76370270       2.01839482       3.68905289       0.00000000       0.00358092      -0.00427468      -0.01820724
O        1.17639145       6.29282098       3.78081497       0.00000000      -0.01164394       0.01067418       0.00095006
C        0.02880386       8.40478644       3.66048243       0.00000000      -0.00137684       0.00603636      -0.00701083
C        7.43811209      -0.15661111       3.68544214       0.00000000       0.01134022      -0.01018657      -0.00731490
C        6.21334903       2.00186490       3.70155236       0.00000000       0.00317570      -0.00108974       0.00520572
C        5.02872912       4.14194796       3.66484997       0.00000000       0.00370373      -0.00620608      -0.00970647
C        3.80519719       6.24951717       3.63501571       0.00000000       0.00480100       0.00840100       0.01035660
C        2.47178234       8.35089428       3.63268297       0.00000000      -0.00190848      -0.00242367      -0.00076559
C        9.89396834      -0.15569316       3.68471993       0.00000000      -0.00801767      -0.00217716       0.00028689
C        8.66861156       1.99628503       3.72344710       0.00000000      -0.00827767       0.00291351      -0.00488302
C        7.44542322       4.15021136       3.72433555       0.00000000       0.00386319       0.00699702      -0.01369982
C        6.23497315       6.29635059       3.68675179       0.00000000       0.00411611      -0.00479229       0.01002458
C        4.96921394       8.40560727       3.66574185       0.00000000       0.00929020      -0.00232400      -0.00246603
C        0.03887380       1.33027344       3.70584514       0.00000000       0.00503861      -0.00707112       0.00363186
C       -1.22040150       3.43358465       3.74881737       0.00000000      -0.00148851      -0.00348588       0.00718226
C       -2.44197428       5.57427056       3.75098842       0.00000000       0.00062729       0.00175735       0.00195444
C       -3.66696345       7.73074299       3.72562892       0.00000000      -0.00468989      -0.00732137      -0.00202763
C       -4.89132188       9.88489918       3.69678342       0.00000000      -0.00742968       0.01093614       0.01085570
C        2.51462013       1.39057309       3.69205588       0.00000000       0.00104525       0.00971928       0.01042000
N        1.19555536       3.46851856       3.71274227       0.00000000      -0.00666467       0.00497176      -0.00036259
C       -0.02952503       5.57207058       3.75376847       0.00000000      -0.00407143       0.00115594       0.00521930
C       -1.21302614       7.72368169       3.71339037       0.00000000       0.00080766       0.00141265      -0.00192534
C       -2.44170533       9.88454880       3.70664816       0.00000000       0.00781113       0.00575006      -0.01140297
C        4.96713590       1.31802336       3.69694490       0.00000000       0.00588102       0.00066283      -0.00012502
O        3.82447409       3.43323312       3.64082768       0.00000000      -0.00990232      -0.00464940       0.01590835
C        1.23247628       7.70039342       3.60273982       0.00000000      -0.00646920       0.00522065      -0.00209858
C        0.03240384       9.83699187       3.67919707       0.00000000       0.01392269      -0.00035161      -0.01228342
C        7.43351098       1.28273824       3.70626520       0.00000000      -0.00265914      -0.01102378      -0.00489529
C        6.21309752       3.42597968       3.69863589       0.00000000       0.00924613      -0.00041480       0.00499373
C        4.99313152       5.56138418       3.65614233       0.00000000       0.00352774      -0.00644042       0.01092454
C        3.73290060       7.62041043       3.64398718       0.00000000       0.00486937       0.00689472       0.00711001
C        2.49272966       9.79012883       3.66707260       0.00000000       0.00398292      -0.01053642      -0.00983333
C        9.89882397       1.27755530       3.71386133       0.00000000      -0.00361407       0.00234508       0.00615213
C        8.66515212       3.42864183       3.73875471       0.00000000      -0.00032831       0.00893027      -0.00381437
C        7.44799923       5.57628533       3.72026153       0.00000000      -0.00171153      -0.00013273      -0.00414383
C        6.21457684       7.72201658       3.68607686       0.00000000       0.01024451      -0.00354643       0.00292668
C        4.96943091       9.83504151       3.68051170       0.00000000      -0.01379922      -0.00866537       0.00673704
Ni       2.47106035       4.81088788       3.65502833       0.00000000       0.00694053       0.00401867       0.00200518
O        1.94382991       7.33814831       6.45565070       1.00000000      -0.00477765      -0.00180875       0.00757159
O        1.28666537       8.37938432       6.47521583       1.00000000      -0.01667451      -0.00985634       0.00101210
