51
Lattice="12.336457 0.0 0.0 -6.168228499999997 10.683685154694365 0.0 0.0 0.0 15.0" Properties=species:S:1:pos:R:3:initial_magmoms:R:1:forces:R:3 energy=-447.5403900770123 free_energy=-447.5403900770123 stress="-0.007301619136370625 -0.0016137520069222338 -8.016394703881166e-06 -0.0016137520069222338 0.0040316414874404525 4.918244923604745e-07 -8.016394703881166e-06 4.918244923604745e-07 -9.412913307539743e-07" pbc="T T T"
C        0.09232799       0.09157153       3.66463112       0.00000000      -0.00181515       0.00788737       0.00560192
C       -1.16291599       2.20282370       3.62878980       0.00000000      -0.00387599      -0.00187166       0.00809923
C       -2.38365674       4.35749744       3.65264523       0.00000000       0.00019333       0.00122691      -0.00603510
C       -3.59574377       6.51184489       3.69843336       0.00000000      -0.00462002      -0.00285475       0.00174805
C       -4.82668119       8.66238144       3.70559629       0.00000000      -0.00292612       0.00360837       0.00037444
C        2.55451584       0.15164927       3.70358875       0.00000000       0.00064274       0.00314800       0.00474431
C        1.27756566       2.22143785       3.67978640       0.00000000       0.00464293      -0.00051489      -0.00285255
C        0.02015178       4.33494309       3.65302675       0.00000000      -0.00012520      -0.00263200       0.00460083
C       -1.16067983       6.50448641       3.68247106       0.00000000      -0.00445571       0.00137315       0.00169000
C       -2.37860595       8.66636866       3.70743360       0.00000000       0.00033950      -0.00251352      -0.00698755
C        5.02570110       0.11222642       3.72464945       0.00000000       0.00040804       0.00156883       0.00015195
C        3.78822113       2.32380540       3.73340861       0.00000000       0.00146383      -0.00057063      -0.00617670
C        1.26599593       6.46408585       3.71019673       0.00000000      -0.00512046       0.00142315       0.00346750
C        0.08589581       8.62205658       3.71399905       0.00000000       0.00386507       0.00171306      -0.00109474
C        7.50152585       0.05547074       3.71176033       0.00000000      -0.00139759       0.00180455      -0.00692369
C        6.27438508       2.21507587       3.72915927       0.00000000      -0.00098197       0.00277904      -0.00919682
C        5.07454266       4.36980113       3.74312813       0.00000000       0.00105889      -0.00257937      -0.00391886
N        3.91257971       6.49782309       3.72722245       0.00000000       0.00222192       0.00314898       0.00485303
C        2.57759667       8.56774290       3.71436328       0.00000000       0.00005448       0.00111894      -0.00061010
C        9.95709337       0.05106441       3.67560962       0.00000000      -0.00542745      -0.00474285      -0.00112814
C        8.72711121       2.20319695       3.67594504       0.00000000       0.00075899      -0.00141312      -0.00224327
C        7.51901742       4.36074783       3.71056503       0.00000000       0.00297092      -0.00506534       0.00194876
C        6.30560290       6.52226196       3.72755978       0.00000000       0.00249992      -0.00493239      -0.00161992
C        5.04377314       8.61840350       3.70905514       0.00000000       0.00243085       0.00493099      -0.01130214
C        0.07774543       1.51591020       3.64845814       0.00000000       0.00083112       0.00512604       0.00128816
C       -1.16443968       3.62785466       3.62816506       0.00000000       0.00019840      -0.00142949       0.00694559
C       -2.37559657       5.78694533       3.67525944       0.00000000      -0.00454830       0.00065625      -0.00055159
C       -3.59845946       7.94555155       3.70528075       0.00000000      -0.00335160      -0.00094919      -0.00204555
C       -4.83276266      10.09450331       3.69052074       0.00000000      -0.00223920       0.00683337       0.00382196
C        2.52832144       1.59015666       3.71014469       0.00000000       0.00378127       0.00111405       0.00071911
O        1.20033516       3.61534699       3.77106945       0.00000000       0.00244458      -0.00288858       0.00915316
C        0.07523869       5.75936756       3.67964861       0.00000000      -0.00509813       0.00052084      -0.00532479
C       -1.14843682       7.93061677       3.70164592       0.00000000       0.00325120       0.00020304       0.01077609
C       -2.38170851      10.09812180       3.71450232       0.00000000       0.00017590      -0.00019502       0.00403054
C        5.02558535       1.54166751       3.73352744       0.00000000       0.00021468       0.00234853       0.00192493
C        3.87546450       3.70778421       3.74037370       0.00000000      -0.00051922      -0.00239802      -0.01521369
C        1.32625639       7.84437868       3.71519668       0.00000000       0.00109049       0.00227143      -0.00148290
C        0.09060084      10.04850301       3.72063745       0.00000000       0.00090441       0.00166482      -0.00165128
C        7.50435772       1.48308259       3.70652883       0.00000000      -0.00041131       0.00226922       0.01035886
C        6.30513658       3.63700236       3.73314361       0.00000000      -0.00040651       0.00012493      -0.00297328
C        5.09120357       5.81870762       3.73745997       0.00000000       0.00240727      -0.00233154       0.00020036
C        3.82607518       7.86861768       3.71755307       0.00000000       0.00310198       0.00586889       0.00305331
C        2.56572003      10.00011296       3.70222969       0.00000000      -0.00500357      -0.00253339      -0.00168492
C        9.95874985       1.48592549       3.64909969       0.00000000      -0.00271728      -0.00539877       0.00353609
C        8.73453214       3.63740582       3.67716809       0.00000000       0.00327682      -0.00156801       0.00197961
C        7.52441371       5.79196554       3.71308815       0.00000000       0.00051518      -0.00746672       0.00043929
C        6.28452904       7.94028801       3.71547630       0.00000000       0.00023481      -0.00164741      -0.00253709
C        5.02783687      10.04031029       3.68000659       0.00000000      -0.00116493       0.00492341       0.00354499
Ni       2.67056936       5.20568457       3.72978100       0.00000000       0.00512203      -0.01143491      -0.00718634
O        0.69801404       2.52139382       6.44293211       1.00000000       0.00993942      -0.01396741      -0.00502204
O       -0.39607984       3.07843827       6.36004489       1.00000000      -0.00483530       0.01424282       0.00671092
