52
Lattice="12.336457 0.0 0.0 -6.168228499999997 10.683685154694365 0.0 0.0 0.0 15.0" Properties=species:S:1:pos:R:3:forces:R:3 energy=-447.7386647979282 free_energy=-447.7386647979282 stress="-0.0029749495031841165 0.0017987563518125677 1.9639969970717085e-05 0.0017987563518125677 0.006574783718728698 -4.683685974529952e-06 1.9639969970717085e-05 -4.683685974529952e-06 -2.367476878313539e-05" pbc="T T T"
C        0.05197373      -0.05725867       3.80758050       0.00149985      -0.00436208      -0.00834778
C       -1.18195451       2.06147542       3.75148092      -0.00305756      -0.00167167      -0.00643383
C       -2.41171862       4.20084385       3.71165734       0.00625733      -0.00466101      -0.00351233
C       -3.64617446       6.34481972       3.74592903      -0.00001597       0.00953484      -0.00936240
C       -4.87803194       8.49935396       3.79662965       0.00353329      -0.00468737      -0.00100041
C        2.52016072      -0.00715067       3.81651847       0.00186242      -0.00534967      -0.00929481
C        1.27013986       2.15398813       3.84714214       0.00706588       0.00680947       0.00783177
C        0.04489269       4.21496423       3.71509823      -0.01046746       0.00061310       0.00367200
C       -1.19849164       6.34635317       3.67396748      -0.00672050      -0.01260804      -0.00445484
C       -2.42351558       8.49331817       3.74009752       0.01168720       0.00790745       0.00515149
C        4.98195212      -0.06497325       3.76267541      -0.00482766      -0.00008685       0.00547432
C        3.78760671       2.05990519       3.84431294       0.00424145      -0.00194026      -0.00865531
O        1.16119899       6.37704462       3.53730212       0.01504778       0.00153166      -0.00821557
C        0.03429272       8.46708690       3.68011537       0.00015784      -0.00101179       0.00574749
C        7.46008157      -0.10838017       3.74119151      -0.00025160      -0.00531556       0.00547697
C        6.23909225       2.04685680       3.76920995       0.00026370      -0.00399073       0.00620750
C        5.05906825       4.18444921       3.83848257      -0.00624822       0.00747610      -0.00425309
C        3.82318748       6.28420821       4.00495832       0.00587332       0.00921936       0.00809527
C        2.48911262       8.39277116       3.76302957       0.00677183      -0.00582582      -0.00246044
C        9.91449040      -0.10936760       3.77521600      -0.00519337       0.00407511       0.00532581
C        8.69534979       2.04450846       3.74256391      -0.00404741       0.01068153      -0.00128198
C        7.47323037       4.19596883       3.76049958       0.00711060       0.00222072       0.00048804
C        6.24993039       6.33864735       3.80241166      -0.00422088      -0.00218840       0.00092948
C        4.97847962       8.44530923       3.82686055      -0.00145899      -0.00892843       0.00366119
C        0.05694829       1.37688528       3.79438793       0.00350162       0.00216446       0.00401066
C       -1.18274247       3.49035409       3.70685591      -0.00150387      -0.00624606      -0.00754112
C       -2.42343069       5.62464079       3.71275361      -0.00852939      -0.00718538      -0.00371216
C       -3.65566071       7.77772298       3.76108760       0.01124321       0.01253413       0.00089460
C       -4.87703695       9.93257237       3.81344079       0.00290553      -0.00690945      -0.01237213
C        2.53434160       1.43863716       3.84989310       0.00761493      -0.00354966      -0.00082971
N        1.21974352       3.51899319       3.90635405      -0.00939791       0.00937510      -0.01141342
C       -0.00069893       5.63897675       3.63023560      -0.00576712      -0.00468906      -0.00208933
C       -1.20456578       7.77611561       3.68846978       0.00299824      -0.00860718       0.00199534
C       -2.42683452       9.93457545       3.77490170       0.00057990       0.00216339       0.00070755
C        4.99165717       1.36320816       3.79036794       0.00184412      -0.00495044       0.00989271
O        3.85797921       3.46814494       3.81627868      -0.00611960       0.00084205      -0.00017820
C        1.23720639       7.75579861       3.64502791       0.00439736       0.00415661       0.01622011
C        0.04901626       9.89162558       3.72742528      -0.00640819       0.00221599       0.00454763
C        7.45932376       1.32985579       3.74990996       0.00147243      -0.00079932      -0.00320287
C        6.24287504       3.46975530       3.78545635      -0.00398171       0.00461801      -0.00233520
C        5.01196177       5.60067182       3.86753379      -0.00708465       0.00869359       0.00266126
C        3.74507336       7.65764507       3.86473085       0.00275177      -0.00067662       0.00479909
C        2.51274298       9.83190833       3.75875754       0.00188628      -0.00658945      -0.00572712
C        9.92304928       1.32695864       3.75244378      -0.00953240       0.00830342       0.00338840
C        8.69500652       3.47687044       3.73485316       0.00949495       0.00533315       0.00273360
C        7.46747599       5.62122675       3.76692965       0.00151957       0.00368433      -0.00284079
C        6.22780344       7.76546875       3.81186423      -0.00033256      -0.00794783      -0.00808658
C        4.98402038       9.87839714       3.80216566      -0.00441240      -0.00547714       0.00027676
Ni       2.57678303       4.75633353       4.48043489       0.00023373      -0.00044399       0.00250236
O        1.51455359       5.21611430       5.92709534      -0.00050266      -0.00600623      -0.00354838
O        1.62431399       6.61108818       6.26232187      -0.01123916       0.01365533       0.00897889
H        2.30107806       6.56385456       6.96866138      -0.00249486      -0.00510341       0.00947953
