52
Lattice="12.336457 0.0 0.0 -6.168228499999997 10.683685154694365 0.0 0.0 0.0 15.0" Properties=species:S:1:pos:R:3:initial_magmoms:R:1:forces:R:3 energy=-450.3393150487736 free_energy=-450.3393150487736 stress="0.0009074773884919883 -0.0006094078978223865 2.258780466301935e-06 -0.0006094078978223865 -0.0037734523329733638 5.057133677742391e-06 2.258780466301935e-06 5.057133677742391e-06 -4.223718151735646e-06" pbc="T T T"
C       -0.02295247      -0.05385236       3.81042240       0.00000000      -0.00119434       0.00142188      -0.00063641
C       -1.25140616       2.08906809       3.92505447       0.00000000      -0.00605484      -0.00328383       0.01769291
C       -2.48582999       4.22837459       3.93848794       0.00000000      -0.00255101      -0.00165637      -0.00507468
C       -3.71914716       6.36049198       3.84990912       0.00000000      -0.00013945      -0.00396112      -0.00252495
C       -4.97074886       8.48399156       3.73766737       0.00000000       0.00234831       0.00231747      -0.00286209
C        2.44395176      -0.06640647       3.88346028       0.00000000       0.00145372      -0.00347497       0.00363613
C        1.21715628       2.06051109       3.93434156       0.00000000      -0.00040939       0.00024191      -0.01102057
C       -0.00621838       4.20473556       3.83384598       0.00000000      -0.00608892      -0.00321871      -0.00584102
C       -1.24270817       6.35818260       3.72980909       0.00000000      -0.00547910       0.00002207      -0.00172481
C       -2.48168290       8.48850763       3.79139991       0.00000000      -0.00072069       0.00325593      -0.00736180
C        4.91289752      -0.05076556       3.85832265       0.00000000      -0.00096513       0.00936400       0.00041247
C        3.66652014       2.08023719       3.95317865       0.00000000      -0.00795137       0.00078279       0.00895820
N        2.42622685       4.13893541       4.00811671       0.00000000       0.00023834      -0.00210066      -0.00369534
P        1.08797922       6.31827661       2.33565735       0.00000000       0.00585732      -0.00067259      -0.01015647
C       -0.02124475       8.51754884       3.54723388       0.00000000       0.00756154      -0.00278570       0.00737284
C        7.37547389      -0.01988164       3.74876533       0.00000000       0.00161401       0.00297173       0.01157174
C        6.13658228       2.09661571       3.96360733       0.00000000      -0.00058565       0.00004331      -0.00317775
C        4.88234371       4.23088698       3.83676193       0.00000000       0.00509874      -0.00119687      -0.00232073
S        3.70213979       6.28990166       2.48612111       0.00000000      -0.00590470       0.00077005      -0.00004763
C        2.45153094       8.59496570       3.22517112       0.00000000       0.00582587      -0.00099861       0.00058130
C        9.85018498      -0.02141151       3.71699058       0.00000000      -0.00066225      -0.00266611      -0.00379171
C        8.61124632       2.10011001       3.93614111       0.00000000       0.00030312       0.00679884       0.00066703
C        7.37028501       4.23188189       3.93913352       0.00000000      -0.00167219      -0.00151713      -0.00481611
C        6.13601804       6.35795245       3.63998916       0.00000000       0.00442976       0.00078917      -0.00508628
C        4.91632288       8.52121642       3.43933790       0.00000000       0.00052754      -0.00434211       0.00411338
C       -0.02234994       1.36669503       3.90267727       0.00000000      -0.00239793       0.00221638      -0.00042631
C       -1.24515090       3.51217902       3.93034872       0.00000000      -0.00618337      -0.00443782       0.00317503
C       -2.47686767       5.65194311       3.87420160       0.00000000      -0.00232779      -0.00360757      -0.00437847
C       -3.72325889       7.77960289       3.80082691       0.00000000       0.00032318      -0.00162674      -0.00266552
C       -4.96163774       9.91049627       3.81125437       0.00000000       0.00078280       0.00147567      -0.00158023
C        2.44287433       1.35658183       3.93811642       0.00000000      -0.00356985      -0.00572194       0.00073175
C        1.23369308       3.47974199       3.91998762       0.00000000       0.00126371       0.00194770      -0.00199720
C       -0.00881798       5.61857667       3.60639664       0.00000000      -0.00714778      -0.00083638       0.00968732
C       -1.24179006       7.78261822       3.68108391       0.00000000       0.00139373       0.00295343       0.00611458
C       -2.48657103       9.91181645       3.84700150       0.00000000       0.00312534       0.00322297       0.00636795
C        4.90744457       1.37559579       3.93775331       0.00000000      -0.00596242       0.00899384      -0.00485910
C        3.63786608       3.50159679       3.93308380       0.00000000      -0.00058098      -0.00059911      -0.00601651
C        1.21498143       7.86219217       3.22254624       0.00000000       0.00974718      -0.00790399      -0.00541449
C       -0.02144219       9.93438448       3.72973878       0.00000000       0.00069781       0.00313005       0.00204465
C        7.37444603       1.39170438       3.90626131       0.00000000       0.00256469       0.00589454      -0.00078616
C        6.12661244       3.52238609       3.95339796       0.00000000       0.00225113      -0.00400356      -0.00801116
C        4.94318645       5.60588899       3.50342225       0.00000000       0.00219104       0.00648980       0.01228246
C        3.68880965       7.91673918       3.10470327       0.00000000       0.00231913      -0.00127997      -0.00127788
C        2.44507268       9.97895271       3.57165486       0.00000000      -0.00040346       0.00087653      -0.00711639
C        9.84894001       1.38938154       3.88367235       0.00000000      -0.00446533      -0.00090502      -0.00349454
C        8.61186765       3.52203617       3.96654989       0.00000000      -0.00230419       0.00484435       0.00746180
C        7.37425586       5.65287830       3.83872846       0.00000000      -0.00011061      -0.00204547       0.00681901
C        6.13329710       7.78143047       3.57372377       0.00000000       0.00334413       0.00119889       0.00496431
C        4.91367746       9.93839378       3.66253463       0.00000000      -0.00050597      -0.00319185       0.00166232
Ni       2.17228448       6.00827070       4.33131276       0.00000000       0.00561038       0.00476147       0.00228901
O        4.16720401       7.00203847       5.95134432       1.00000000      -0.00728374       0.00579736      -0.00448295
O        2.93314091       6.64349724       5.94500730       1.00000000       0.01274996      -0.01454794       0.00403902
