52
Lattice="12.336457 0.0 0.0 -6.168228499999997 10.683685154694365 0.0 0.0 0.0 15.0" Properties=species:S:1:pos:R:3:forces:R:3 energy=-442.1347021405117 free_energy=-442.1347021405117 stress="-0.007914164327604105 0.00045584167244087286 -1.2165919778917607e-05 0.00045584167244087286 -0.007590501366279373 3.2498645513857664e-05 -1.2165919778917607e-05 3.2498645513857664e-05 -5.170088054170416e-05" pbc="T T T"
C       -0.01873222       0.04037946       3.89041222      -0.00091272       0.00603682      -0.00187137
C       -1.24130932       2.19527532       3.80223252      -0.00309884       0.00220984       0.00474985
C       -2.46605171       4.33641722       3.92256692       0.00469218       0.00361521      -0.00474110
C       -3.69910716       6.47168669       3.95620302      -0.00327678      -0.00290895      -0.00226821
C       -4.95614686       8.59080013       3.88383253       0.00506257       0.00472020       0.00098745
C        2.44778581       0.01584264       4.05429981      -0.00285540       0.00113359      -0.00106355
C        1.23591673       2.12358857       3.72233230       0.00866882      -0.00808694      -0.00387409
C       -0.06763539       4.39753566       3.52427332       0.00317146      -0.00273458      -0.00494018
C       -1.26766506       6.49891417       3.86824159       0.00149902       0.00132051      -0.00065815
C       -2.48363091       8.60100755       4.02419311       0.00671988       0.01175964       0.00315213
C        4.92625215       0.04478494       4.10702782      -0.00188705       0.00695954      -0.00840740
C        3.66847499       2.10779397       4.24277101      -0.00522888      -0.00398211       0.00135828
N        1.10448870       6.53894623       3.51190436       0.00439240       0.00556528      -0.00556501
C       -0.02139412       8.61068444       3.87085312       0.00135819      -0.00188247      -0.00168568
C        7.39272810       0.05560498       3.98028064       0.00435877      -0.00606841       0.00310595
C        6.16873314       2.19568932       4.11738397      -0.00601272       0.00109738       0.00196075
C        5.02471311       4.40215540       3.81090530      -0.00088040      -0.00201741       0.00465184
S        3.80083815       6.51113959       2.39141864      -0.00729784      -0.01238660       0.00080405
C        2.44243701       8.60506251       3.59805581       0.00073249       0.00712018       0.00787744
C        9.85314111       0.05273898       3.86163195       0.01116514       0.00146009      -0.00376468
C        8.63549997       2.19229606       3.99520920      -0.00455995       0.00346594      -0.00887197
C        7.42704780       4.33232353       3.96002326       0.00232179      -0.00114480       0.00376423
C        6.22349316       6.47990327       3.60467790      -0.00972534      -0.00232121       0.00195553
C        4.92376204       8.60525836       3.61803334      -0.00583405      -0.00513333       0.00782561
C       -0.01378422       1.46813073       3.80742048       0.00169460       0.00333709      -0.00827381
C       -1.23834115       3.62973659       3.76438962       0.00105759      -0.00071410       0.00193501
C       -2.47449359       5.75900327       3.94708116       0.00088252       0.00163545       0.00218462
C       -3.71465959       7.88932797       3.96627698       0.00833916       0.00238777      -0.00245988
C       -4.95718801      10.00796510       3.95286922      -0.00184460       0.00735064      -0.00306659
C        2.45124712       1.43373689       4.02344092       0.00183535      -0.00798036       0.00286974
P        1.33071790       3.61529314       2.76790616       0.00438925       0.00307406      -0.00799814
C       -0.06116887       5.81978492       3.62444147       0.00435426      -0.00068183       0.00702101
C       -1.25131800       7.90519539       3.94066649       0.00133381       0.00251511       0.00154324
C       -2.47828957      10.01480849       4.08528887      -0.00057934       0.01197724       0.00617786
C        4.92461877       1.47321578       4.17675832      -0.00735351       0.00578800      -0.00135432
P        3.51219259       3.82889333       4.54860175      -0.00025786      -0.00601645       0.01257350
C        1.18548355       7.89446336       3.64164923       0.00202901       0.00628663      -0.01484204
C       -0.00962799      10.02887476       3.99704405      -0.00108029      -0.00297742       0.00074061
C        7.39555219       1.48299945       4.05440839      -0.00585810      -0.00271262      -0.00229877
C        6.19636802       3.62235190       3.99435421       0.00187902       0.00017728      -0.00012656
C        5.07758925       5.71716002       3.32817167      -0.01151723      -0.00386309      -0.00266345
C        3.68188932       7.97053561       3.34105626      -0.00827700       0.00356389      -0.00254315
C        2.44903349      10.02513966       3.83583281       0.01137958       0.00490737      -0.00071093
C        9.86577910       1.48342495       3.90652405      -0.00179322       0.00229587       0.00351147
C        8.64838476       3.61732865       3.98901865       0.00527272       0.00512858       0.00236185
C        7.42610193       5.75528743       3.86813797      -0.00613432      -0.00342632      -0.00870940
C        6.16581690       7.89367519       3.66386062       0.00087507      -0.00045612      -0.00444106
C        4.91634278      10.02283251       3.81422139       0.00506946      -0.00164027      -0.00517838
Ni       2.42722136       5.31980539       3.46992702      -0.01201011      -0.00963088       0.00394719
O        3.71554721       4.07147387       6.13622036       0.00518969      -0.00530811       0.00080052
O        2.45960150       3.53356384       6.87419225      -0.00776873      -0.01491169       0.00827295
H        2.23990876       4.36928181       7.33463832       0.00632049      -0.00790315       0.01624521
