52
Lattice="12.336457 0.0 0.0 -6.168228499999997 10.683685154694365 0.0 0.0 0.0 15.0" Properties=species:S:1:pos:R:3:forces:R:3 energy=-442.1406284602489 free_energy=-442.1406284602489 stress="-0.007353160121996996 -0.0004454084724748898 -1.066200404258461e-05 -0.0004454084724748898 -0.0065644500565681324 -2.917287113712803e-06 -1.066200404258461e-05 -2.917287113712803e-06 1.4567693194171314e-05" pbc="T T T"
C        0.01800766       0.08707451       4.00364079      -0.00056128      -0.00114482      -0.00553270
C       -1.22863590       2.22487638       4.20683170       0.00310690      -0.00222302       0.00170562
C       -2.48306153       4.36989725       4.10136005       0.00180641      -0.00121439      -0.00048378
C       -3.68656328       6.51146938       3.91455608       0.00280397      -0.00182910      -0.00146554
C       -4.90738449       8.64697781       3.87645027       0.00056434       0.00043971      -0.00326918
C        2.49426922       0.06778607       3.87512057      -0.00004825       0.00096858      -0.00263012
C        1.28843146       2.13994909       4.23543773       0.00146407       0.00201909      -0.00099968
C       -0.09239403       4.43924836       4.36460236      -0.00503846      -0.00347645      -0.00068342
C       -1.25780218       6.51751078       3.88346019       0.00333872       0.00283452      -0.00362988
C       -2.44308432       8.63657098       3.81081362      -0.00143770       0.00332740       0.00656339
C        4.96024642       0.08631997       3.73703306      -0.00068939      -0.00088327       0.00392401
C        3.70596797       2.16454633       3.52316714      -0.00005186       0.00284441      -0.00214226
P        1.18885532       6.33898452       2.78921155      -0.00059617       0.00015013      -0.00763327
C        0.02233838       8.63879098       3.64720971       0.00203352      -0.00208385      -0.00437583
C        7.42606756       0.09346969       3.76556385      -0.00270575       0.00000276       0.00173004
C        6.18473696       2.23702155       3.65000359      -0.00196183       0.00111905       0.00317027
C        5.03895918       4.43445604       3.35330064      -0.00571514      -0.00169494      -0.00218969
N        3.83711080       6.55462715       3.49323369      -0.00118076      -0.00244173       0.00330424
C        2.50101142       8.63535359       3.60034238       0.00141893       0.00146567      -0.00028760
C        9.88632711       0.09299484       3.91117120       0.00147846      -0.00142657       0.00010619
C        8.64515635       2.23052883       3.95136826       0.00486270      -0.00132524      -0.00656350
C        7.41912236       4.37470265       3.82401900      -0.00123492       0.00046858       0.00026378
C        6.22632672       6.53951303       3.70862536      -0.00274755       0.00152036       0.00082004
C        4.96888057       8.64900719       3.75876468      -0.00213637      -0.00193923      -0.00635211
C        0.02369156       1.50844477       4.17234289       0.00225704      -0.00069234       0.00223675
C       -1.25881345       3.65690305       4.27336294      -0.00179362      -0.00416921       0.00041493
C       -2.47564825       5.79413607       3.99544288       0.00484128       0.00053121       0.00591343
C       -3.67806034       7.93260769       3.87186783       0.00056010      -0.00086390       0.00171345
C       -4.91463398      10.06149154       3.93252767       0.00019378       0.00036962      -0.00281658
C        2.49047560       1.48933430       3.87973043       0.00148153       0.00119071      -0.00035590
P        1.46330405       3.76725870       4.87362531      -0.00549718       0.00340259       0.00383659
C       -0.06014871       5.76869268       3.91360829       0.00293012      -0.00002417       0.00469454
C       -1.21933518       7.92908737       3.74112102      -0.00026952       0.00488374       0.00550432
C       -2.44089172      10.05583793       3.79486892      -0.00069152       0.00161912       0.00345243
C        4.95585938       1.51646877       3.63046319      -0.00117435      -0.00002472      -0.00038441
S        3.65415705       3.65648255       2.62450231      -0.00563484       0.00546036      -0.00593390
C        1.26217099       7.96965661       3.46741214       0.00473256      -0.00378707       0.00206878
C        0.02620560      10.06520308       3.72322884      -0.00153732      -0.00309081      -0.00101656
C        7.41241802       1.52535071       3.79745228       0.00023241       0.00082108       0.00056850
C        6.19332985       3.66597390       3.61693588      -0.00354134       0.00056206      -0.00038826
C        5.02196819       5.85083582       3.48896976      -0.00163337      -0.00179347      -0.00008430
C        3.75707944       7.92037800       3.60337942      -0.00166572      -0.00289732       0.00484483
C        2.49568591      10.06235320       3.77021011      -0.00083392       0.00162026       0.00747122
C        9.88365535       1.51758778       4.03967584       0.00435282      -0.00289159       0.00792024
C        8.63663222       3.65461899       3.97986569       0.00200562      -0.00029639      -0.00428791
C        7.42899320       5.79835920       3.83198663      -0.00155029       0.00140754       0.00820261
C        6.19982292       7.95004259       3.79321886      -0.00117977       0.00202357      -0.00312460
C        4.95455184      10.06705894       3.89953197      -0.00059026      -0.00382651       0.00436735
Ni       2.66651427       5.20280725       3.82359919       0.00246661       0.00016399      -0.00543824
O        1.42971372       3.75773067       6.49104956       0.00443551      -0.00019419      -0.00021825
O        2.66715037       2.96413332       7.00415416       0.00101061       0.01108221      -0.00175423
H        2.98362584       3.65827148       7.61733250      -0.00067957      -0.00606400      -0.01075584
