51
Lattice="12.336457 0.0 0.0 -6.168228499999997 10.683685154694365 0.0 0.0 0.0 15.0" Properties=species:S:1:pos:R:3:initial_magmoms:R:1:forces:R:3 energy=-447.4626177298888 free_energy=-447.4626177298888 stress="-0.0033842185005554205 0.0016219973123569877 4.8765971222845445e-05 0.0016219973123569877 0.008082255698696604 1.945409938642194e-05 4.8765971222845445e-05 1.945409938642194e-05 -2.090032221083399e-05" pbc="T T T"
C        0.13537649       0.02458902       3.72829040       0.00000000       0.01911895       0.00486831      -0.02385402
C       -1.10657585       2.13217155       3.67691333       0.00000000      -0.01996093      -0.01857544       0.01397078
C       -2.34713600       4.27728257       3.68652201       0.00000000      -0.00767517      -0.04847373      -0.00646025
C       -3.57704289       6.42274111       3.71183572       0.00000000       0.00206094      -0.00251106      -0.00237892
C       -4.80505577       8.57183098       3.74213015       0.00000000      -0.00393992       0.01117791      -0.01485368
C        2.59977602       0.07100817       3.72552639       0.00000000       0.00187917      -0.00468382      -0.03928034
C        1.35679453       2.23898388       3.64772280       0.00000000      -0.00716588       0.02741169       0.04184780
C        0.09131646       4.26918627       3.59312093       0.00000000       0.01913629       0.01755151       0.05340276
C       -1.13673468       6.42528087       3.65768035       0.00000000      -0.02776891      -0.00560193      -0.03729653
C       -2.34862817       8.57166098       3.70641314       0.00000000       0.00107220      -0.01618534       0.02734915
C        5.06656107      -0.00199164       3.71551366       0.00000000      -0.00855114      -0.00457298      -0.01621387
C        3.87694402       2.13171462       3.71775977       0.00000000      -0.01881283       0.02432478      -0.00615922
N        1.25765735       6.39155669       3.61829992       0.00000000       0.02950463       0.03053615      -0.02450491
C        0.12457281       8.52047300       3.67241108       0.00000000       0.00325123      -0.00401188       0.01825646
C        7.54293555      -0.04233290       3.71010353       0.00000000       0.00119997      -0.00698496      -0.00786200
C        6.31694032       2.11825969       3.72217110       0.00000000       0.05233104       0.00803159       0.02282321
C        5.14068736       4.26394375       3.72613173       0.00000000      -0.01615126       0.03205459      -0.00513894
N        3.89137531       6.36441258       3.69250897       0.00000000       0.03005654       0.03147217      -0.03086011
C        2.59403229       8.45767077       3.69726749       0.00000000       0.00673912       0.00292402      -0.01603244
C        9.99764241      -0.04002187       3.72078191       0.00000000      -0.00529218       0.03743408       0.03933458
C        8.77189806       2.11762447       3.72418761       0.00000000       0.00659434      -0.01410471      -0.02170701
C        7.54522783       4.27539269       3.71667414       0.00000000      -0.01042029      -0.04015824       0.02737052
C        6.30927919       6.41028913       3.72282507       0.00000000       0.03598632      -0.02858611       0.03982900
C        5.06182517       8.51717004       3.74243657       0.00000000       0.01064413       0.01400700      -0.02819771
C        0.14590624       1.46406353       3.68078844       0.00000000      -0.01011559      -0.01743635       0.01752405
C       -1.12417110       3.55487350       3.65050957       0.00000000       0.00241069      -0.02448941      -0.01096300
C       -2.35690566       5.70289778       3.68364885       0.00000000      -0.00980669      -0.01978429       0.01060580
C       -3.57775764       7.85510983       3.72786419       0.00000000      -0.01320991       0.00233061      -0.03920559
C       -4.79780794      10.01178480       3.73666009       0.00000000       0.02006483      -0.00489169      -0.00545474
C        2.61677570       1.51961182       3.69607818       0.00000000      -0.00587161       0.03307448       0.01076581
N        1.29446688       3.62451349       3.59323553       0.00000000      -0.03834777      -0.06419838       0.02843803
C        0.07375676       5.71484453       3.61069476       0.00000000      -0.00886963       0.02506368      -0.02235865
C       -1.12126681       7.84677071       3.67383896       0.00000000       0.01201534      -0.01367337       0.00464943
C       -2.34690116      10.00800867       3.72070101       0.00000000      -0.00739811      -0.01680000      -0.00690593
C        5.07407289       1.42749307       3.72455180       0.00000000       0.02150104       0.03524587      -0.01329300
O        3.95477390       3.53620330       3.74924798       0.00000000       0.02672056      -0.02861032      -0.03475507
C        1.33958677       7.76185038       3.65953053       0.00000000       0.01552978       0.03785829       0.00434979
C        0.13574093       9.94667182       3.69678504       0.00000000      -0.01026971       0.00363904       0.03042063
C        7.53655101       1.39855980       3.72385532       0.00000000       0.04911277      -0.02337952      -0.00766416
C        6.32279347       3.54623326       3.72084239       0.00000000      -0.01930870       0.00576097       0.01884706
C        5.09407427       5.67876547       3.71677942       0.00000000      -0.03056723       0.06398325       0.00554379
C        3.84272273       7.74195704       3.71575352       0.00000000      -0.01507309      -0.01645417      -0.02697450
C        2.60036691       9.89761451       3.70843149       0.00000000       0.01504856       0.01780945       0.02158207
C       10.00143343       1.39737139       3.71562798       0.00000000      -0.01576823       0.01472647      -0.04216368
C        8.76808405       3.55350143       3.71320993       0.00000000      -0.00353986      -0.05099468      -0.02806791
C        7.53328713       5.69904685       3.71944110       0.00000000       0.00488132      -0.04360850       0.00134222
C        6.30201247       7.83729010       3.73501976       0.00000000      -0.00669901      -0.00848734       0.03208281
C        5.06627918       9.95263365       3.74180711       0.00000000       0.00913528       0.04123358      -0.06010828
Ni       2.51979682       5.10153706       3.57827489       0.00000000      -0.03740196       0.01830039       0.08499435
O       -1.18155098       5.51796563       6.50239480       1.00000000      -0.06263458       0.09359452      -0.01747464
O       -0.50140199       4.49482313       6.50060163       1.00000000       0.02462518      -0.10715620       0.04085902
