51
Lattice="12.336457 0.0 0.0 -6.168228499999997 10.683685154694365 0.0 0.0 0.0 15.0" Properties=species:S:1:pos:R:3:initial_magmoms:R:1:forces:R:3 energy=-437.00581143807176 free_energy=-437.00581143807176 stress="-0.006770934012651923 -0.0005311713746693837 5.841925484047018e-06 -0.0005311713746693837 -0.006054753225397124 5.386926586191917e-06 5.841925484047018e-06 5.386926586191917e-06 4.004837109751228e-07" pbc="T T T"
C       -0.00740385      -0.04694737       3.84217247       0.00000000       0.00670917       0.00363820      -0.00426087
C       -1.25304391       2.08793257       3.97869810       0.00000000       0.00209934      -0.00668210       0.00430347
C       -2.49826172       4.23124343       3.85298223       0.00000000      -0.00256891      -0.00473621      -0.00105694
C       -3.70657337       6.37291466       3.74430275       0.00000000      -0.00640493       0.00531214      -0.00343038
C       -4.93246710       8.50952027       3.74432674       0.00000000       0.00365763       0.00506615      -0.00512401
C        2.46812995      -0.06276697       3.72094679       0.00000000      -0.00463054      -0.00122299       0.00712423
C        1.24963601       2.04335987       3.99648646       0.00000000       0.00525316      -0.00402426      -0.00139945
C       -0.07680200       4.26801238       3.94557662       0.00000000      -0.01129889      -0.00257601       0.00968134
C       -1.27374555       6.37515320       3.59756903       0.00000000      -0.00744698       0.00306201       0.00466158
C       -2.46719869       8.49932117       3.62909221       0.00000000       0.00691858       0.00855254       0.01173553
C        4.93340893      -0.05040703       3.57649238       0.00000000      -0.00325500       0.00010017      -0.00181373
C        3.67926241       2.02669565       3.36524210       0.00000000       0.00756306      -0.00470978       0.01231792
P        1.17256963       6.24958103       2.46280301       0.00000000       0.00022208       0.00271061      -0.00856627
C       -0.00258093       8.50474970       3.42858001       0.00000000       0.00250010       0.00599300       0.00958495
C        7.39858049      -0.04382393       3.60367746       0.00000000       0.00416845      -0.00002956       0.00236613
C        6.15682129       2.10073221       3.51100752       0.00000000       0.00305544       0.00576070       0.00425798
C        5.00787130       4.29823906       3.24179347       0.00000000       0.00197348       0.00072957      -0.00007276
N        3.79922347       6.41203116       3.35586238       0.00000000      -0.00323730      -0.00747770       0.00414642
C        2.47561723       8.50014254       3.42571056       0.00000000      -0.00708056      -0.00777930      -0.00587114
C        9.85852231      -0.04654656       3.75305174       0.00000000       0.00483114       0.00000213       0.00095540
C        8.61971873       2.09273019       3.77753218       0.00000000      -0.00421401       0.00413366      -0.00198096
C        7.39345708       4.23812241       3.68837623       0.00000000      -0.00017022      -0.00024715      -0.00755158
C        6.19381725       6.39896974       3.61510639       0.00000000       0.00332157      -0.00207835      -0.00764971
C        4.93985832       8.50819555       3.63504584       0.00000000      -0.00194924      -0.00275657      -0.00830599
C       -0.00505224       1.37861332       3.96471868       0.00000000       0.00561286      -0.00026467       0.00134025
C       -1.27369761       3.51286315       3.96399732       0.00000000      -0.00357758      -0.00938457       0.00525353
C       -2.49166339       5.65543219       3.75348684       0.00000000      -0.00972960       0.00059879       0.01175443
C       -3.70161865       7.79461147       3.71372450       0.00000000       0.00457873       0.00870241      -0.00241539
C       -4.93931706       9.92627466       3.78451264       0.00000000      -0.00154383       0.00333238      -0.00876292
C        2.46324412       1.35970800       3.70806370       0.00000000       0.00352979      -0.00651410      -0.00094974
P        1.39840694       3.66545321       4.68968163       0.00000000      -0.00186522      -0.00208938      -0.00478244
C       -0.07622396       5.62995001       3.55065532       0.00000000      -0.00992269       0.00027297       0.00372303
C       -1.24388367       7.79296409       3.51246636       0.00000000       0.00402253       0.00690102      -0.00115351
C       -2.46790401       9.92080707       3.63431544       0.00000000      -0.00529243       0.00479754       0.00036102
C        4.92894124       1.37989928       3.48367998       0.00000000       0.00677063      -0.00165226      -0.00409656
S        3.63384319       3.52683124       2.48440756       0.00000000       0.00803290       0.00374329       0.00300274
C        1.23971997       7.84343787       3.23411892       0.00000000      -0.00804599      -0.01048936       0.01390713
C       -0.00052853       9.92804085       3.54687324       0.00000000       0.00091717       0.00660142      -0.00451338
C        7.38439946       1.38800091       3.64484725       0.00000000      -0.00054936       0.00342257      -0.00538575
C        6.16347675       3.53053765       3.49705529       0.00000000       0.00289083       0.00291396      -0.00578191
C        4.98783618       5.71171414       3.39053181       0.00000000       0.00210504      -0.00145675      -0.00181754
C        3.72893474       7.78116947       3.46291758       0.00000000      -0.00878376      -0.00710206      -0.00293911
C        2.46777345       9.92421399       3.61087503       0.00000000       0.00388425      -0.00527550      -0.00254387
C        9.85546079       1.37801438       3.85630561       0.00000000      -0.00234944       0.00095826       0.00196531
C        8.61548872       3.51778936       3.79633795       0.00000000      -0.00280495       0.00134461      -0.00266617
C        7.40339267       5.66146823       3.70867178       0.00000000       0.00031318      -0.00220756      -0.01182779
C        6.17259381       7.81070399       3.68269565       0.00000000       0.00250539       0.00012420       0.00373619
C        4.92822894       9.92865616       3.75377999       0.00000000       0.00793854       0.00086376       0.00115448
Ni       2.56297231       5.08380239       3.58087053       0.00000000       0.00154125       0.00157833      -0.00112584
O        2.28488037       5.35425564       9.32182784       1.00000000      -0.00043804      -0.00094668      -0.00015189
O        2.77567621       6.48767534       9.38147766       1.00000000       0.00024316       0.00048651       0.00066457
