52
Lattice="12.336457 0.0 0.0 -6.168228499999997 10.683685154694365 0.0 0.0 0.0 15.0" Properties=species:S:1:pos:R:3:forces:R:3 energy=-440.6819690603691 free_energy=-440.6819690603691 stress="-0.0064248325864851505 -0.0005813259559060729 6.268329118036331e-07 -0.0005813259559060729 -0.005112230814082662 -9.174524898566277e-06 6.268329118036331e-07 -9.174524898566277e-06 -1.4842348407056125e-05" pbc="T T T"
C       -0.01220901      -0.06296620       3.85031452       0.00397022       0.00512131      -0.00153171
C       -1.25233921       2.07148101       4.06689368      -0.01591133      -0.00016937       0.00925255
C       -2.50936224       4.21483430       3.95488708      -0.00015744       0.00153579      -0.00176974
C       -3.71450369       6.35748516       3.76179273       0.00361766       0.00360475       0.00886706
C       -4.93694380       8.49470009       3.72221940       0.01085857      -0.00583173      -0.00506924
C        2.46051660      -0.07665289       3.72313534      -0.00211775      -0.00860186       0.01182950
C        1.24681104       2.00842191       4.08332467       0.00005379      -0.00060873      -0.00664426
C       -0.10905963       4.26615400       4.23580583       0.00204180      -0.00532293      -0.01448692
C       -1.27929488       6.36130838       3.75980940      -0.00689070      -0.00402375       0.00464105
C       -2.47090836       8.48527443       3.66253359       0.00159517       0.00955344       0.00775054
C        4.92940623      -0.06327674       3.58798060       0.00460234      -0.00693264       0.00058063
C        3.67178685       2.03274220       3.42740912       0.00539228      -0.00823854       0.00161759
P        1.16039464       6.16674849       2.68316090       0.01276054       0.01242014      -0.00770052
C       -0.00574726       8.48587808       3.50582153      -0.00918612      -0.00662591       0.01623831
C        7.39827439      -0.06083984       3.62522691       0.00134009       0.00481020      -0.00230500
C        6.16083033       2.08281823       3.50488931      -0.00266579       0.00048764       0.00241398
C        4.99287495       4.27523622       3.23477346      -0.01061333      -0.00252693       0.00600415
N        3.79830872       6.38595712       3.39142924      -0.00233891      -0.00224649       0.00040231
C        2.47117648       8.47769889       3.47671774      -0.00382792       0.00719053       0.01102592
C        9.85802345      -0.06324442       3.77192537       0.00294370      -0.00296354       0.00726018
C        8.61796190       2.07605350       3.80428553       0.00170765      -0.00349876      -0.00769139
C        7.39190346       4.22122313       3.66417245      -0.00135364      -0.00297717       0.00380046
C        6.19547529       6.38504044       3.55497691      -0.00062169       0.00377867       0.01107788
C        4.93713165       8.48956105       3.61998326      -0.00203481       0.00669969       0.01176652
C       -0.00993938       1.36136884       4.02229883      -0.00635199       0.00935913      -0.01083365
C       -1.28244192       3.49541249       4.13154624      -0.00461861      -0.00086829      -0.01337994
C       -2.50134719       5.63967143       3.85521339      -0.00283355      -0.00066874      -0.00782576
C       -3.70725857       7.77986618       3.71940341       0.01251695       0.00089811       0.00433322
C       -4.94410311       9.91271828       3.77715515      -0.00006923      -0.00806058      -0.00847106
C        2.45817148       1.34414438       3.72650945       0.00502298      -0.00901800       0.01003383
S        1.37544071       3.57602926       4.81539327       0.00577312       0.00690953       0.00496593
C       -0.07823964       5.61545989       3.82192565      -0.00052354      -0.00305138      -0.00758396
C       -1.24551878       7.77607064       3.60398291      -0.01195935      -0.00362715      -0.00448331
C       -2.47083655       9.90612892       3.64427041      -0.00067506       0.00453517       0.00260773
C        4.92330743       1.36663832       3.49100774       0.00510556      -0.00933174      -0.00257035
P        3.57098327       3.52786162       2.48077701       0.00781478      -0.00136866      -0.01084898
C        1.23245517       7.81238178       3.33995352      -0.00517448       0.00654929       0.00180436
C       -0.00467568       9.91433623       3.57780910       0.00288617      -0.00364394      -0.01209209
C        7.38849047       1.36912150       3.65066761      -0.00032743       0.00447776      -0.00306473
C        6.16742428       3.51413560       3.46248219      -0.00965103      -0.00180373       0.00931561
C        4.99003481       5.70057517       3.35805949      -0.00019597      -0.00195238       0.00917623
C        3.72593109       7.75693920       3.48718700      -0.00310546       0.00339526      -0.00566351
C        2.46568171       9.90512644       3.63663190       0.00210632       0.00599258      -0.00032903
C        9.85800933       1.36390788       3.89896441      -0.00577642      -0.00862389      -0.00538054
C        8.60637189       3.50134769       3.82583496       0.00473383      -0.00278813      -0.00949803
C        7.40136652       5.64538583       3.67637640       0.00484409       0.00290918      -0.01496901
C        6.17190330       7.79368509       3.64353766       0.00163215       0.00706103      -0.00347005
C        4.92425305       9.90973613       3.75497104       0.00492623       0.00726930       0.00411750
Ni       2.61360963       5.02059205       3.73710945      -0.00159586      -0.00238643       0.00186757
O        2.47296758       6.86853056       9.42203735      -0.00180991       0.00487123       0.00131961
O        3.07849104       5.70170633       9.75312252       0.00072814       0.00391508       0.01313536
H        3.26725790       5.24343061       8.90407227       0.00341321      -0.00558343      -0.00954282
