53
Lattice="12.336457 0.0 0.0 -6.168228499999997 10.683685154694365 0.0 0.0 0.0 15.0" Properties=species:S:1:pos:R:3:forces:R:3 energy=-454.3946190699434 free_energy=-454.3946190699434 stress="-1.9115837262932046e-05 0.0010201117028702624 -0.0002231595188022751 0.0010201117028702624 -0.003906327580297231 -5.086815641242845e-06 -0.0002231595188022751 -5.086815641242845e-06 -0.0002102377409036849" pbc="T T T"
C       -0.00936139       0.15874014       3.93841980       0.00701353       0.03085053       0.00812304
C       -1.23200614       2.30758432       3.99471814       0.00479168       0.01601397       0.02276554
C       -2.45977864       4.44458293       3.98776514      -0.02821747      -0.02477930       0.03029320
C       -3.70545658       6.57493000       3.95139187      -0.01157814      -0.01961710      -0.02150882
C       -4.95456606       8.69857456       3.90777931      -0.00402744       0.02525896      -0.01457823
C        2.45817570       0.15557573       3.97080217       0.02055512      -0.04014930       0.01613088
C        1.23797929       2.29397579       3.93938356       0.02835107       0.01223490       0.01883222
C        0.01386489       4.43444062       3.80485339       0.02757621       0.00670543      -0.01730586
C       -1.24048110       6.57635224       3.71540908      -0.01287596      -0.00744358       0.03251442
C       -2.46590559       8.70715627       3.86137217      -0.03335855      -0.01646941       0.00869971
C        4.93136677       0.15973539       3.90500160      -0.00279889       0.03358596      -0.01133059
C        3.68723327       2.28324512       3.95676202      -0.03466704       0.02293253      -0.06184205
N        2.47330525       4.34782384       3.85652783       0.02924943       0.06821428      -0.02171160
P        1.12065524       6.53155716       2.39355040      -0.00062174      -0.02172744       0.00253929
C       -0.01003876       8.74056504       3.55077107      -0.00533127      -0.02180252      -0.02081629
C        7.39544443       0.18969454       3.77846599      -0.02590275      -0.02941962       0.00667984
C        6.15829801       2.30199585       3.95345750       0.03998626      -0.00378537       0.02863774
C        4.92807558       4.41896440       3.71912893       0.00234917      -0.02004538       0.01121201
S        4.09295024       6.72168028       2.04446092       0.02061920       0.03205360      -0.02526094
C        2.46455331       8.80654856       3.23783981       0.00484419       0.02221201       0.06774135
C        9.86308884       0.18880326       3.80829350       0.02280042      -0.02265922      -0.00137885
C        8.63225014       2.31246264       3.98434494       0.02728701      -0.01714934      -0.00099874
C        7.40118107       4.43640474       3.96640063      -0.04489984       0.03951117       0.02058226
C        6.15517722       6.56758274       3.76800216      -0.00979335       0.03406782       0.00614798
C        4.92693559       8.72608483       3.62524161      -0.01560474      -0.03616320       0.00383705
C       -0.00054154       1.58673045       3.97036990       0.00256618       0.02600568      -0.02284481
C       -1.22100253       3.73065479       3.97631792      -0.00705064       0.00401298      -0.03670046
C       -2.46776287       5.86701668       3.91918280      -0.01102998      -0.02348391       0.01119409
C       -3.70735293       7.99603073       3.91970871      -0.03471201      -0.01876914       0.00671977
C       -4.94859261      10.12536545       3.94420412       0.00326268       0.01954226       0.03776770
C        2.45732653       1.57948000       3.97657064       0.00196707      -0.02395758      -0.05507268
C        1.25859373       3.70800497       3.85113742       0.03686601       0.02567858       0.00798612
C       -0.04220189       5.82813275       3.53301066       0.01655440      -0.00582001       0.01450381
C       -1.23511473       8.00595957       3.68652817      -0.03209454      -0.00148780       0.01746271
C       -2.47165434      10.12968839       3.92637575       0.01986054      -0.00610779      -0.02933412
C        4.92763528       1.58266729       3.95118585       0.00060688       0.04484087       0.01911108
C        3.68027743       3.68655513       3.83868826      -0.00779235       0.02990783      -0.02250086
C        1.21429603       8.11230023       3.19473512       0.02548924       0.01524958      -0.02398840
C       -0.00386750      10.15499126       3.75625726      -0.02530810      -0.02805694       0.01525484
C        7.39474015       1.60107565       3.93474710       0.03298372      -0.02667813      -0.02408794
C        6.16309386       3.72367479       3.91250264       0.00349771      -0.01581278      -0.00939352
C        4.97044937       5.82713522       3.44300671       0.04158339      -0.04934471       0.02746206
C        3.72280439       8.09431849       3.16803139      -0.04659334      -0.03159077      -0.00208129
C        2.46541045      10.18345473       3.61689833      -0.00595699       0.02021104       0.01760918
C        9.86683393       1.60290363       3.95797885       0.03198823      -0.02011733      -0.00724884
C        8.63986908       3.73256358       4.01349100      -0.04369903      -0.00437033      -0.00954303
C        7.39216526       5.85892249       3.93935610      -0.02988718       0.03730179      -0.01470751
C        6.14662619       7.99368437       3.76499862      -0.00660479       0.02618116      -0.03254486
C        4.92273777      10.14423597       3.81645825       0.02534221      -0.02808421      -0.01375019
Ni       2.83610053       6.08887406       3.60111093      -0.04473353      -0.02281961       0.02212410
O        2.27817247       2.95710799       6.48962118      -0.36696819       0.10089988      -0.25248156
O        3.33564100       2.68137303       7.25287612       0.38283368      -0.21000216       0.05220251
H        3.20898121       3.20990252       8.06728414       0.03128261       0.10424117       0.21887752
