51
Lattice="12.336457 0.0 0.0 -6.168228499999997 10.683685154694365 0.0 0.0 0.0 15.0" Properties=species:S:1:pos:R:3:initial_magmoms:R:1:forces:R:3 energy=-437.03925261812833 free_energy=-437.03925261812833 stress="-0.0075512147229234465 0.0007803399051185474 1.2803384526368767e-05 0.0007803399051185474 -0.0064297592954684546 1.1022592680394541e-05 1.2803384526368767e-05 1.1022592680394541e-05 -2.2949321298617944e-06" pbc="T T T"
C       -0.02239331      -0.05487074       3.64998057       0.00000000      -0.00505807      -0.00840342      -0.00087566
C       -1.24968505       2.09425380       3.59705459       0.00000000       0.00569385       0.00756971       0.00361049
C       -2.47647990       4.23478335       3.74672952       0.00000000       0.00364552      -0.00059244      -0.01794869
C       -3.71252299       6.37045249       3.75974555       0.00000000       0.01056145       0.00813194       0.00362018
C       -4.96371021       8.49333497       3.65406406       0.00000000       0.00928788       0.00426286       0.00176941
C        2.44396997      -0.06830027       3.79190919       0.00000000       0.00163103      -0.00270990       0.01280991
C        1.22802486       2.03126899       3.47032876       0.00000000      -0.00383207      -0.00303302       0.00588026
C       -0.07518254       4.29337836       3.34905395       0.00000000       0.00048392       0.00272093      -0.00378625
C       -1.27712302       6.39583753       3.71040616       0.00000000       0.00802005       0.01078249      -0.00611208
C       -2.49277636       8.50534315       3.81300542       0.00000000       0.00041676       0.00582946       0.00692139
C        4.91997769      -0.04910776       3.88668353       0.00000000      -0.01063230      -0.01146131      -0.00094202
C        3.67116760       2.04057419       3.98188644       0.00000000      -0.00119456      -0.00420766       0.00153157
N        1.10341007       6.42399126       3.38949014       0.00000000       0.01516778      -0.01026480       0.00211018
C       -0.02618988       8.50559271       3.70749503       0.00000000      -0.00494427       0.00209111      -0.01246517
C        7.38928652      -0.04923441       3.79913130       0.00000000      -0.00406997      -0.00396729       0.00865256
C        6.16439475       2.08981908       3.91928041       0.00000000      -0.00315475      -0.00987570       0.00611311
C        4.99418713       4.26080238       3.60250394       0.00000000      -0.00971101       0.00728730       0.00484843
S        3.74860131       6.36416508       2.29683912       0.00000000       0.01234974      -0.00214136      -0.00488362
C        2.43637221       8.49639410       3.45119459       0.00000000      -0.00810085       0.00160759       0.00344444
C        9.84898560      -0.05059021       3.66738049       0.00000000      -0.00103308       0.00806529      -0.00636870
C        8.62934693       2.08878912       3.80353367       0.00000000       0.00856771      -0.00779518       0.00839685
C        7.41498065       4.22698026       3.76636248       0.00000000       0.00509334      -0.00078016       0.00510177
C        6.20293851       6.37107985       3.42990070       0.00000000      -0.01076739       0.00394836      -0.00124193
C        4.91547108       8.50216031       3.42257381       0.00000000      -0.00653639      -0.00281728       0.01092388
C       -0.02021724       1.37185759       3.57297241       0.00000000      -0.00524040      -0.00566375      -0.00743166
C       -1.24864810       3.52823431       3.58288943       0.00000000       0.00253232       0.00453938      -0.00452574
C       -2.48766345       5.65809399       3.77258740       0.00000000       0.01020608       0.00357784      -0.01072493
C       -3.72391153       7.79048535       3.75013949       0.00000000       0.00903356       0.00924349       0.00661714
C       -4.95987605       9.91513268       3.70120088       0.00000000       0.00331366       0.00087779      -0.00475815
C        2.44762341       1.34919125       3.76049369       0.00000000      -0.00147074      -0.00304066       0.00883177
P        1.27730351       3.52048208       2.50679598       0.00000000       0.01343947       0.00686201       0.00851016
C       -0.07146574       5.71584712       3.47890833       0.00000000       0.00601756       0.00119282       0.00164420
C       -1.26064386       7.80445110       3.76883356       0.00000000      -0.00375848       0.01043918      -0.01601528
C       -2.48583228       9.92260115       3.84861542       0.00000000      -0.00543897      -0.00480458      -0.00499761
C        4.92193502       1.37819777       3.95291829       0.00000000      -0.00662057      -0.01406259      -0.01121808
P        3.55377708       3.73469357       4.47719256       0.00000000      -0.00611506      -0.00285627      -0.01166866
C        1.18172890       7.78463858       3.50201227       0.00000000      -0.00493761      -0.00799569       0.00022309
C       -0.01557028       9.92728144       3.80963035       0.00000000      -0.00767722      -0.00122884      -0.00039895
C        7.39318403       1.37691065       3.86532487       0.00000000       0.00220944      -0.00542122      -0.00930446
C        6.18949390       3.50870380       3.78864600       0.00000000      -0.00673747       0.00164677       0.01670923
C        5.05476825       5.60902072       3.18167358       0.00000000      -0.01728242       0.00633878      -0.00731079
C        3.67077994       7.86131254       3.18596745       0.00000000      -0.00764791       0.00332533      -0.00296585
C        2.44592343       9.91894881       3.66514946       0.00000000      -0.00322450       0.00662177      -0.00752612
C        9.85988889       1.38065460       3.71017546       0.00000000       0.01063002       0.00503577      -0.00414582
C        8.63850936       3.51487677       3.80103532       0.00000000       0.00693596      -0.00899508      -0.00201365
C        7.41315734       5.65064335       3.67559539       0.00000000       0.00228090       0.00806935       0.00322091
C        6.15537717       7.79010795       3.46186455       0.00000000       0.00131046       0.00225789       0.01115292
C        4.91239985       9.92302919       3.59899865       0.00000000      -0.00659072      -0.00449556       0.00979054
Ni       2.38778897       5.14638003       3.38900483       0.00000000       0.00261846      -0.00570444       0.00337031
O        2.54068828       5.40297619       9.05617764       1.00000000       0.00478964       0.00757123       0.00526163
O        3.10611512       6.45861624       9.36493301       1.00000000      -0.00445978      -0.00757822      -0.00143646
