52
Lattice="12.336457 0.0 0.0 -6.168228499999997 10.683685154694365 0.0 0.0 0.0 15.0" Properties=species:S:1:pos:R:3:forces:R:3 energy=-438.84722500999754 free_energy=-438.84722500999754 stress="-0.0025034637093495826 -0.001075185018463121 -3.392097204413405e-05 -0.001075185018463121 -0.002263923636011692 1.307775068813897e-05 -3.392097204413405e-05 1.307775068813897e-05 1.4442144035000437e-05" pbc="T T T"
C        0.10330174       0.10865271       3.93949597       0.00174641      -0.00900195      -0.00348291
C       -1.15093387       2.22744409       4.11563187      -0.00160009       0.00790770       0.00827676
C       -2.40183282       4.36797709       4.05530029      -0.00306691       0.00120013      -0.00844384
C       -3.60876448       6.51040363       3.91399083       0.00400219      -0.00184487      -0.00469509
C       -4.83032970       8.64739947       3.88009175       0.00384628       0.00460464      -0.01381711
C        2.57869690       0.07842645       3.89104353       0.00265957       0.00111764       0.00332602
C        1.36624896       2.22735285       4.19360899      -0.00246433      -0.00366267      -0.01254853
C        0.03037698       4.39183253       4.40961628       0.00808650       0.00180718      -0.00548227
C       -1.16670353       6.51808357       3.93882078       0.00253454      -0.00135527      -0.00779912
C       -2.35422151       8.63830457       3.82360862      -0.00356427      -0.00080340      -0.00018656
C        5.04514543       0.08639549       3.69559224      -0.00350273      -0.00228600      -0.00214644
C        3.77490740       2.16520595       3.50567014       0.00219471       0.00398695      -0.00256664
P        1.25866965       6.26553701       2.86317791       0.01003107       0.00046703       0.00407119
C        0.11788407       8.62283786       3.61892899      -0.00012059      -0.00365752       0.01090073
C        7.50820103       0.09232258       3.66438675       0.00066593       0.00666438      -0.00447316
C        6.25325367       2.25126122       3.57432545      -0.00759279       0.00707275      -0.00017855
C        5.07973683       4.46878156       3.35615041      -0.01177512      -0.01108720      -0.00182848
O        3.90027046       6.57419515       3.45340301       0.00043541       0.00141599       0.00031348
C        2.60136211       8.62206400       3.54520920       0.00061666      -0.00420709       0.00616031
C        9.96691873       0.09607794       3.80733904       0.00751314       0.00031973      -0.00341247
C        8.72098373       2.23444577       3.83890015       0.00305589      -0.00584273       0.00214518
C        7.48360553       4.37960819       3.77341740       0.00182933      -0.00242616       0.00200829
C        6.28347169       6.53378381       3.73942170      -0.00952722       0.00552583       0.00017577
C        5.04727311       8.65542617       3.73329370      -0.00175879       0.00642689      -0.00415043
C        0.10288259       1.53220129       4.08963168      -0.00505392      -0.00656355       0.00466728
C       -1.18825524       3.64203400       4.24085177      -0.00557897       0.01013201       0.00711643
C       -2.39336242       5.79511464       3.99601664       0.00410572      -0.00004504       0.01023770
C       -3.59372945       7.93400814       3.88385804       0.00042997      -0.00105828       0.00144437
C       -4.83043729      10.07022863       3.91809284       0.00490087       0.00113695      -0.00300844
C        2.57698354       1.50448869       3.88634470       0.00091292       0.00204151      -0.00554767
P        1.30410896       3.62330490       5.56363687       0.01410644      -0.00470440      -0.00549702
C        0.04299716       5.78044161       4.01073938      -0.00020867      -0.00370856      -0.00840977
C       -1.12590304       7.92606704       3.76199513      -0.00208400      -0.00123257       0.00022361
C       -2.35521950      10.06031807       3.79612647      -0.00395558      -0.00137551      -0.00089264
C        5.03417019       1.51805210       3.58224272      -0.00279408      -0.00000281      -0.00709176
S        3.66703900       3.69161054       2.68486888      -0.00518035      -0.00447667      -0.00416409
C        1.35195474       7.93629293       3.44409808      -0.00054568      -0.00339396      -0.00480292
C        0.11209133      10.05887853       3.65656076       0.00034431      -0.00012920       0.00906399
C        7.48711096       1.53005069       3.68948221      -0.00569913       0.00864083       0.00577841
C        6.24867045       3.68762637       3.56857616      -0.00399205       0.00207547      -0.00220165
C        5.09235746       5.86331033       3.51564721      -0.00754842      -0.00886768       0.00887672
C        3.85525193       7.95380070       3.56884262       0.00051540       0.00004173       0.00366970
C        2.58173140      10.05449950       3.67400207       0.00393041      -0.00021418       0.01212261
C        9.95724955       1.52105614       3.92419669       0.00768192      -0.00054212       0.00012664
C        8.71213623       3.65717955       3.89923100       0.00111361      -0.00829568      -0.00044186
C        7.49786354       5.79745695       3.82503484      -0.00232306       0.00262609       0.00594117
C        6.28226935       7.95137645       3.80135377      -0.00301072       0.01195799       0.00462294
C        5.03569854      10.08263799       3.83063653       0.00379663      -0.00134193       0.00216907
Ni       1.71958575       4.17143366       3.44365185      -0.00480986       0.00837859       0.00051139
O        0.27820484       3.12511503       6.74438664       0.00025645       0.00446379       0.01271581
O        1.03533577       2.44882564       7.89762323       0.00222985       0.00117986       0.00150737
H        0.61656897       2.95628063       8.62093630       0.00421520      -0.00906465      -0.01090354
