52
Lattice="12.336457 0.0 0.0 -6.168228499999997 10.683685154694365 0.0 0.0 0.0 15.0" Properties=species:S:1:pos:R:3:initial_magmoms:R:1:forces:R:3 energy=-450.53691291254114 free_energy=-450.53691291254114 stress="0.0005428376199892302 -3.544333526541714e-07 5.7873121139694636e-05 -3.544333526541714e-07 0.00025904516615195256 9.17706024759302e-05 5.7873121139694636e-05 9.17706024759302e-05 0.0003278904512990294" pbc="T T T"
C       -0.02147399      -0.05737942       3.66359235       0.00000000      -0.00324408       0.00577238      -0.00036647
C       -1.24793496       2.08745580       3.69211226       0.00000000       0.00883010       0.00775127      -0.00214659
C       -2.47600175       4.21338215       3.69597077       0.00000000       0.01331404       0.00441340      -0.00898875
C       -3.71881049       6.34766914       3.66807702       0.00000000       0.00362819      -0.00329821       0.00110637
C       -4.95965747       8.48383587       3.65327027       0.00000000      -0.00120261      -0.00629747       0.00364584
C        2.44891153      -0.05283216       3.64085960       0.00000000      -0.00230091      -0.00146084       0.00111350
C        1.21763871       2.08175760       3.68678427       0.00000000      -0.00229011       0.00201718      -0.00093137
C        0.02690582       4.24110076       3.75556230       0.00000000       0.03281897       0.02236832      -0.00682449
C       -1.24405015       6.35126288       3.70899521       0.00000000      -0.00101425       0.00360068      -0.01123590
C       -2.47882222       8.48383138       3.64788526       0.00000000       0.00589225      -0.00318192       0.00176807
C        4.91944885      -0.05768144       3.64061867       0.00000000       0.00610503       0.01261689       0.00815933
C        3.68097085       2.08151400       3.67452520       0.00000000      -0.01247350       0.01179675       0.00244060
O        2.44963266       4.11072777       3.78185456       0.00000000       0.00062811       0.03191968       0.03913968
O        1.12472663       6.41199086       3.86547141       0.00000000       0.03887558      -0.02252049       0.01893919
C       -0.01408053       8.48484111       3.67721615       0.00000000       0.00285206      -0.00859502      -0.00940553
C        7.38972455      -0.06516654       3.67125270       0.00000000       0.00550664      -0.00722080       0.00078953
C        6.14598971       2.08757265       3.66748585       0.00000000       0.00317989      -0.00705341       0.00676395
C        4.87185678       4.24032858       3.74729698       0.00000000      -0.03630090       0.01784092      -0.01148868
O        3.77519588       6.41114797       3.85900344       0.00000000      -0.03321965      -0.01589653       0.02721547
C        2.44844539       8.43788122       3.73461341       0.00000000       0.00214468      -0.03308672      -0.00890144
C        9.84508976      -0.06520240       3.68573190       0.00000000      -0.00504232      -0.00554284      -0.00212373
C        8.61750287       2.07824554       3.68086543       0.00000000      -0.00531697       0.00441903      -0.00396540
C        7.37411645       4.21334820       3.68316265       0.00000000      -0.00775978       0.00727426       0.00483882
C        6.14380026       6.35088213       3.70489049       0.00000000      -0.00782493       0.01194939      -0.00071870
C        4.91316467       8.48505717       3.68873859       0.00000000       0.00131108       0.00996345      -0.00020783
C       -0.02315383       1.36785109       3.67848373       0.00000000       0.01538844       0.01607638      -0.00293352
C       -1.23005545       3.51557812       3.70977856       0.00000000       0.01040513      -0.00502151      -0.00526729
C       -2.48440799       5.63395265       3.68767527       0.00000000       0.01218953       0.01585873      -0.00092548
C       -3.71905820       7.77266005       3.65193451       0.00000000      -0.00473975       0.00166524       0.01199914
C       -4.95567943       9.91278672       3.64826475       0.00000000       0.00338620       0.00393767       0.00127494
C        2.44912898       1.36162891       3.65984776       0.00000000       0.00135348       0.00626184      -0.00205818
C        1.20966734       3.46280985       3.75621480       0.00000000      -0.00586625       0.03103341       0.00762546
C       -0.04972879       5.65675420       3.78742270       0.00000000       0.03076122      -0.01395645      -0.00374622
C       -1.25261498       7.77675289       3.67572276       0.00000000      -0.00561154      -0.00754992      -0.00550721
C       -2.48305224       9.91293617       3.63658930       0.00000000       0.00040042      -0.00273437       0.00683748
C        4.92116656       1.36757998       3.65360442       0.00000000      -0.00373108       0.02269729       0.00983841
C        3.68891113       3.46260375       3.75176468       0.00000000       0.01115959       0.02379587       0.00032827
C        1.18622450       7.80316742       3.73998707       0.00000000       0.03391630      -0.01648028      -0.00036481
C       -0.01342883       9.91590677       3.65588712       0.00000000       0.00717911      -0.01184503       0.00756263
C        7.38524875       1.36735236       3.66935371       0.00000000      -0.00581470       0.00800083       0.00008631
C        6.12822984       3.51518302       3.69097584       0.00000000      -0.00740116      -0.00104686       0.00648136
C        4.94968137       5.65560267       3.78393298       0.00000000      -0.03124771      -0.01568545      -0.00051741
C        3.71225996       7.80316474       3.74931559       0.00000000      -0.03860860      -0.01759309       0.00378586
C        2.44890069       9.88950119       3.69263413       0.00000000       0.00015352      -0.02205123      -0.00533847
C        9.84977589       1.36719447       3.68546652       0.00000000      -0.00568419       0.00268939      -0.00636545
C        8.61706648       3.50119575       3.68376065       0.00000000       0.00631184      -0.00464356      -0.00218033
C        7.38330056       5.63432862       3.68014453       0.00000000      -0.00534132      -0.00240717       0.01054929
C        6.15114997       7.77651090       3.68014631       0.00000000       0.01287944      -0.00394680       0.00696873
C        4.91190737       9.91593557       3.67628269       0.00000000      -0.00079400      -0.00597099       0.00481078
Ni       2.45681754       5.61904115       5.08850706       0.00000000      -0.00261859       0.01415139       0.08180237
O        3.30490596       7.11997535       7.41184970       1.00000000      -0.01449789      -0.04683515      -0.30846065
O        2.42184927       6.99884659       6.48597997       1.00000000      -0.02062403      -0.00794955       0.13509854
