51
Lattice="12.336457 0.0 0.0 -6.168228499999997 10.683685154694365 0.0 0.0 0.0 15.0" Properties=species:S:1:pos:R:3:initial_magmoms:R:1:forces:R:3 energy=-434.1531132385026 free_energy=-434.1531132385026 stress="-0.003262840606648109 -0.001282790327081122 -5.0614420641474986e-06 -0.001282790327081122 -0.002272194756306747 1.4507858464104184e-06 -5.0614420641474986e-06 1.4507858464104184e-06 -1.3691808242131104e-06" pbc="T T T"
C       -0.19522299      -0.15765414       3.77081708       0.00000000      -0.00573117      -0.00453382      -0.00453480
C       -1.44817814       1.95832697       3.98597425       0.00000000      -0.00099754      -0.00920337      -0.00250845
C       -2.70935174       4.09886106       3.93214425       0.00000000       0.00477466       0.00266024      -0.00642935
C       -3.90992963       6.24231814       3.76443012       0.00000000       0.00258632      -0.00186101      -0.00336333
C       -5.12743740       8.38050126       3.70673464       0.00000000       0.00525288       0.00531204       0.00502728
C        2.27956390      -0.18707175       3.69654919       0.00000000      -0.00413117       0.00067773       0.00706356
C        1.06103330       1.94167535       4.00224719       0.00000000       0.00248542      -0.01196168      -0.00913798
C       -0.31006136       4.12597600       4.32470096       0.00000000      -0.00725228       0.00195096      -0.00581444
C       -1.46656916       6.24495751       3.80767274       0.00000000      -0.00384442       0.00145676      -0.00239566
C       -2.65130549       8.36925928       3.65696469       0.00000000       0.00674124      -0.00274691      -0.00112469
C        4.74833126      -0.18394518       3.51337964       0.00000000      -0.00724428       0.00303702       0.00578663
C        3.48314369       1.91322037       3.31750337       0.00000000       0.00353121       0.00080293       0.00643922
P        0.95777008       5.98629871       2.74925241       0.00000000       0.00756328       0.00208214       0.00223068
C       -0.17931330       8.35054326       3.47330560       0.00000000      -0.00401180      -0.00246550      -0.00318011
C        7.21152819      -0.17832351       3.52206206       0.00000000       0.00223560       0.00399610      -0.00489927
C        5.96173822       1.98050342       3.40960408       0.00000000      -0.00252449       0.00286459      -0.00034608
C        4.77218206       4.19970088       3.18480171       0.00000000      -0.00018490      -0.00806188      -0.00945203
O        3.60362001       6.30923983       3.32432204       0.00000000       0.00115845       0.00068074       0.00189852
C        2.30498205       8.35063859       3.41046288       0.00000000      -0.00095359       0.01086665      -0.00488735
C        9.66943671      -0.17444126       3.66706895       0.00000000       0.00910612       0.00320457       0.00247782
C        8.42191451       1.96359472       3.70326959       0.00000000      -0.00126947       0.00682797       0.00459939
C        7.18313317       4.11039201       3.62416653       0.00000000      -0.00362409      -0.00145565      -0.00902371
C        5.98397722       6.26789147       3.57537428       0.00000000      -0.00416370      -0.00455304      -0.00385652
C        4.75141319       8.38867856       3.57830138       0.00000000      -0.00332804      -0.00389606       0.00098327
C       -0.20608440       1.26043573       3.92120560       0.00000000      -0.00157590      -0.00968467       0.00186962
C       -1.49463172       3.37264017       4.12556974       0.00000000       0.00236096      -0.00488356      -0.00085438
C       -2.69511598       5.52566165       3.86539235       0.00000000       0.00208735      -0.00004940       0.00666588
C       -3.89232592       7.66590266       3.71961011       0.00000000       0.00777000      -0.00007450      -0.00174100
C       -5.12695846       9.80436030       3.73829239       0.00000000      -0.00550618       0.00540136      -0.00710714
C        2.28243777       1.23235670       3.67308263       0.00000000       0.00319972      -0.00241102      -0.00023008
S        1.07978541       3.34363130       5.14522921       0.00000000       0.01277398       0.00019147       0.00264006
C       -0.25830440       5.50616215       3.91039836       0.00000000      -0.00119665       0.01382800       0.01242400
C       -1.42285104       7.65335890       3.61315784       0.00000000       0.00049727      -0.00411325       0.00045972
C       -2.65122708       9.78986731       3.61020263       0.00000000      -0.00526401      -0.00134081       0.00778878
C        4.74071946       1.24566902       3.39182855       0.00000000      -0.00223445       0.00453205       0.00756117
P        3.38310341       3.41720225       2.39211533       0.00000000       0.01507869      -0.01102356      -0.00116303
C        1.05676638       7.66272323       3.30092551       0.00000000      -0.00061836       0.00185413       0.01013460
C       -0.18627024       9.78815964       3.50179094       0.00000000      -0.00392344       0.00150762      -0.01155856
C        7.19405391       1.25707691       3.54339364       0.00000000       0.00058441       0.00584374      -0.00511905
C        5.95227049       3.42036816       3.40371500       0.00000000      -0.00295557      -0.00352926      -0.00779867
C        4.79067313       5.59502410       3.34759491       0.00000000      -0.00529395      -0.00825985      -0.00061736
C        3.56010680       7.68629182       3.43035403       0.00000000      -0.00609487      -0.00077518       0.00628520
C        2.28339278       9.78266540       3.54031497       0.00000000       0.01052162       0.01034064      -0.01129719
C        9.66092520       1.25279248       3.79073437       0.00000000      -0.00319127      -0.00079659       0.01503018
C        8.40683521       3.38709407       3.76288545       0.00000000      -0.00067433       0.00748601       0.00628015
C        7.19840642       5.53036970       3.67082897       0.00000000      -0.00164489      -0.00305087       0.00322654
C        5.98558030       7.68240883       3.63557146       0.00000000       0.00243816       0.00029213       0.00219104
C        4.73699900       9.81343187       3.67530270       0.00000000       0.00089428      -0.00629788       0.00516369
Ni       1.48749260       3.91464095       3.14389630       0.00000000      -0.01419975       0.00934960      -0.00697727
O        6.64238342       8.92151026      10.26245218       1.00000000       0.00813704      -0.00535280      -0.01082467
O        7.33432836       8.46646210       9.34373728       1.00000000      -0.00814408       0.00533490       0.01201517
