52
Lattice="12.336457 0.0 0.0 -6.168228499999997 10.683685154694365 0.0 0.0 0.0 15.0" Properties=species:S:1:pos:R:3:forces:R:3 energy=-437.9132639747028 free_energy=-437.9132639747028 stress="-0.002582730758083576 -0.001202378728289595 3.934665527123765e-05 -0.001202378728289595 -0.0013826054119254626 4.917013255171387e-05 3.934665527123765e-05 4.917013255171387e-05 2.700793752503095e-05" pbc="T T T"
C        0.06649811      -0.03727045       3.97433749       0.00187799       0.00120226       0.00127886
C       -1.18217909       2.07995379       4.16170734       0.00674033       0.00729427       0.00538179
C       -2.43835895       4.21950353       4.10355324      -0.00052943       0.00007412       0.00006219
C       -3.64370902       6.36226963       3.96564112      -0.00450393      -0.00750959       0.00168179
C       -4.86429220       8.50047469       3.92804289       0.00005001      -0.00338241       0.00141029
C        2.54194554      -0.06204663       3.89336432       0.00117451       0.00685710       0.00008758
C        1.31900486       2.08938998       4.11525401      -0.01143120      -0.00413000       0.00302635
C       -0.01819322       4.25984812       4.39681330       0.00186926      -0.00690570       0.00023033
C       -1.19638484       6.36100183       3.94193494       0.00301230       0.00130264      -0.00014734
C       -2.38689585       8.48945283       3.85328971      -0.00508366       0.00370657       0.00009811
C        5.01213587      -0.06452242       3.72564882       0.00343570      -0.00143227      -0.00250292
C        3.75086118       2.03040804       3.50850208      -0.00559759      -0.00110421      -0.00049598
P        1.23081353       6.13934980       2.80694018       0.00224675      -0.00263973      -0.00180384
C        0.08510434       8.47155530       3.65207022       0.00626668       0.00020254      -0.00240489
C        7.47525512      -0.05904879       3.74500808      -0.00942761      -0.00266717      -0.00658254
C        6.22623707       2.10009415       3.63136927       0.00308730       0.00124506       0.00975810
C        5.03109743       4.31814217       3.42293440       0.00240275       0.00093729       0.00826972
O        3.85257644       6.41822150       3.64825353       0.00103855      -0.00247853      -0.00757331
C        2.56431663       8.46737827       3.63639821       0.00176807       0.00538195       0.00318069
C        9.93126928      -0.05695831       3.90011937      -0.00817774      -0.00289199      -0.00024876
C        8.68515091       2.08337133       3.92427354       0.00508365       0.00053196       0.00325326
C        7.44794109       4.22955195       3.84484014      -0.00214922       0.00714946       0.00359346
C        6.24322907       6.38475363       3.81876054      -0.00045990       0.00176482       0.00457971
C        5.01012889       8.50313704       3.82877072      -0.00259444      -0.00285532       0.00135412
C        0.05469068       1.38241818       4.08535721      -0.00048913       0.00526031       0.00033612
C       -1.22078379       3.49522813       4.25994019       0.00566750       0.00447035      -0.00150677
C       -2.42674806       5.64542100       4.03368525      -0.00155213      -0.00313689       0.00131512
C       -3.62748943       7.78612051       3.92516442      -0.00372603      -0.00594620       0.00915247
C       -4.86426288       9.92556727       3.94513469       0.00253591       0.00224671       0.00251530
C        2.54789459       1.35576189       3.84108679      -0.00689155       0.00666421       0.00787638
S        1.35859736       3.47853483       5.24017294      -0.00224288      -0.00155971      -0.00963392
C        0.01456013       5.62204731       3.95903684       0.00744401       0.00083520       0.01236364
C       -1.15903897       7.77406391       3.78191796      -0.00090701       0.00487201      -0.01039222
C       -2.38831925       9.91057409       3.81720461       0.00068437       0.00564943      -0.00185636
C        5.00676755       1.36479947       3.60606490       0.00177456      -0.00111757      -0.00342861
P        3.66276942       3.54016720       2.59478849       0.00064410      -0.00137844       0.00504860
C        1.31969850       7.78593650       3.46831965       0.00986132       0.00426819      -0.00320162
C        0.07764257       9.90792368       3.70928389      -0.00047888      -0.00465420       0.00124245
C        7.45746622       1.37641180       3.76918473       0.00243790      -0.00178433      -0.00216179
C        6.21536895       3.53951055       3.63155248       0.00400833       0.00531639      -0.00425652
C        5.04389223       5.71152387       3.61045414       0.00147641       0.00059402       0.01013701
C        3.81719775       7.79831337       3.69192661      -0.00107837      -0.00113719      -0.00171978
C        2.54544889       9.89994301       3.77154658      -0.01303238       0.00306723      -0.00217663
C        9.92147118       1.37078242       4.00894719       0.01001459       0.00050980      -0.01319410
C        8.67234559       3.50700998       3.97089871      -0.00222891       0.00356874      -0.00070288
C        7.46222306       5.64972670       3.89348145      -0.00365226       0.00343936      -0.00281682
C        6.24661063       7.79944410       3.87746258      -0.00072913      -0.00127026       0.00214972
C        4.99826037       9.92975233       3.90703295      -0.00225815      -0.00060096      -0.00078564
Ni       1.69801784       4.02049453       3.14538736       0.01478207      -0.00230139      -0.00900143
O        1.39555671       5.32667872       6.34334398       0.00486944      -0.00379276       0.00111620
O        0.72689793       5.06569866       7.54960394      -0.00380617      -0.00962056      -0.00890438
H        1.44471218       5.18996824       8.20398796      -0.01322667      -0.01211462      -0.00300031
