52
Lattice="12.336457 0.0 0.0 -6.168228499999997 10.683685154694365 0.0 0.0 0.0 15.0" Properties=species:S:1:pos:R:3:forces:R:3 energy=-439.80314102152755 free_energy=-439.80314102152755 stress="-0.0029479840397097757 0.0012250176308090579 4.4232188151872994e-05 0.0012250176308090579 -0.002102386376031865 4.9136659296775355e-05 4.4232188151872994e-05 4.9136659296775355e-05 -5.4482514826271525e-06" pbc="T T T"
C       -0.10094850       0.05569353       3.67209540       0.00314869      -0.00192078      -0.01320173
C       -1.31125598       2.22078288       3.55796307       0.00359072       0.00563877       0.00626400
C       -2.53481943       4.34965159       3.76032622       0.01071277       0.00138690       0.00028631
C       -3.77835426       6.48159397       3.89782312       0.00609100      -0.00154542      -0.00245867
C       -5.03520223       8.60992153       3.79839036      -0.00916562      -0.00012317      -0.00146383
C        2.36877097       0.05188644       3.86738196       0.00895026       0.00074410       0.00336772
C        1.16760548       2.14764864       3.51386852      -0.00675408       0.00274266       0.01133026
C       -0.11356914       4.43851985       3.36145594      -0.00741155       0.00126878      -0.00152607
C       -1.33237906       6.50687980       3.73471639       0.00039714       0.00513048      -0.00858396
C       -2.56001339       8.62083305       3.85365694       0.00742507      -0.00015238       0.00344969
C        4.84349805       0.08356713       3.92803870      -0.00759133       0.00340303       0.00063963
C        3.58143512       2.19581226       4.19820890      -0.00137856       0.00648709      -0.00088588
O        1.05231548       6.54806249       3.52157598      -0.01349519      -0.00176168      -0.00982218
C       -0.10256814       8.63104424       3.73348802       0.00323399      -0.00161491      -0.00211969
C        7.31572684       0.06856120       3.80579273      -0.00555978      -0.00993191       0.00912958
C        6.09977019       2.19778266       4.13218804      -0.00376099       0.00932429      -0.00211269
C        4.94854862       4.37257089       4.49227588      -0.00241003       0.00647863       0.00444206
P        3.67645013       6.21565993       2.90703970       0.01130143       0.00509786       0.00002027
C        2.34447238       8.59278891       3.55853809       0.00572704      -0.01651768       0.00306957
C        9.77343100       0.06328638       3.65840666       0.00260930       0.00192153      -0.00414214
C        8.56264385       2.20386679       3.83736018       0.00516237       0.00299654      -0.01002890
C        7.35450177       4.33873898       4.06029339       0.00513631      -0.00089247       0.00337362
C        6.11497851       6.48765875       3.94009804      -0.00864997      -0.00654210      -0.00501922
C        4.82687408       8.58963127       3.61252394      -0.00689906       0.00119962       0.00021338
C       -0.09228745       1.48479477       3.56047243      -0.00435345       0.00045482       0.00824094
C       -1.30001663       3.66000162       3.55251521       0.00337607       0.00189172       0.00712038
C       -2.54907050       5.76946302       3.81424267       0.00878798      -0.00011327      -0.01604705
C       -3.79527691       7.90567377       3.85849048       0.00030603       0.00434399       0.00357041
C       -5.03559368      10.03022485       3.76990809       0.00552263       0.00259003      -0.00428946
C        2.37009979       1.47075393       3.87131091      -0.00014952       0.00171780       0.00724068
P        1.30900723       3.66500770       2.62807890      -0.00631823       0.00392196      -0.00188591
C       -0.13579318       5.83367419       3.52791374      -0.00836970       0.00142423      -0.00568575
C       -1.33597229       7.92267626       3.78961252       0.00716298       0.00091666       0.00175547
C       -2.56020480      10.04401542       3.89262840       0.00423735      -0.00235208       0.00265020
C        4.84960841       1.50186356       4.09528308      -0.00104510       0.00486084      -0.00444492
P        3.61540481       3.59631958       5.57557606      -0.00189638       0.00036366       0.00117196
C        1.09044031       7.92933666       3.59334411       0.00150961      -0.00615524       0.00661338
C       -0.08989979      10.05666389       3.82524530      -0.01330582      -0.00230544      -0.00200910
C        7.32624454       1.49295838       3.92673129       0.00049831      -0.00062835       0.01327241
C        6.14362915       3.61348081       4.27053607      -0.00496292       0.01220039       0.00467501
C        4.90885154       5.75043359       4.05010611      -0.00641703      -0.00184829       0.00119557
C        3.59054321       7.89983163       3.45222196       0.00500736      -0.00602922      -0.00124585
C        2.36434956      10.02600817       3.67616582       0.00173076      -0.01233966       0.00396403
C        9.79077283       1.49838402       3.68007194       0.00778219       0.00538127      -0.00354308
C        8.57564372       3.62834092       3.89410799       0.01004012       0.00225165      -0.00492166
C        7.34307291       5.76599988       3.99243761       0.00210076      -0.00381889      -0.00244605
C        6.07258396       7.89464952       3.74815535      -0.01496767      -0.00443467       0.00125702
C        4.83446069      10.02786820       3.64387896       0.00087917       0.00012694      -0.00651214
Ni       3.23783508       4.09128314       3.37103239       0.01864758       0.00596857       0.00403410
O        4.59935995       2.97451060       6.74055838      -0.00029880       0.00629544       0.00257027
O        4.12507027       3.30560768       8.15882236      -0.00453514      -0.01398740       0.00087299
H        4.99852715       3.54612219       8.52646528      -0.01137908      -0.01351526      -0.00139502
