52
Lattice="12.336457 0.0 0.0 -6.168228499999997 10.683685154694365 0.0 0.0 0.0 15.0" Properties=species:S:1:pos:R:3:forces:R:3 energy=-454.17814780355945 free_energy=-454.17814780355945 stress="-0.0034781390545485127 0.00028384393072395856 -4.902934113807408e-06 0.00028384393072395856 0.0003923907590577313 2.5195314253201947e-06 -4.902934113807408e-06 2.5195314253201947e-06 -1.817466454517333e-06" pbc="T T T"
C        0.08711636      -0.03990880       3.74480919       0.00214009       0.00301461      -0.00435713
C       -1.14727637       2.09760365       3.77945607      -0.00136081      -0.00005797      -0.01375014
C       -2.38325978       4.23566966       3.61636759       0.00341383      -0.00045401      -0.00563260
C       -3.61372314       6.37538397       3.50893806      -0.00475873       0.00147423      -0.00556891
C       -4.84929330       8.51434314       3.57917338       0.00396449      -0.00265295       0.00566217
C        2.55697648      -0.04832256       3.75516387       0.00314277       0.00480742      -0.00432951
C        1.33111664       2.07485335       3.96861370      -0.00330574      -0.00098080       0.00573895
C        0.04135658       4.29180078       3.88625817       0.00313612      -0.00552548      -0.00094952
C       -1.17604720       6.39936032       3.62274530      -0.00343881       0.00099622      -0.00838249
C       -2.38355554       8.51583715       3.60378200       0.00072679       0.00333953       0.00708310
C        5.02859110      -0.04580451       3.73367943       0.00335883      -0.00687491      -0.00008663
C        3.79038651       2.07136362       3.93030060       0.00135302       0.00148732      -0.00438360
N        1.19759652       6.38718069       4.01949218       0.00028878       0.00136377      -0.00265280
C        0.08781194       8.49005187       3.71739318      -0.00011493       0.00236151       0.00513370
C        7.50092721      -0.06370086       3.72793230       0.00059349      -0.00049787       0.00221875
C        6.26687078       2.09557464       3.72781112      -0.00337811       0.00039685       0.00059816
C        5.06682943       4.29523231       3.73981884      -0.00409647       0.00225192      -0.00020174
O        3.86418440       6.36193870       3.73855822       0.00323563      -0.00035589       0.00058889
C        2.57041477       8.43990990       3.79365905       0.00318623      -0.00399189      -0.00252956
C        9.95522548      -0.06156452       3.72920033      -0.00472786       0.00000113       0.01006992
C        8.72813534       2.08894468       3.66536311       0.00147618       0.00091515       0.00432623
C        7.49737993       4.23493689       3.55790446      -0.00017554       0.00059554       0.00733250
C        6.27648452       6.39483203       3.49829854      -0.00740262      -0.00366973      -0.00213985
C        5.02318304       8.49467399       3.65861991      -0.00025111       0.00007488      -0.00719819
C        0.09203009       1.38914226       3.83992703      -0.00262253       0.00268195      -0.00135866
C       -1.15400992       3.52908129       3.75113680       0.00208092      -0.00269282       0.00243094
C       -2.38627278       5.66197722       3.56444638      -0.00475312       0.00084482      -0.00909995
C       -3.61344766       7.80165912       3.54471825       0.00286831       0.00108860       0.00022826
C       -4.84608635       9.93668356       3.69313410       0.00389494       0.00162812      -0.00446011
C        2.55909723       1.36974488       3.89901882      -0.00112902       0.00552840       0.00515717
B        1.34873817       3.58484173       4.16753143       0.00152265      -0.00287459      -0.00547352
C        0.03840398       5.70950160       3.80417567      -0.00178286      -0.00199645       0.00224548
C       -1.15613916       7.80694152       3.63564032      -0.00191507       0.00229303      -0.00062188
C       -2.37707342       9.93460781       3.69378473       0.00196485       0.00149810      -0.00138580
C        5.02812754       1.38155797       3.80141914      -0.00118737      -0.00651693      -0.00596176
B        3.77203617       3.57769138       4.09375538       0.01021970       0.00133851      -0.00286081
C        1.29559134       7.74146577       3.83349461       0.00055472       0.00371286       0.00292602
C        0.09407047       9.91746233       3.71835763       0.00335142      -0.00099920      -0.00016155
C        7.49624547       1.37172045       3.69675485      -0.00030001       0.00159669       0.00313256
C        6.27350828       3.52488648       3.66315755      -0.00461693       0.00287755       0.00000486
C        5.09411092       5.68229715       3.60587594      -0.00975943      -0.00018200      -0.00786656
C        3.81734956       7.79651530       3.73934597       0.00413616      -0.00574554       0.00646774
C        2.56184986       9.88774795       3.74487142      -0.00232849      -0.00315705       0.00763997
C        9.96076973       1.37660863       3.71780019      -0.00086392      -0.00112489       0.00280536
C        8.72859882       3.51703219       3.59766272       0.00342958       0.00105066       0.00541610
C        7.49994990       5.65727831       3.49832830      -0.00469726       0.00080941       0.00558688
C        6.26660729       7.80963069       3.55712332       0.00143505      -0.00300618       0.00406353
C        5.02141616       9.92680088       3.70968900      -0.00102583       0.00326829       0.00307468
Os       2.59636064       5.08094291       4.81335380       0.00803492       0.00292786       0.00472966
O        1.91341396       4.79454084       6.49120816       0.00053876      -0.00456576      -0.00516326
O        1.33386874       6.12440523       6.92023887      -0.00838058       0.00173965      -0.00869668
H        1.36908277       5.97934816       7.88945480       0.00432492      -0.00004167       0.01061165
