52
Lattice="12.336457 0.0 0.0 -6.168228499999997 10.683685154694365 0.0 0.0 0.0 15.0" Properties=species:S:1:pos:R:3:forces:R:3 energy=-453.4014197430276 free_energy=-453.4014197430276 stress="-0.004216501026319898 -0.006468303272736376 -1.8779800126317413e-05 -0.006468303272736376 -0.004606792305725719 1.4969101543820092e-05 -1.8779800126317413e-05 1.4969101543820092e-05 5.2036537051438295e-06" pbc="T T T"
C        0.05497374       0.04948071       3.74377953      -0.00289209      -0.00308139      -0.01037550
C       -1.21165257       2.17234753       3.76066823      -0.00472422      -0.00167144      -0.00030485
C       -2.45089210       4.31732248       3.81156227      -0.00493950       0.00276907      -0.00066877
C       -3.61686458       6.47013920       3.84910554       0.00191348       0.00318631       0.00583760
C       -4.83959292       8.62011332       3.80001661       0.00280283      -0.00652844       0.00421492
C        2.54014483       0.02115340       3.63932092      -0.00791360       0.00125937      -0.00345404
C        1.28570773       2.13067588       3.66594573       0.00536396       0.00391905      -0.00852871
C       -0.02020486       4.31123969       3.77021409      -0.00142994      -0.00233935      -0.00112436
C       -1.17074445       6.45548530       3.77334391      -0.00493267      -0.00157658       0.00782818
C       -2.37580941       8.59069322       3.71769445      -0.00201243       0.00482223      -0.00950378
C        5.00204706       0.05436957       3.63876428      -0.00417777       0.00262958      -0.00210185
C        3.71026472       2.13496363       3.32736025       0.00379848       0.00452505       0.00668887
B        1.40630762       6.32910246       3.89195006       0.01072393      -0.00133166       0.00218552
C        0.09574264       8.56990350       3.76573692      -0.00410888       0.00323770       0.00135602
C        7.44794079       0.05646553       3.78910970       0.00229523       0.00537318      -0.00359761
C        6.16854578       2.22058611       3.82086164       0.00139471      -0.00008683      -0.00790722
C        5.00742255       4.48420834       4.23622010      -0.00502496      -0.00525395      -0.00520316
N        3.93615482       6.53705475       4.04368804       0.00433414      -0.00359679       0.00593506
C        2.55052322       8.58686944       3.86922861       0.00155323       0.00429645      -0.00138633
C        9.91297708       0.05218829       3.81595952      -0.00474218       0.00672973       0.00012905
C        8.65176644       2.19381319       3.84292718      -0.00278148       0.00167405       0.00227419
C        7.42047817       4.34331087       3.97219176       0.00266086      -0.00756719      -0.00316121
C        6.31431768       6.54578361       4.02705827       0.00721896      -0.00834938      -0.00709309
C        5.02531811       8.62321734       3.88532551       0.00293651       0.00110076       0.00126269
C        0.03482372       1.46566957       3.71659825       0.00192030       0.00024991      -0.00457748
C       -1.23015353       3.58752118       3.76174823      -0.00674080      -0.00044138      -0.00111982
C       -2.41163612       5.74315690       3.80410228      -0.00478856       0.00181078      -0.00095515
C       -3.60925535       7.89235912       3.78428529       0.00394105       0.00155605       0.01657621
C       -4.86747723      10.02650809       3.72403004      -0.00426419      -0.00672148       0.00341838
C        2.51119952       1.42254190       3.56615876       0.00343604       0.00248897      -0.00137507
B        1.31356206       3.61183771       3.79411972       0.01092890       0.00548286      -0.00541417
C        0.01821898       5.70610961       3.79844719      -0.00063429      -0.00156293      -0.00119553
C       -1.14362783       7.87445797       3.74793842      -0.00531722       0.00082507       0.00384900
C       -2.38635694      10.01073651       3.64406606      -0.00715294       0.00520298       0.00665832
C        4.97484545       1.48652566       3.58901422      -0.00113269       0.00237457       0.00485782
O        3.57568478       3.34785337       2.81804157      -0.00187397       0.00129320      -0.00656677
C        1.34396958       7.85794626       3.84181156      -0.00039655       0.00456059       0.00611289
C        0.06825249      10.01271775       3.73026263      -0.00144960       0.00593023       0.01564788
C        7.41024684       1.49520971       3.82358490       0.00134778       0.00214122       0.00849355
C        6.14965550       3.65889044       4.02174288      -0.00205714      -0.00423493      -0.00184765
C        5.10211904       5.87426903       4.13027409       0.00463847      -0.00312921      -0.00074807
C        3.80962638       7.88718471       3.93225628       0.00317976      -0.00198556       0.00446099
C        2.52284979      10.01939040       3.82991126       0.00065880       0.00512734      -0.00148106
C        9.89217497       1.47337059       3.80358153      -0.00722925       0.00376384      -0.00630193
C        8.64693312       3.61817501       3.87326120       0.00008731      -0.00206749      -0.00780850
C        7.48837029       5.76961746       3.96652087       0.00736641      -0.00837452      -0.01333699
C        6.26883259       7.94155469       3.90813208       0.00388666      -0.00554608       0.00048326
C        4.99143261      10.03326071       3.81089191      -0.00576943       0.00368724       0.00503193
Os       2.95886542       4.80957376       4.14308899      -0.00219264      -0.01081302       0.00749628
O        2.53581691       4.75884442       6.01406380       0.00125218      -0.00505296      -0.00179110
O        2.00249383       3.43303188       6.41529379       0.01391201      -0.00502098       0.00124595
H        1.51020215       3.69912437       7.22137784      -0.00287301       0.00431615      -0.00311480
