51
Lattice="12.336457 0.0 0.0 -6.168228499999997 10.683685154694365 0.0 0.0 0.0 15.0" Properties=species:S:1:pos:R:3:initial_magmoms:R:1:forces:R:3 energy=-969326.2125365444 free_energy=-969326.2125365444 stress="836.9500352757874 233.68816107139392 644.5672259500212 233.68816107139392 957.4313557661857 40.70769993295343 644.5672259500212 40.70769993295343 1759.0747886126344" pbc="T T T"
C       -0.33638480       0.35905186       5.44757784       0.00000000    4167.33640443    4132.05351410   -2403.46622486
C       -1.50966980      -0.71732549       8.68185860       0.00000000     -14.16372215      -7.75594764     -15.56360546
C        3.13174947       4.37557725       3.16887574       0.00000000   37518.47880924   31846.25649737   24347.29084102
C       -0.15015610       9.03396582       3.69339101       0.00000000      46.93045852      82.51223928    -556.81546585
C       -6.06583680       8.72708377       5.12897303       0.00000000    -585.53938319    -135.78245866    -728.45852153
C        0.32780066      -0.91646763       4.06858886       0.00000000   -5550.84653068    -243.31110974     438.19121008
C       -0.87003635       3.26524031       3.94860935       0.00000000  179333.15956044   81792.96873635   28296.03571174
C       -0.34347327       4.27164710       2.89645539       0.00000000  180041.45592575  -53277.07053901  146217.09946928
C        3.90362918       5.76676228       3.46739009       0.00000000  -31955.46889365  -76187.09167154   98747.41222971
C       -1.63921746       9.68856022       4.01118601       0.00000000     613.50754258    -636.48323119      81.82784881
C        4.00880768       3.88118843       3.79980947       0.00000000   13540.87032602  144310.16944229   51486.41310998
C       -3.55167520       3.66546191      -2.01715224       0.00000000       3.13274769       1.85117693      15.20651798
B        4.74153242      15.30209521       5.42034213       0.00000000    3657.33927895  -20257.88645237  -14306.35533162
C       -1.78051056       9.14231923       4.36670563       0.00000000    -536.77141515     398.31883784    -506.90272913
C        3.52207174      -0.03854215       3.34004144       0.00000000    -778.82616292    -169.74567457     617.00244723
C       13.89514106      -0.19552375      14.41174547       0.00000000     -22.44914645      17.81030975      23.37242847
C        4.17088226       5.27740564       4.81345083       0.00000000 -256318.89725589  122996.34409308 -1207391.31704215
C        2.37782032       4.97130307       4.80438678       0.00000000 -158704.78117800 -162583.39900190   93742.97072058
C       -2.60635627       6.72279971       1.90309289       0.00000000       9.02424379    -961.58268823     251.76029257
C       10.12386659      -3.56572773       2.50833695       0.00000000    -769.13503902    -777.18371852    -494.21080073
C       14.46991594      -1.65982367       2.42915007       0.00000000      76.80445207       8.87984935      13.82624238
C       -0.16570711      -2.92769108      -1.50038549       0.00000000     -13.99616796     -35.81096307      46.12506913
C       11.43432702      14.99160899       0.95454487       0.00000000     511.50633980    -458.13288282    -910.16695555
C        4.12994771      12.97311936       3.13389460       0.00000000   -7688.52386778   -2083.01617858   -2132.31407089
C       -1.13759762       3.47680595       4.88657433       0.00000000   64725.86738340   13240.28907266  -15404.72176731
C       -0.51279849       3.82769544       3.61411841       0.00000000   57600.02675187  -45605.36710015   27270.50296601
C        0.26876304       3.82374230       2.82260935       0.00000000   15748.09311815  -12186.47081827  132161.61849661
C       -7.35450901       4.87642914      10.25032490       0.00000000      88.42220302      13.53591481     133.01802821
C       -6.10710801       9.30114879       4.01747328       0.00000000    6524.77517613    8172.86498823    1437.59893769
C        5.69193077       3.99063667      -0.29491813       0.00000000     -75.84578109      66.73382513     290.64558095
S        0.45942600      10.31829554       2.23561276       0.00000000     285.35433090    -486.14980298     174.60326232
C        0.58493697       2.98524604       3.01348048       0.00000000   11990.89014130  114065.91155005  156131.19770918
C       -0.03336350       8.94281233       2.48278418       0.00000000     304.31925378    -522.99792087     295.85140682
C       -6.69724250       6.46169551      -0.09155033       0.00000000    -163.58753478      68.96127852     318.35401997
C        1.48089368       1.44751472       4.00868159       0.00000000   -9391.32133874   74047.19843264   14276.51144719
B        4.28874172       5.46757194       4.47215150       0.00000000  -35138.92175923 -471959.06701996 1264524.24845448
C        1.74185470       5.90480859       3.23390962       0.00000000   43252.69343441  -33586.75369961   62062.30722932
C       -2.10840284       8.79708930       3.58774532       0.00000000      63.55987898     530.17702256    -122.95087423
C        5.39909395       2.79684011       3.46932748       0.00000000    6967.91301070   -6427.66373032   -2192.47296586
C        3.74576326       4.51200556       4.91540179       0.00000000   35011.04694081  761518.16558060 -368319.85270748
C        3.69479571       4.78361636       4.59907638       0.00000000  281503.71460000 -412837.94165280  312654.95867321
C        2.79062698       5.97152996       6.79132926       0.00000000 -142935.85670872 -170274.73262657 -134384.72549690
C        1.60463856       6.69248152       4.72613913       0.00000000   64773.58555935 -119312.50679346   24800.96421433
C       18.99643747      -4.44072027       1.62693609       0.00000000   -2063.95320781    -372.26872655    1244.49894133
C       10.17038563       4.61739229       2.90713789       0.00000000  -13422.54076348   10151.29941528  -12620.68315501
C        8.19520733       2.49526079       2.01049375       0.00000000     662.33519065     143.32956963     586.62393384
C        6.18884435       9.04799479       2.26976548       0.00000000    -328.40507158    -128.32806190     709.02075256
C        6.54117040      12.53298987       3.18612612       0.00000000   44679.90884642   71673.58656512   56015.25782790
Os       1.48924383       4.07839951       5.03166144       0.00000000 -4809234.00266665 -2237396.93419177 -4068958.71508427
O        2.86757474       4.69596520       6.68541647       1.00000000 -1032318.30903680 -357583.91483494 -1606827.31183409
O        1.70742206       4.22758628       5.32382128       1.00000000 5454310.09072259 2747216.13158649 4938864.68861204
