52
Lattice="12.336457 0.0 0.0 -6.168228499999997 10.683685154694365 0.0 0.0 0.0 15.0" Properties=species:S:1:pos:R:3:initial_magmoms:R:1:forces:R:3 energy=-462.14030718961936 free_energy=-462.14030718961936 stress="-0.005045929420500919 0.002972661256372782 6.54370598143244e-06 0.002972661256372782 -0.009148229021828859 3.509583384896145e-05 6.54370598143244e-06 3.509583384896145e-05 -6.019160127153316e-06" pbc="T T T"
C       -0.07796747       0.01076730       3.79091939       0.00000000      -0.00309385       0.00476732       0.00237812
C       -1.29336435       2.16633483       3.78829295       0.00000000      -0.00212831      -0.00097387       0.00932182
C       -2.52149101       4.30290218       3.74755119       0.00000000       0.00337255       0.00419557       0.00417577
C       -3.76416085       6.42862033       3.68486437       0.00000000      -0.00573787       0.00094144       0.00820855
C       -5.03021927       8.54763380       3.73078275       0.00000000      -0.00180745      -0.00129058       0.00751212
C        2.38533691       0.00189428       3.69488111       0.00000000      -0.00097964      -0.00257380       0.00092471
C        1.15878345       2.13178265       3.68858878       0.00000000       0.00456421       0.00456882      -0.00729782
C       -0.06659475       4.30581039       3.82746387       0.00000000       0.00092620       0.00343941      -0.00770925
C       -1.29652259       6.43987557       3.87598527       0.00000000      -0.00280198      -0.00421767      -0.00288578
C       -2.55287942       8.56342414       3.78446653       0.00000000      -0.00097033      -0.00502757       0.00438652
C        4.86184149       0.00546696       3.72173651       0.00000000      -0.00015409      -0.00576307      -0.00494358
C        3.64744145       2.10200097       3.51884692       0.00000000       0.00068829       0.00726848      -0.01136455
B        2.43886662       4.23668111       3.64834806       0.00000000       0.00251736      -0.00249935      -0.01137063
C        1.14135377       6.50418822       4.08976914       0.00000000       0.00029981       0.00172003       0.01126736
C       -0.09934471       8.59225641       3.96620684       0.00000000      -0.00594266      -0.01045943       0.01358101
C        7.32413178       0.04005883       3.86936056       0.00000000       0.00369604      -0.00104893       0.01125073
C        6.12444649       2.12257749       3.55533161       0.00000000      -0.00136589      -0.00345345       0.00701515
C        4.94679399       4.20125461       3.26073405       0.00000000      -0.00188452       0.00810454       0.01037506
O        3.91876909       6.15284618       2.39649921       0.00000000       0.00633179       0.00855275       0.00631604
C        2.36677597       8.64579344       4.13796821       0.00000000       0.00271719       0.00046164      -0.00184473
C        9.80287141       0.04771233       3.92052946       0.00000000       0.00433344       0.00299454      -0.00132759
C        8.57950448       2.16551566       3.73611309       0.00000000       0.00381726       0.00198801      -0.00950637
C        7.36873448       4.28535492       3.51685104       0.00000000       0.00008245      -0.00180058      -0.00101751
C        6.11300987       6.42380594       3.46855900       0.00000000      -0.00234196       0.00114604      -0.00438893
C        4.84003966       8.56601177       3.93535290       0.00000000       0.00139921       0.00281710      -0.00709165
C       -0.07308333       1.43374847       3.76026125       0.00000000      -0.00049702       0.00437255      -0.00483293
C       -1.29529332       3.59261039       3.79370611       0.00000000       0.00241943      -0.00059822       0.00035899
C       -2.52471457       5.72522750       3.76620774       0.00000000      -0.00509551       0.00200555      -0.00349030
C       -3.78482875       7.84716073       3.72626686       0.00000000      -0.00115820       0.00015105       0.00280050
C       -5.02027386       9.97386383       3.74648616       0.00000000      -0.00555118      -0.00044358       0.00308711
C        2.39444839       1.42021143       3.63266522       0.00000000       0.00339774       0.00196991      -0.00818340
C        1.12627023       3.55168538       3.71396556       0.00000000       0.00276236       0.00527736       0.00109023
C       -0.04855796       5.73543234       3.93562361       0.00000000      -0.00131520       0.00206738      -0.00149313
C       -1.31932421       7.86227309       3.88169734       0.00000000      -0.00498326      -0.00834766       0.00243765
C       -2.54706971       9.98078599       3.73151324       0.00000000      -0.00075802      -0.00599049      -0.00093939
C        4.88403777       1.40896740       3.57777410       0.00000000      -0.00162166      -0.00302790      -0.00767399
C        3.72647436       3.50588776       3.39045309       0.00000000      -0.00188865       0.00712195      -0.00526022
C        1.13728178       7.91435185       4.10514305       0.00000000      -0.00140072      -0.00320001       0.00547924
C       -0.07819788      10.00226013       3.85984447       0.00000000       0.00061399      -0.00754296      -0.00090325
C        7.34639883       1.44491700       3.71977167       0.00000000       0.00326832      -0.00167315      -0.00375224
C        6.16440972       3.53526164       3.41158068       0.00000000      -0.00338211      -0.00143107       0.00260844
C        4.93428558       5.63969693       3.09964399       0.00000000       0.00090541       0.00557908      -0.00673895
C        3.59157178       7.98814607       4.18467229       0.00000000       0.00309462       0.00245931       0.00275687
C        2.38823461      10.05372360       4.00158097       0.00000000       0.00772613       0.00145093      -0.00499779
C        9.81010366       1.46347925       3.81954865       0.00000000      -0.00113913       0.00050277       0.00560295
C        8.58894776       3.58561913       3.66414739       0.00000000       0.00594381       0.00430097      -0.00519182
C        7.34302473       5.71526671       3.53887214       0.00000000      -0.00459291      -0.00236667       0.00373641
C        6.06902214       7.82692010       3.71661519       0.00000000      -0.00108786       0.00112929      -0.00311985
C        4.85778598       9.99745749       3.89809549       0.00000000       0.00171877       0.00331351      -0.00036241
Os       3.06065273       6.05173542       4.23123312       0.00000000       0.00204223      -0.00167064      -0.00205223
O        4.75625239       5.47765089       6.19743246       1.00000000       0.00336295      -0.00217053       0.00417437
O        3.47342034       5.75341160       6.09711544       1.00000000      -0.00832159      -0.01709609      -0.00110544
