52
Lattice="12.336457 0.0 0.0 -6.168228499999997 10.683685154694365 0.0 0.0 0.0 15.0" Properties=species:S:1:pos:R:3:forces:R:3 energy=-451.54004095173957 free_energy=-451.54004095173957 stress="-0.001471089478359324 0.0005193971936412698 -1.8609421029056777e-05 0.0005193971936412698 -0.006881417305295076 6.0187281737319424e-06 -1.8609421029056777e-05 6.0187281737319424e-06 1.2301129191479959e-05" pbc="T T T"
C        0.01033783      -0.03615563       3.66123405      -0.00781211      -0.00129924       0.01026452
C       -1.21051203       2.09878066       3.76104631       0.00980480      -0.00404740       0.01153519
C       -2.45526865       4.23729957       3.99132891      -0.00643126       0.00685789       0.00389038
C       -3.68887659       6.37560801       3.90276175      -0.00511808      -0.00417386       0.00335118
C       -4.93811370       8.49344486       3.72350686      -0.00059739       0.00120262      -0.00008823
C        2.47589288      -0.05969547       3.70716455      -0.00624411       0.00653502       0.00587271
C        1.25473092       2.03403508       3.22063512      -0.00303901       0.00098447      -0.00138211
C       -0.06801532       4.24560900       4.17716185       0.00015657       0.00387875      -0.00918015
C       -1.24623185       6.39659677       4.17889462       0.00533894       0.00495802       0.00598484
C       -2.46091368       8.50660887       3.94460703      -0.00433533       0.00316912       0.00266105
C        4.93797140      -0.04101116       3.92575986       0.01149988      -0.00736275      -0.00148250
C        3.68745337       2.05676646       3.83823860      -0.00000346       0.00289205      -0.00510559
B        1.21005827       6.47452396       4.89494239       0.00818082       0.00381313      -0.00982131
C        0.01829620       8.53075819       4.13943480       0.00142111      -0.01069249      -0.00995527
C        7.40707355      -0.01126771       3.98959326       0.00062464       0.00123453       0.00012108
C        6.17595272       2.10468389       3.97982772      -0.01000660       0.00376623       0.00103336
C        4.98072184       4.24775337       3.90312164       0.00648739      -0.00092263      -0.00691051
S        3.52567990       6.30036318       3.01704993      -0.00314487       0.00316751      -0.00710679
C        2.46142877       8.55114318       3.99599999      -0.00007725      -0.00000568      -0.00178941
C        9.88324890      -0.01933401       3.83733314      -0.00002318      -0.00298086       0.00442486
C        8.65349043       2.11200662       3.92257613       0.00008137      -0.00116884       0.00364573
C        7.42446911       4.24331496       3.90497653      -0.00211258       0.00619914       0.00075588
C        6.18382923       6.37042123       3.66841763       0.00101958      -0.00110939       0.00787503
C        4.92797621       8.51104227       3.68834939       0.00686674       0.00286357      -0.00777573
C        0.01608170       1.39029514       3.56563663       0.00613891      -0.00697263       0.01145420
C       -1.22698889       3.50343939       3.98209380      -0.00836492       0.00409940       0.00749779
C       -2.45667447       5.66479036       4.03273576       0.00332574       0.00365556      -0.00946410
C       -3.69534844       7.79265880       3.85144305      -0.00356148      -0.00370770       0.00408514
C       -4.92977779       9.91906244       3.67619594      -0.00898828       0.00252764       0.00375546
C        2.48681124       1.36551091       3.59928898      -0.00529092       0.00352548       0.00964278
S        1.31316109       3.22423719       1.93865785      -0.00301767      -0.00753095      -0.00362329
C       -0.00418199       5.65201542       4.32071551       0.01289157       0.00339214      -0.00231322
C       -1.23193799       7.81062031       4.11804007      -0.00130053       0.00457481      -0.00717654
C       -2.45913768       9.92471595       3.86398457       0.00134076       0.00361133      -0.00189919
C        4.92947277       1.38738372       3.92104322      -0.00573614      -0.00256200       0.00024046
B        3.67124181       3.52897032       4.25218721      -0.00948463      -0.01236244      -0.00729202
C        1.25328163       7.87406122       4.24437915      -0.00319734      -0.00662042      -0.01186073
C        0.00655788       9.95711806       4.01487455       0.01029736      -0.01199651      -0.00544697
C        7.41072241       1.40859770       3.96357302      -0.00831797       0.00425816       0.00817976
C        6.19253848       3.52827628       3.94893652       0.00301570       0.00461865       0.00040181
C        4.99416910       5.60079891       3.59042581       0.00213962       0.00052231       0.00619644
C        3.67034573       7.86273193       3.68782330       0.00690467       0.00409489       0.00591204
C        2.47622434       9.97532222       3.95623145      -0.00206084       0.00152956      -0.00347922
C        9.88935697       1.40242272       3.84228268       0.00859581      -0.00254725      -0.00675326
C        8.65238091       3.53045300       3.93452794      -0.00607754       0.00321344       0.01010101
C        7.42058419       5.66151437       3.82498886      -0.00443427       0.00059586       0.00289319
C        6.16074596       7.78716354       3.65266738       0.00743971       0.00138197      -0.00092783
C        4.94035345       9.94457489       3.74842845      -0.00317229      -0.00253811       0.00492754
Os       1.60323846       4.78053677       3.53295197      -0.00312061       0.00756626      -0.01361814
O        2.72480936       4.03126122       5.11265562       0.00902170      -0.01155862      -0.00027085
O        1.72038553       6.25855937       6.18835696       0.00959846      -0.00377789      -0.00055299
H        2.20279564       5.39466295       6.11205732      -0.00712115       0.00124812      -0.00142748
