51
Lattice="12.336457 0.0 0.0 -6.168228499999997 10.683685154694365 0.0 0.0 0.0 15.0" Properties=species:S:1:pos:R:3:initial_magmoms:R:1:forces:R:3 energy=-453.40931445253784 free_energy=-453.40931445253784 stress="-0.0017835537867457209 -0.006475967910263185 6.3649459275941115e-06 -0.006475967910263185 -0.0023716641905411145 8.137596604258826e-06 6.3649459275941115e-06 8.137596604258826e-06 -1.5701529329528875e-06" pbc="T T T"
C        0.00608288      -0.01832805       3.53329080       0.00000000       0.00537409       0.00463070      -0.00349899
C       -1.24374810       2.12259236       3.84725675       0.00000000       0.01014537      -0.00431889      -0.00537253
C       -2.46128445       4.26891722       3.91792244       0.00000000       0.00318416       0.00055597       0.00163838
C       -3.64362939       6.41608799       3.74051179       0.00000000       0.00097275      -0.00348516      -0.00671360
C       -4.88484570       8.54967311       3.50265970       0.00000000      -0.00397900       0.00375184       0.00899163
C        2.48762506      -0.02877714       3.49190881       0.00000000      -0.00005016      -0.00363427       0.00247487
C        1.23204906       2.04051415       3.82682920       0.00000000      -0.00039131      -0.00231051       0.00421706
C       -0.02219938       4.25800817       4.24502496       0.00000000       0.00089968       0.00233119      -0.00320998
C       -1.19202732       6.39685405       3.96103790       0.00000000       0.00172462       0.00124632       0.00016979
C       -2.41364681       8.53807983       3.63801750       0.00000000      -0.00042942      -0.00257837      -0.00124991
C        4.94301051       0.02950518       3.56920331       0.00000000       0.00731008       0.00170445      -0.00309182
C        3.64252654       2.11688866       3.31813567       0.00000000      -0.00521593      -0.00173344       0.00091850
B        1.30331116       6.45194749       4.48458737       0.00000000       0.00048811       0.00368667       0.00130304
C        0.04162239       8.56186440       3.79608590       0.00000000       0.00100629      -0.00213478       0.00091734
C        7.40225409       0.02669219       3.65272873       0.00000000       0.00005728      -0.00542988       0.00147714
C        6.12877530       2.18687473       3.75885448       0.00000000      -0.00293204       0.00602732       0.00366869
C        4.97048350       4.43703213       4.17982705       0.00000000      -0.00283393      -0.00242785       0.00398476
N        3.88131066       6.44858593       3.61449962       0.00000000      -0.01538241      -0.00417545       0.00094328
C        2.48966571       8.54045265       3.67909801       0.00000000      -0.00243060      -0.00538686      -0.00189495
C        9.86994220       0.00498058       3.59960933       0.00000000      -0.00430363       0.00226207       0.00361849
C        8.62091220       2.14924747       3.78289280       0.00000000      -0.00673195       0.00420037      -0.00184489
C        7.40129985       4.29388017       3.88751168       0.00000000      -0.00435021       0.00190346      -0.01097185
C        6.26782902       6.47166810       3.67615679       0.00000000       0.00517573       0.00225876       0.00181958
C        4.96685478       8.54973774       3.50168317       0.00000000      -0.00129983       0.00680210      -0.00077515
C       -0.00435794       1.39427748       3.72711746       0.00000000       0.00962447      -0.00299379       0.00145576
C       -1.23528016       3.54407594       4.01701894       0.00000000       0.00477891      -0.00274727       0.00351491
C       -2.43081547       5.69342802       3.87485049       0.00000000       0.00370976      -0.00152070       0.00006388
C       -3.64718670       7.83293226       3.61225245       0.00000000      -0.00524812      -0.00111798       0.00260380
C       -4.91665881       9.96118441       3.48425264       0.00000000      -0.00010282       0.00286227      -0.00505134
C        2.44117408       1.38144253       3.55658620       0.00000000      -0.00624518      -0.00426002       0.00305940
B        1.24641475       3.37973816       4.57864849       0.00000000      -0.00244803      -0.00382949       0.01804637
C       -0.00503629       5.64889424       4.19661510       0.00000000      -0.00129678       0.00373104       0.00071225
C       -1.18829172       7.82837169       3.81474948       0.00000000       0.00286422      -0.00098550      -0.00292974
C       -2.43441787       9.96600283       3.53474207       0.00000000       0.00547739      -0.00079257      -0.00661241
C        4.91476425       1.46556690       3.54241794       0.00000000       0.00038313       0.00348163      -0.00493908
O        3.47225614       3.31451907       2.78390493       0.00000000       0.01560234       0.00103120      -0.00246286
C        1.27941232       7.88317509       3.91602867       0.00000000      -0.00139323      -0.00735999      -0.00200427
C        0.01183315       9.99695969       3.65801763       0.00000000       0.00358047      -0.00402726      -0.00146374
C        7.37388066       1.46082077       3.72166499       0.00000000      -0.00620112      -0.00202933       0.00914440
C        6.13578971       3.61457489       3.96512423       0.00000000      -0.00261521       0.00538712      -0.00045471
C        5.04695133       5.81812431       3.83406901       0.00000000      -0.00091166       0.00379221      -0.00281046
C        3.75244158       7.81812532       3.59149256       0.00000000      -0.00200733       0.00126918       0.00564141
C        2.47480113       9.97913432       3.61498455       0.00000000      -0.00344075      -0.00687577       0.00467887
C        9.86101987       1.42863345       3.72887189       0.00000000       0.00147062       0.00408704      -0.00404304
C        8.63133844       3.56911939       3.85987711       0.00000000      -0.00453442       0.00487357       0.00226507
C        7.45799669       5.71601480       3.77765807       0.00000000       0.00457130      -0.00159283      -0.00341760
C        6.21886665       7.86640132       3.51862295       0.00000000      -0.00103675       0.00362783       0.00488355
C        4.94032893       9.96893138       3.52115765       0.00000000       0.00155578       0.00946275       0.00389402
Os       3.07303450       4.69268309       4.23366922       0.00000000      -0.00248492       0.00050555      -0.01869985
O        2.20599889       6.07543708       5.42562194       1.00000000       0.00146678      -0.00530102      -0.01425549
O        2.15615128       3.50125691       5.60057018       1.00000000      -0.00112659      -0.00242363       0.01166201
