52
Lattice="12.336457 0.0 0.0 -6.168228499999997 10.683685154694365 0.0 0.0 0.0 15.0" Properties=species:S:1:pos:R:3:forces:R:3 energy=-449.6950659633589 free_energy=-449.6950659633589 stress="-0.008557433585212925 -0.0012736143145447465 9.7509283170432e-06 -0.0012736143145447465 -0.009925425574035604 3.2623010588827194e-05 9.7509283170432e-06 3.2623010588827194e-05 -3.0865863252222518e-06" pbc="T T T"
C        0.04553552      -0.03396774       3.86530878       0.00393886       0.00099777      -0.00199247
C       -1.19978437       2.10509686       3.86696486       0.00512282       0.00222994      -0.00454493
C       -2.43311922       4.25100150       3.72726384      -0.00522658       0.00100879       0.00036246
C       -3.63782565       6.39098100       3.65735252       0.00039072       0.00542291      -0.01482946
C       -4.87934909       8.51974763       3.75879037      -0.00505387      -0.00172697      -0.01068431
C        2.52062463      -0.06430318       3.86358278       0.00541721       0.00488779      -0.00648954
C        1.28695187       2.05560922       4.00955847       0.00286856       0.00300863      -0.00098032
C       -0.04147859       4.26569133       4.04850166      -0.00122553      -0.00631058       0.00328499
C       -1.20842144       6.39897842       3.89830763      -0.00083251      -0.00393307      -0.00930667
C       -2.41116777       8.51668736       3.80757090      -0.00087074       0.00529431       0.00298437
C        4.98541215      -0.03065379       3.71275816       0.00351519      -0.00016718       0.00022727
C        3.71866357       2.02983104       3.58088982      -0.00311040       0.00169293       0.00172827
B        1.32871129       6.35634191       4.21727735       0.00762651      -0.00700034      -0.00414725
C        0.05468127       8.52991024       3.89158905       0.00591813      -0.00247122       0.00587778
C        7.44374349      -0.00939995       3.70486764      -0.00349340       0.00364350       0.00020853
C        6.21171526       2.10959588       3.42950469      -0.00648521      -0.00200532      -0.00205534
C        5.09939869       4.30067212       3.14855817      -0.00059432      -0.00005954      -0.00148581
B        3.78118648       6.37305846       3.76796999       0.00206927       0.00075894       0.01260989
C        2.51462016       8.56387651       3.86884708       0.00495176      -0.00201876       0.00229798
C        9.91587162      -0.01104219       3.77053068      -0.00539670       0.00240938      -0.00304554
C        8.68050555       2.11659312       3.61306400       0.00176723       0.00170535       0.00092981
C        7.48103525       4.25769048       3.42185896      -0.00024594       0.00190705      -0.00086199
C        6.27154761       6.41648873       3.50452381       0.00024456      -0.00406965       0.00144246
C        4.99201850       8.53970213       3.75040389       0.00013236       0.00240939      -0.00300989
C        0.03851910       1.38869027       3.94012215       0.00721092       0.00278945      -0.00603164
C       -1.22479435       3.52374509       3.88057797      -0.00445227       0.00073227       0.00063253
C       -2.42308560       5.67520542       3.75165958      -0.00440633      -0.00038228      -0.00617131
C       -3.64264233       7.80963617       3.74351313      -0.00218536       0.00363183      -0.00200371
C       -4.88907010       9.93252518       3.85427649       0.00604392      -0.00113087      -0.00221058
C        2.51301619       1.35047649       3.87436700      -0.00123208       0.00404628      -0.00715002
B        1.26539969       3.52796078       4.23796371       0.00130415      -0.00144085      -0.00177556
C       -0.01923744       5.66018531       4.05511877       0.00028530      -0.00676368       0.00435793
C       -1.18327679       7.81642077       3.87482314       0.00062262       0.00037244      -0.00586733
C       -2.40913502       9.93494863       3.79767369       0.00532092       0.00561999       0.01225590
C        4.97915040       1.39513013       3.55087393      -0.00565039      -0.00325748      -0.00056067
S        3.52025214       3.63787148       2.99502311      -0.00262313      -0.00057685      -0.00194830
C        1.29720854       7.85105118       3.98905108       0.00797802      -0.00531399       0.00427831
C        0.05003413       9.95312785       3.76173400       0.00217343      -0.00068410       0.00850329
C        7.43960170       1.41019655       3.56679107      -0.00198602       0.00429033       0.00135392
C        6.25668236       3.52573115       3.27337600      -0.00213504      -0.00076766       0.00811229
C        5.07182085       5.67871520       3.39251149       0.00103476      -0.00256298       0.00820249
C        3.74582347       7.87152317       3.79584049       0.00389690      -0.00011885       0.00186907
C        2.51104495       9.97973683       3.77676808      -0.00607424      -0.00024123      -0.00038056
C        9.91004696       1.40674587       3.74663679       0.00402844       0.00321317      -0.00231805
C        8.68975780       3.53808134       3.57118592      -0.00295336       0.00129285       0.00657869
C        7.48550693       5.68131865       3.49819533       0.00138134       0.00104118       0.00264338
C        6.23085167       7.82456011       3.67999223      -0.00436187      -0.00463209      -0.00008153
C        4.98332358       9.95865933       3.79902575      -0.00195994       0.00436328       0.00100626
Os       2.73536692       4.89340615       4.74345890      -0.00156205       0.00649507       0.00696518
O        3.16305262       4.83086691       6.54035170      -0.00380454      -0.00315151      -0.00340527
O        1.81616565       4.85626922       7.17579374      -0.00640899       0.00184400       0.00209191
H        1.84249375       5.73620124       7.60471474      -0.00091310      -0.01632178       0.00253312
