51
Lattice="12.336457 0.0 0.0 -6.168228499999997 10.683685154694365 0.0 0.0 0.0 15.0" Properties=species:S:1:pos:R:3:initial_magmoms:R:1:forces:R:3 energy=-818325.9235903946 free_energy=-818325.9235903946 stress="1051.9756632308756 595.580624636926 -517.8535872600378 595.580624636926 2252.132464800837 418.3152125068297 -517.8535872600378 418.3152125068297 530.3527343282191" pbc="T T T"
C       -2.94658769      -1.19895779       9.80929642       0.00000000     -10.02619953      -1.14582967      -4.52470716
C       -2.08969725      -9.34697320      -4.46905175       0.00000000      28.90820393      14.89958293     -39.83584805
C        2.70204930       5.98147676      -2.65175097       0.00000000      -1.62298808      -2.03295931      -0.08225404
C       -1.61857222      13.48008347       8.06113895       0.00000000    -644.16510266  -25389.50325466   30211.32937850
C       -2.61230331      12.86459941       4.48711469       0.00000000   33678.48089398  -35425.13714657  -39350.64615152
C        5.10913600      -2.19249673       2.35143212       0.00000000     -52.26122942     111.11836700      63.86765831
C       -1.78514720      -0.51635771       8.15527156       0.00000000     -40.19521149     114.32019397      27.09684496
C      -11.58657853       3.38918162       5.57961624       0.00000000    2035.32377188     909.54634843     354.17495985
C       -5.98631580       8.38884657       1.21760319       0.00000000      -5.13131309      -8.91375535       0.71887272
C       -1.01646808       7.10816210       3.23886351       0.00000000     -21.87024216      13.34109746     -11.15189908
C        7.09603097      -2.41955294       2.88408039       0.00000000      54.63669367     -66.47836255     -83.73951561
C        4.57777052       2.40576072       4.72132509       0.00000000   90134.38328693  435790.00308964  192822.56341156
B        4.41824410       2.76676573       3.93314008       0.00000000  -82232.27468316   -5218.22509523 -108521.56666517
C        1.92246435       7.79638734       1.40638839       0.00000000      34.30464324     -21.33225249     -23.84101406
C        9.22551771      -5.01188391       0.56637078       0.00000000     108.93523242     -60.50997342     -56.72592660
C        3.02081772       4.32961771       4.07813242       0.00000000   93766.95864773   90998.25495402  -47724.79794478
C        9.47429090      -0.94126332       0.07186665       0.00000000      -0.80067509      -6.22808619      13.07465170
C       11.40117866      20.06150547       1.25404827       0.00000000      -6.88414982     -10.57760170      -0.54245186
C        2.83334463       4.03399483       4.18385393       0.00000000  -31762.62515239  -47693.07944266   99737.70082163
C        5.68916512      -5.42989190      -2.21580120       0.00000000       0.78893400      -0.31781695       0.29439143
C        5.11596055       1.65481410       5.13748343       0.00000000    3651.26955966  138538.85262899    9965.93179130
C        7.78109667      10.10388228       4.58256182       0.00000000    -423.14692848    -196.20635292      33.86303850
C        6.82386014       6.80342644      -1.42918970       0.00000000       5.61762696      26.07838780     -11.16110232
C        5.66925193      13.14050402       1.46044968       0.00000000     -51.10690267     -15.49906848     -45.45793185
C       -3.28170023      -1.59474906       8.06434777       0.00000000    -168.11835609     319.37479745     193.35750152
C       -5.21384313       6.88055743       0.31879177       0.00000000      -5.80974226      -7.94874544      20.32750840
C       -5.69007177       2.38263801       5.60359235       0.00000000  -43088.31365178     618.11061411  -13526.88007822
C       -1.97098257      10.69773931       3.79387301       0.00000000   -2238.07034714  -13774.10615064   -4418.90036142
C       -6.48971881      10.53943857       3.68611027       0.00000000      32.63881823       3.10942694      12.36264091
C       -2.44037186      -2.90537743       1.74970993       0.00000000      -9.21602385    -136.84418643      84.98932570
B       -2.65791811       0.07183941       7.25063904       0.00000000     -30.47119531     -12.42244828       8.96301294
C       -1.69667494      10.26672932      11.11752742       0.00000000       0.80411151      12.35463038      -1.89519135
C       -0.34426541       6.35781649       3.39159956       0.00000000     -15.53124462      53.53988197     -23.00537410
C        2.44933849       9.14469699       1.74038096       0.00000000       2.21555716      26.69616209     -18.47058584
C        4.82811509       2.44636326       4.95254208       0.00000000   25333.01163845 -388841.93779890   49775.79403917
S        6.49513711       5.58521656      -1.06388861       0.00000000      -8.80586948     -26.25573853       4.10477043
C        5.45047012       5.10219071       3.45248033       0.00000000   -4533.03019554   -1975.34488615    -143.63789872
C        1.24716427       8.12851177       2.23796119       0.00000000     -51.42323798     -56.70834099     164.30518936
C       14.59932734       3.02917905       5.60585061       0.00000000  -42119.74581879  -19917.23959090    9586.41550958
C       10.53953663       2.23818516       0.39102714       0.00000000       5.96343823       0.45592450       5.24101798
C        2.73653566       5.30044468       3.02868821       0.00000000     -83.79235475    6314.58827379   -2503.54736645
C        8.05660904      15.24813798      -0.86942390       0.00000000      15.87173361      12.82797903      33.81367417
C       -1.24423514      10.20653481      13.08116242       0.00000000      -1.48690607       0.55796296      -6.33742118
C        8.62847969      -0.60379994       7.89057058       0.00000000      11.00205854     130.00152516      13.22437005
C       -2.84349350      10.06701541       4.12125873       0.00000000    1014.26525031    1957.14888260     386.61563306
C       10.64093547       8.88807186       7.62388714       0.00000000      -1.89754679     -27.55008916       6.47259064
C        7.57932173       6.95334259       8.08716980       0.00000000    -526.40900227    -340.35736243    -430.02498478
C       -0.20138172       8.43845875       5.11634813       0.00000000      17.95817966     -31.46223130      13.25252284
Os       4.83666663       4.53614318       5.83785459       0.00000000 -7129958.93489890  287448.57016891 5457242.72686820
O        4.73302727       4.96195352       6.05946546       1.00000000 1484711.52047736 -5790102.55513792 -3083893.34337912
O        4.51405910       4.21952632       5.97906318       1.00000000 5603448.30841221 5365952.16882507 -2549942.46594211
