53
Lattice="12.336457 0.0 0.0 -6.168228499999997 10.683685154694365 0.0 0.0 0.0 15.0" Properties=species:S:1:pos:R:3:forces:R:3 energy=-464.2739206834931 free_energy=-464.2739206834931 stress="-0.004678825180039549 0.0035404842418719756 2.545789696168683e-05 0.0035404842418719756 -0.0014567836524832355 5.160375222073377e-05 2.545789696168683e-05 5.160375222073377e-05 1.0534388870073784e-06" pbc="T T T"
C        0.04145395       0.01737799       3.73115968      -0.00557028       0.00636718       0.01195723
C       -1.18133167       2.15122975       3.79163590      -0.00560192       0.00679968      -0.00114395
C       -2.41659328       4.29010847       3.82710097       0.00507289      -0.00124746      -0.00581743
C       -3.66678856       6.42405545       3.76763727      -0.00293882       0.00226938       0.00208769
C       -4.91436793       8.55403332       3.68939293      -0.00141165       0.00607827       0.00519985
C        2.49843754       0.01531190       3.82066357      -0.00125834      -0.00181289       0.00202867
C        1.29040347       2.17394248       3.70247936       0.00240137      -0.00220631      -0.00666157
C        0.01137838       4.32140195       3.75330461       0.00075093       0.00138386       0.01059834
C       -1.22844357       6.44272594       3.95121477       0.00156010       0.00115571       0.00332627
C       -2.45119064       8.56703966       3.92912278       0.00077935       0.00560272      -0.00098970
C        4.97356121       0.00405695       3.99148181       0.00299327       0.00104355      -0.00345496
C        3.76475882       2.12087684       3.76732859       0.01227024      -0.00506905      -0.00052734
B        2.61099381       4.26536180       2.91411668      -0.00306013       0.00498152       0.00438390
C        1.20583099       6.42010577       4.22104995      -0.00217824      -0.00180474       0.00951920
C        0.02458721       8.55719232       4.10046355      -0.00527727       0.00374795      -0.00735808
C        7.44999322       0.00021567       4.03616872       0.00013702      -0.00110312       0.00373892
C        6.24323913       2.11722363       3.88816307       0.00087214      -0.00842426      -0.00675922
C        5.08707785       4.21771276       3.47323196       0.00847454       0.00324458       0.00293275
P        3.43060607       6.19013831       2.89509602       0.01434867       0.00039302       0.00441279
C        2.49308973       8.55950460       3.91243843      -0.00834658       0.00334832      -0.01171897
C        9.91723329       0.00583650       3.85793166       0.00744840       0.00317301       0.01254794
C        8.69866216       2.13940947       3.90189381      -0.00811134      -0.00151048       0.00890194
C        7.48452426       4.27313555       3.73611206       0.00028671      -0.00361468      -0.00612846
C        6.22918552       6.40512839       3.46774259      -0.00641974       0.00725191       0.00081010
C        4.94857426       8.54872669       3.58268337      -0.00320115      -0.00812949      -0.00656459
C        0.06103541       1.45367313       3.74934292      -0.00532776       0.00723475      -0.00301077
C       -1.19059952       3.57888924       3.78677737       0.00326915       0.00305084      -0.00249345
C       -2.43618449       5.71659628       3.84688220       0.00156146      -0.00029387       0.00340428
C       -3.67786444       7.85012624       3.79113047       0.00002525       0.00690789      -0.00177649
C       -4.90128760       9.98489424       3.74172600      -0.00692850       0.00484604       0.00874679
C        2.51016188       1.44971772       3.76230419       0.00748327      -0.00343383      -0.00642242
C        1.28925539       3.65037819       3.62684677      -0.00552600      -0.00226774       0.00057231
C       -0.00426288       5.72133113       3.96637113       0.00243866       0.00208089      -0.00346895
C       -1.22122734       7.85983146       4.02272059      -0.00227678       0.00196788       0.00188290
C       -2.44071411       9.98959589       3.92863216       0.00304230       0.00341859      -0.01146101
C        4.99097537       1.41879840       3.90427743       0.00779794      -0.00476551      -0.00399829
C        3.82383491       3.54043998       3.55648614       0.01431711      -0.00374621       0.00087794
C        1.25672711       7.84022194       4.10748788      -0.00716696       0.00051419      -0.00258631
C        0.03760763       9.97748174       4.06375224      -0.00089478       0.00347830       0.00442249
C        7.46568104       1.41918838       3.96770799      -0.00451653      -0.00704249      -0.00936632
C        6.28163279       3.52636175       3.70801859       0.00207394      -0.00685957       0.00191532
C        5.07422219       5.60836879       3.27892830      -0.00325508       0.00671311       0.00300660
C        3.67923861       7.88937620       3.54477932      -0.00574282      -0.00876458       0.00983523
C        2.51221644       9.98221382       3.96885410       0.00376224       0.00493805       0.00495541
C        9.92853151       1.43257181       3.86431203      -0.00510149       0.00506035       0.00026116
C        8.70325493       3.56521352       3.83584791       0.00266306      -0.00202084      -0.00828816
C        7.46003471       5.69884037       3.64911668      -0.00600345       0.00222248      -0.00537585
C        6.19437728       7.83771642       3.54536487      -0.00080956       0.00180717       0.00248109
C        4.97314891       9.97913235       3.72757320       0.00176398      -0.00521122      -0.00604435
Os       2.56892507       5.02183669       4.75253719       0.01153512      -0.00997711      -0.01087457
O        2.52442889       4.33275700       6.43950304       0.00039967       0.00632752       0.00489174
O        1.54142516       5.22165791       7.16986459      -0.00189389      -0.01386998       0.00297123
H        2.14911132       5.60925008       7.83551873      -0.01070972      -0.01423328      -0.00037889
