51
Lattice="12.336457 0.0 0.0 -6.168228499999997 10.683685154694365 0.0 0.0 0.0 15.0" Properties=species:S:1:pos:R:3:initial_magmoms:R:1:forces:R:3 energy=-1909039.6153179065 free_energy=-1909039.6153179065 stress="4116.592980837481 534.0939302273205 -464.9403750284555 534.0939302273205 1537.4541541009553 -1014.8226103388256 -464.9403750284555 -1014.8226103388256 1878.7212239812652" pbc="T T T"
C        3.91255804      -0.08024307      -2.06486532       0.00000000      -0.16737314       0.32691777       0.01779262
C       -0.53498165       4.14151684       6.40932119       0.00000000   -7954.64198167    -187.41327891     774.58301516
C       -4.29788558       6.33046649       1.56144029       0.00000000      22.09466046      31.35381381      10.25647347
C       -0.93899100       5.07480504      -1.61144726       0.00000000     406.84772464    -384.93659926    1021.83127494
C       -3.97720151      11.08147366       6.05771081       0.00000000    5836.23121823   -2909.26073605    2247.05491647
C        3.40049344      -3.42408145       2.87487684       0.00000000      55.76268684     -91.56739218       8.13686175
C        4.39024551       1.14145557       6.46281926       0.00000000    1146.88970275    -977.53789104     600.00307804
C        1.40913347       3.24266121       3.19465716       0.00000000  654704.43864374 -1865696.08710411 -3123323.66575396
C        0.44110739       7.42720312      10.43606722       0.00000000     -39.81228649       6.47761831      64.72204147
C       -1.63226626      13.64494707       4.36151370       0.00000000   -1336.91666598    2890.09470859   -1225.67468130
C        6.61187227      -3.22085894      -0.26777819       0.00000000     201.51673169    -799.32670793     623.19112681
C        2.98593472       3.56364729       2.37817728       0.00000000 -123408.24391813  -42204.27963608   66059.45575278
N       -7.91051984      -4.95294823     -10.01081530       0.00000000   -1932.22084547     140.89006585    -239.83460609
C       -0.82983325       2.70061124       1.10641875       0.00000000  -22274.23029026   -5960.43550447  -15947.14216441
C        8.95491575      -1.02027953       0.00964952       0.00000000     -11.57495466     -21.49758664       0.03178343
C        4.41932671       5.66504756       1.92812570       0.00000000    2395.91691717    1826.58545822   -2107.70628857
C        4.56966998       7.30606897       3.39010042       0.00000000    5230.98727256    4143.68963782   -9386.84608637
O        4.08248953       7.88582585       4.91360142       0.00000000   -9027.90359623    3523.24761267    2107.72982704
C        1.15927385       6.94034661       0.87410086       0.00000000    -135.98970912    1068.54300515    -967.40352855
C       11.85090163       1.39607686       6.10806565       0.00000000  -54007.78958344  -16861.78630065   42376.09399093
C       10.43783762       1.70119814       5.63186282       0.00000000    -127.25764006    -207.90045199     486.68640774
C        5.12912807       6.38895071       4.07675998       0.00000000    5996.37703629    -682.11340985     703.35771258
C        2.62431808       8.03095762       7.88545570       0.00000000     102.91686730   -2063.84423740   -1648.64526581
C        1.83316039       7.45527282       3.89529781       0.00000000   -9184.12040168   13374.80990310   -5507.87171550
C        0.48743580      -0.47493283       3.02515539       0.00000000   -6102.38437680   -1787.65160776    -783.03554829
C        7.68750201       3.24598498       8.88743164       0.00000000      28.41782283       8.78188885      13.91496081
C       -7.13310682       5.94555896       6.90965528       0.00000000    -687.31281238    2349.67727206    -136.17279627
C       -8.30589526       7.53273991       4.24908405       0.00000000    -994.63671933   11316.43144570  -11027.01235749
C       -6.99353813      11.76663433       3.50995885       0.00000000   43728.96326734   41921.22702343   21170.84024277
C        2.82649257       3.26814884       4.65884870       0.00000000   20111.72288083  -41543.92480213   25426.78856642
B        1.42459024       3.26727539       3.11741376       0.00000000 -604761.34881905 1785284.61310466 3597144.02440054
C       -1.12630514       4.73032789       0.18981135       0.00000000   -2514.41920179    1697.14280329   -2529.98689704
C       -1.99207673       5.10900951      -0.06912891       0.00000000    2666.70693742   -1503.45034722    1619.13777943
C       -2.88603864      12.62204408       4.11018296       0.00000000 -111544.66013001   49217.33460412   -5033.92772572
C        7.10637017       6.67491486       6.90002036       0.00000000    1230.31166835     356.32746477     497.50560678
B        7.39462888       4.92598010       5.48678708       0.00000000      51.51013940    -184.41827840     -10.81173468
C        0.31307268       5.24263215       5.01537127       0.00000000  616918.28697493  -73530.27240887   91133.92340411
C       -1.47421212      11.90981417       3.27192192       0.00000000    4636.75786878   -1270.84018974   -1918.70656511
C        9.85662482      -1.39378309       3.36554584       0.00000000    -281.98847964    1844.71539520   -1027.83755416
C        6.51358010       6.49901871       4.48044464       0.00000000     653.15823116    -463.18741905     236.09173206
C        2.52732849       5.49853968       4.97596667       0.00000000 -12039772.60716018 -2755423.11923182 3516687.96169340
C       -0.79964250       8.58356398       3.22071863       0.00000000     107.79611144    -161.37020261     -78.15935254
C       -0.53486989      12.72756506       6.86813805       0.00000000     -39.68654366    -300.28580312     -50.84503428
C       10.45576170       1.83699653       6.56910557       0.00000000     415.13622579   -1788.26371187   -2240.33288544
C       12.34805216       0.49043373       4.61373629       0.00000000   27903.53278393   32578.31423470   -5678.28942708
C        3.36445328       6.43159436       6.06704834       0.00000000  -95339.60073035  -15753.95935104   76019.72830771
C       13.30524024       1.62047326       4.14567939       0.00000000  125732.34277545  -23463.39460930 -102386.84269152
C        7.05977530      12.46432271       4.43478612       0.00000000   52671.64700323  362454.95165120 -206979.58835251
Os       1.99651338       5.40109574       5.10415045       0.00000000 13010202.71161477 -1361771.00603187  426505.25320460
O        2.82508590       5.00169735       6.28357176       1.00000000 -168109.78732802  671942.29894334 -969892.73990118
O        2.03513225       4.98795616       5.44746474       1.00000000 -1323569.68021977 3230015.29625877 -3403409.24304000
