51
Lattice="12.336457 0.0 0.0 -6.168228499999997 10.683685154694365 0.0 0.0 0.0 15.0" Properties=species:S:1:pos:R:3:initial_magmoms:R:1:forces:R:3 energy=-671088.3068337602 free_energy=-671088.3068337602 stress="336.18260898962455 288.87769858853056 -533.9448508379292 288.87769858853056 773.1550971653588 -878.843352808371 -533.9448508379292 -878.843352808371 1093.701321739557" pbc="T T T"
C       -3.17296197      -2.41056847       6.42186577       0.00000000      55.80135020    -659.18638416     561.79009777
C       -4.82473062      -1.76931636       2.92438734       0.00000000    1648.61799814   17756.25208834    4414.07931997
C        1.40704756       5.43481054       1.85012581       0.00000000   -1498.73917852   -1419.83152723     103.25384858
C       -3.49368914       5.10781340      -5.06678032       0.00000000     -10.41303444       1.00405162     -70.73075533
C       -7.99104038       9.53685772       4.11466017       0.00000000   -7380.12492369   -1549.12810513   -4950.61840428
C        8.71974253      -1.15745404       6.99978765       0.00000000     -28.27890017    -519.20509087    -171.16959419
C        1.53961156       5.28608064       3.25292632       0.00000000   35104.27233526   61355.42955019 -104037.21646137
C       -0.38600335       5.05734203       3.06935161       0.00000000   -5269.78880177   -3249.34529633   -8888.17718587
C       -0.29825391       9.06038072       0.11186809       0.00000000      91.40599499     -79.01008967     106.24277938
C       -0.71758169       4.64586874       6.31839909       0.00000000    2950.41569118   -2319.58345998     666.64322011
C        0.98743559       0.17492446       2.37260042       0.00000000     289.80301775      14.13565012     316.49943244
C        7.81217352      -3.02811426      11.76987908       0.00000000       0.39213393      -2.61735211      10.21226837
B        1.16444200       8.46275500       2.35556667       0.00000000   -7499.82537345   -8352.19519182  -11094.41870539
C       -3.35257413       5.09263449      10.74594238       0.00000000      96.72051844     -36.52583125      84.46255700
C        8.04529435       1.88661979       6.92394762       0.00000000       1.73948903       3.82120795      -5.01977779
C        6.87862339       5.19566459       6.52790736       0.00000000     -32.95266525       7.02607226     -11.66754684
C        2.69248195       5.32978163       3.68651364       0.00000000  -86677.49693608   78861.85433137   80236.24593598
N        4.27104378       5.52019163       3.78292152       0.00000000    -452.99975351   -1058.14558357    4674.38609483
C        0.24717884       6.68911136       1.98219672       0.00000000   -4635.29992253   -2167.18907277   -5810.11543808
C        9.02269207      -2.33323912       3.85471171       0.00000000   11672.25173901   14370.60178139   14878.68512429
C       11.03907659      -1.12406538       4.45613488       0.00000000    6959.65656644     513.53357342    4337.48303870
C        4.00579861       4.08686967       1.82011321       0.00000000     292.42480480    -116.04725421    -481.78291466
C       10.05335627       7.39026374      13.81764035       0.00000000      16.73075990     -10.83723231      21.78363912
C        3.52733216       8.08306889       3.00266323       0.00000000  -15265.02747233   23925.03910447    4472.00824184
C       -6.62035673       1.46173726       5.01847226       0.00000000     -18.63000088     -26.34305049     -44.84904964
C        7.44269209       0.55183688       1.40299122       0.00000000      75.11677213    -199.66204871      -2.15647329
C       -5.96618780       3.55937914      -1.81034460       0.00000000       0.47435270      -0.14120223      -0.37991400
C       -2.65686104       5.37244463       4.28427351       0.00000000     184.77610765      46.16364202     125.58820511
C       -3.96870125       9.85779778       8.97563547       0.00000000      -0.71736115       0.28858942      -0.89867295
C       -0.07417653       7.80201834       3.73047661       0.00000000     699.51335970   -5216.37120215    4249.23598487
O        8.95113572       7.33031031      -3.65182275       0.00000000      -0.25734789      -0.28602388       0.65388159
C        0.88710448       6.30122886       5.48287299       0.00000000    4334.85230305  147634.99761594 -132042.87953770
C       -3.64052928      11.21156256       3.10289540       0.00000000     -11.09173036      40.98887134      -5.19186931
C       -5.61740820      10.86965704       1.90118374       0.00000000    -383.01449722     -30.05330440    -299.38200889
C        9.25960000       3.55515901       4.61005851       0.00000000      99.61077975      47.23755757     -77.62695578
B        1.94393821       5.36748134       5.29567026       0.00000000 -461568.85875981  272094.45191769  -47928.22664452
C        2.34044790       7.98146567       2.58385197       0.00000000   -2955.97824657    9792.85560644  -16266.12983716
C       -3.47738739      10.71363295       4.84498510       0.00000000      -1.27961422       8.46804353      -4.69017673
C        4.17785599       2.06072668       4.39383504       0.00000000    -212.41622515     419.80976337      77.65294939
C        5.91504687      10.67112246      -6.77285991       0.00000000      -2.95683738      -4.63600511      -2.49514923
C        3.90618859       7.63859074       2.88445099       0.00000000   36540.99830961  -17443.66472426  -18749.56203344
C        2.90173272       7.55100576       3.09159368       0.00000000   21896.73397331    7212.78122183  -16578.98264090
C       -0.51015460       9.18156417       6.11954404       0.00000000     325.46397094    -846.07411094      99.69523640
C        8.53180608      -0.71920512       0.09733131       0.00000000      25.29639974    -225.76188579     328.56435832
C       12.37687399       0.83744466       0.54413941       0.00000000     -11.70382106      -5.48871519      31.72004840
C        7.63738751       5.61767602       4.91361676       0.00000000     102.45356789       9.66614846     -24.28179708
C        8.27220360       5.37903302      10.62061583       0.00000000     -84.78482688      36.37786852     -13.37981618
C        3.29427326       7.18468145       1.99725067       0.00000000   13393.14997576    3080.49731447  -10597.10324215
Os       1.70051853       6.28026848       4.54727106       0.00000000 -4014204.23358161 -5583489.96381820 7165578.02688335
O       10.00919335       4.23498037       6.05183982       1.00000000     822.04797019     455.93369864    -203.09079287
O        1.57144486       6.03197755       4.86663313       1.00000000 4470526.14957043 4991338.07829237 -6907012.68975021
