52
Lattice="12.336457 0.0 0.0 -6.168228499999997 10.683685154694365 0.0 0.0 0.0 15.0" Properties=species:S:1:pos:R:3:forces:R:3 energy=-444.71352808086385 free_energy=-444.71352808086385 stress="-0.002986334166497745 8.906677097748726e-05 8.391544305174225e-06 8.906677097748726e-05 -0.007267470265406248 1.3017756161911082e-05 8.391544305174225e-06 1.3017756161911082e-05 -1.7549855931551626e-05" pbc="T T T"
C        0.08270944      -0.01215867       3.78972579       0.00061331      -0.00029696      -0.01492482
C       -1.15052272       2.12984736       3.61723615       0.00453126      -0.00362966       0.00762177
C       -2.39725446       4.27278782       3.70817917      -0.00259936       0.00024317       0.00318283
C       -3.61634855       6.40811910       3.85604428       0.00165993      -0.00223657       0.00303406
C       -4.85553333       8.53282713       3.87364240       0.00545498      -0.00806622       0.00899412
C        2.54857948      -0.03929988       3.88810368      -0.00341013      -0.00119360      -0.00457677
C        1.34387416       2.04988564       3.53215137      -0.00164983       0.00980374       0.00028752
C       -0.04914934       4.28375270       3.09000169      -0.00073012      -0.00309552      -0.00164504
C       -1.19092445       6.43453612       3.47528388       0.00257635       0.00264898       0.00821704
C       -2.37703803       8.53624849       3.77975878      -0.00547270       0.00907726      -0.00696939
C        5.01734350      -0.00560526       3.97093256       0.00531132      -0.00209012      -0.00185177
C        3.75145046       2.06481208       4.25057589      -0.00643073      -0.00678784      -0.00962506
S        1.38916573       6.49548433       2.36672356      -0.00647693       0.01266078      -0.01343957
C        0.08065015       8.57434002       3.58167473      -0.00558608      -0.00455218       0.01112985
C        7.48039461       0.02155519       3.90119759      -0.00505355       0.00733007       0.00369525
C        6.25834237       2.13195803       4.22281964       0.00150073       0.00377186      -0.00719433
C        5.10929452       4.31280523       4.49604614       0.00518656      -0.00592787       0.01070469
B        3.73864871       6.39192483       4.05495319       0.00249402       0.00410467       0.00330674
C        2.54167951       8.59190329       3.69863937      -0.00003706      -0.00002182       0.00204919
C        9.95797997       0.01547261       3.83935479      -0.00633112      -0.00593627      -0.00503978
C        8.72323132       2.14462869       3.93596701       0.01052217       0.00099005       0.00082019
C        7.50709519       4.27444576       4.10278213       0.00094177       0.00607061      -0.01240142
C        6.27429709       6.41838713       4.05858097      -0.00630620      -0.00247897       0.00088890
C        5.01034742       8.54702962       3.88751120       0.00812166       0.00109936      -0.00150718
C        0.08781430       1.41204034       3.62920504       0.00250266       0.00463580       0.00602735
C       -1.18920400       3.54247329       3.47857641      -0.00427737      -0.00410572      -0.00458567
C       -2.39453657       5.70000439       3.69487502      -0.00130523       0.00050690      -0.01736279
C       -3.61737041       7.82653558       3.83596029       0.00526593      -0.00361559       0.00403177
C       -4.85662263       9.95102628       3.83901409      -0.00109909      -0.00691838      -0.00656407
C        2.54825010       1.38013802       3.90933241      -0.00812482      -0.00267450      -0.00156474
S        1.48569717       3.54771101       2.63892112      -0.00170576      -0.00300182       0.00451534
C       -0.03122766       5.68764241       3.12142727       0.01361793       0.00313418       0.00277660
C       -1.15267337       7.84526160       3.59136568      -0.01002242       0.00387139       0.00661720
C       -2.37699748       9.95376833       3.89386921       0.00105326       0.00603805      -0.00566052
C        5.01087122       1.41440329       4.18221030       0.00039676      -0.00550531       0.01185542
P        3.57211904       3.64065770       5.04862406      -0.00790986       0.00323022       0.00025194
C        1.32552705       7.94258509       3.37263781      -0.00160252       0.00436754       0.00068235
C        0.08170175       9.98606006       3.83850238       0.00071196      -0.00214895      -0.00456499
C        7.48547736       1.43719880       4.04007469       0.00502785       0.00944401      -0.00479399
C        6.28837460       3.55378216       4.31370677       0.00706577       0.00305420      -0.00124829
C        5.07316442       5.69128219       4.23793328      -0.00325886      -0.00674945       0.00751916
C        3.75743083       7.87231835       3.85193809       0.00846808      -0.00053630      -0.00394331
C        2.54551950      10.01012657       3.82376774      -0.01018696       0.00031474       0.00603667
C        9.96186997       1.43770849       3.80709420       0.00511460      -0.00769314      -0.00175334
C        8.72487677       3.56461829       3.93095938       0.00264613       0.00210747       0.00617800
C        7.50224012       5.69766277       4.01984236      -0.00279979       0.00370285       0.00157709
C        6.24759009       7.83075740       3.93245566       0.00520744      -0.00244050       0.01152881
C        5.01654060       9.97424347       3.83431078      -0.00053089      -0.00103692       0.00103603
Os       2.01070029       5.20673877       4.16856280       0.00619574      -0.00702879      -0.00196374
O        1.59526708       5.94269029       5.86171378      -0.00081350       0.00600816      -0.01738029
O        0.53288893       5.01602839       6.35790690      -0.00941367      -0.01421244      -0.00265699
H        0.80781450       4.96371724       7.29889372       0.00094636       0.00576535       0.01865200
