51
Lattice="12.336457 0.0 0.0 -6.168228499999997 10.683685154694365 0.0 0.0 0.0 15.0" Properties=species:S:1:pos:R:3:initial_magmoms:R:1:forces:R:3 energy=-441.4207826580807 free_energy=-441.4207826580807 stress="-0.00323777714433841 0.0026475578861368545 1.2291886270797331e-05 0.0026475578861368545 -0.0065183618219235824 8.88841832957845e-06 1.2291886270797331e-05 8.88841832957845e-06 -4.2547405440157495e-06" pbc="T T T"
C       -0.02336957       0.01978724       3.87020928       0.00000000      -0.00755756      -0.01277984       0.00766476
C       -1.23869415       2.14917950       3.86172830       0.00000000       0.01151227       0.00768022      -0.00557516
C       -2.50247847       4.29138224       3.97191816       0.00000000      -0.00738281      -0.00555724      -0.00536711
C       -3.74101521       6.42078829       3.96608630       0.00000000       0.00551714      -0.00322522       0.00193277
C       -4.98044106       8.54406026       3.97046184       0.00000000      -0.00713221      -0.00341911      -0.00069739
C        2.43765591      -0.03324217       3.65614033       0.00000000       0.00607363       0.00325000       0.00498614
C        1.20989476       2.09716337       3.23388261       0.00000000      -0.00181156      -0.00854808       0.01628304
C       -0.11536354       4.32661860       4.08789669       0.00000000      -0.00531184      -0.00076009       0.00412330
C       -1.28363384       6.44565800       4.03576761       0.00000000       0.00323951      -0.00071869       0.00640135
C       -2.50072237       8.55442951       3.90023660       0.00000000      -0.00315499       0.00553673      -0.00533116
C        4.91320647      -0.00623259       3.64290533       0.00000000       0.00118977       0.00649256       0.00495023
C        3.68024377       1.99422243       3.10190093       0.00000000       0.00229513       0.00544121      -0.00085387
B        1.30540365       6.40193976       3.91254048       0.00000000      -0.00188843      -0.00115204      -0.00421693
C       -0.02973510       8.57487489       3.88958276       0.00000000      -0.00480410       0.01226154       0.00771498
C        7.37163005       0.03965310       3.79715261       0.00000000      -0.00140523       0.00070379      -0.00211094
C        6.15797503       2.14378856       3.45369523       0.00000000      -0.00354428      -0.00432058      -0.00600641
C        5.01038059       4.31901320       3.28498795       0.00000000       0.01461466       0.00682500      -0.00888295
P        3.33507239       6.18371253       4.38293477       0.00000000       0.01664102       0.00271319      -0.00683386
C        2.43127228       8.64056751       4.07144700       0.00000000       0.00091703      -0.00707521       0.00025162
C        9.85414337       0.03999967       3.96317434       0.00000000      -0.00213212       0.00032768       0.00244268
C        8.61856905       2.16064236       3.79341139       0.00000000       0.00257699       0.00004777       0.00468307
C        7.39083117       4.28644510       3.72224446       0.00000000      -0.00530024       0.00982893       0.00332606
C        6.12807467       6.40634306       3.91792294       0.00000000      -0.00795869       0.00575422       0.00325680
C        4.89160890       8.56318600       4.13440467       0.00000000       0.00031985      -0.00366804      -0.00556828
C       -0.01873127       1.43796841       3.71336070       0.00000000      -0.00090601      -0.01165701      -0.00608330
C       -1.27152485       3.56574153       3.98847048       0.00000000      -0.00454895       0.00334107      -0.00606678
C       -2.50780236       5.71497996       4.00864500       0.00000000       0.00550429      -0.00963159       0.00628550
C       -3.73906973       7.84137443       3.96103119       0.00000000      -0.00271472      -0.00136841      -0.01285713
C       -4.96866869       9.96221624       3.84945752       0.00000000      -0.00168544      -0.00215691       0.00436457
C        2.45757911       1.34449675       3.30944646       0.00000000       0.00481984       0.00298213       0.00896116
S        1.01767009       3.19471292       1.83265086       0.00000000       0.00203243      -0.00539154      -0.01328081
C       -0.05611039       5.71063301       4.06480535       0.00000000       0.00321353      -0.00939856       0.00078883
C       -1.26791095       7.85901730       3.94213108       0.00000000      -0.00324099       0.00537119       0.00039109
C       -2.48895848       9.96392172       3.74108961       0.00000000       0.00537002       0.00517672      -0.00724794
C        4.92917505       1.40302143       3.39147627       0.00000000      -0.00024497      -0.00299693      -0.01203853
S        3.65897744       3.61121438       2.43127139       0.00000000       0.00346245      -0.00083891      -0.00088217
C        1.21763366       7.91079156       3.95236001       0.00000000      -0.00566528       0.00319029       0.01678668
C       -0.02451346       9.99459283       3.78434769       0.00000000      -0.00060835       0.00980813      -0.00503010
C        7.37688756       1.45475298       3.67671310       0.00000000      -0.00233199       0.00118188       0.00302977
C        6.18624431       3.56416894       3.44361796       0.00000000       0.00001081       0.00036107       0.00177984
C        4.93197532       5.63482913       3.75267484       0.00000000       0.00271161       0.00684504      -0.00832779
C        3.63507416       7.92139828       4.26495348       0.00000000       0.00672389      -0.00356198       0.00674896
C        2.43830852      10.04426385       3.95924118       0.00000000      -0.00278721      -0.00602278       0.00527235
C        9.85428711       1.45377521       3.88555062       0.00000000       0.01302150       0.00520683      -0.00115156
C        8.61583212       3.57815495       3.82813480       0.00000000      -0.00983851       0.00051117       0.00149026
C        7.37015849       5.70421187       3.86911119       0.00000000      -0.00251991       0.00926871      -0.00111420
C        6.12143814       7.83207000       4.04602608       0.00000000      -0.00812792      -0.00134455       0.00757312
C        4.90869050       9.99753331       4.02047523       0.00000000      -0.00705002      -0.00861814       0.01302408
Os       1.81169394       4.20857163       3.74278318       0.00000000       0.00521147       0.00372682      -0.00623368
O        3.21364893       5.44100964       5.84844046       1.00000000      -0.00236381       0.00190578      -0.00092308
O        2.45078698       4.12289901       5.58809722       1.00000000      -0.00296071      -0.01152825      -0.01183187
