51
Lattice="12.336457 0.0 0.0 -6.168228499999997 10.683685154694365 0.0 0.0 0.0 15.0" Properties=species:S:1:pos:R:3:initial_magmoms:R:1:forces:R:3 energy=-443.5313884681507 free_energy=-443.5313884681507 stress="-0.005066479518220507 -0.001452113091834706 9.047771256408993e-06 -0.001452113091834706 -0.003877149004374351 -8.127205797726463e-06 9.047771256408993e-06 -8.127205797726463e-06 -6.941984301929807e-06" pbc="T T T"
C       -0.01475174      -0.00204595       3.75678049       0.00000000      -0.00575546      -0.00355644      -0.00604207
C       -1.26216862       2.11969093       3.92516041       0.00000000       0.00028843       0.00414506       0.00100701
C       -2.52262747       4.26593069       4.03816699       0.00000000      -0.00118565       0.00181706       0.00025923
C       -3.73202723       6.40697071       3.88073155       0.00000000      -0.00080012       0.00433307      -0.00343874
C       -4.95875338       8.53381481       3.68805606       0.00000000       0.00470325      -0.00143801       0.00198945
C        2.45152416      -0.02773808       3.85076708       0.00000000      -0.00072344      -0.00411342      -0.00655846
C        1.23104135       2.10564737       3.87200356       0.00000000      -0.00752308       0.00222773      -0.00984013
C       -0.10391129       4.27915433       4.02278756       0.00000000       0.00094000      -0.00288201       0.00356759
C       -1.28725978       6.42372707       3.97360575       0.00000000       0.00482411       0.00098771       0.00056165
C       -2.48667725       8.53482366       3.83560391       0.00000000      -0.00056683      -0.00200151       0.00138484
C        4.91530545      -0.02495336       3.91906672       0.00000000       0.00339292      -0.00587468       0.00341666
C        3.67294917       2.09450329       4.07469037       0.00000000      -0.00246264       0.00315421      -0.00460444
S        1.07810987       6.77789917       1.80412871       0.00000000       0.00065588      -0.00635578       0.00011793
C       -0.01354336       8.52760060       3.67551216       0.00000000      -0.00335251       0.00091629       0.00172903
C        7.37866881       0.00058595       3.83164468       0.00000000      -0.00075704      -0.00145785      -0.00565415
C        6.13978925       2.13383293       4.04015990       0.00000000       0.00180356      -0.00270935      -0.00046899
C        4.93141263       4.31237319       3.90676681       0.00000000      -0.00102738       0.00372558       0.00798222
S        3.68822761       6.30964598       2.51491712       0.00000000       0.01655495      -0.00847993      -0.00268264
C        2.46594835       8.59921798       3.35344508       0.00000000       0.00490706      -0.00147385      -0.00443407
C        9.85419108       0.00337745       3.74794308       0.00000000      -0.00572631       0.00485733      -0.00199921
C        8.60551341       2.12794397       3.97476528       0.00000000       0.00267213      -0.00271808      -0.00602747
C        7.37186164       4.27196660       3.95476422       0.00000000      -0.00222556       0.00252952      -0.00165725
C        6.16801429       6.40518081       3.58048195       0.00000000      -0.00372753       0.00329369       0.00197722
C        4.93101128       8.56436262       3.44068516       0.00000000       0.00805322       0.00168342      -0.00237390
C       -0.01365064       1.42222749       3.84703540       0.00000000      -0.00527677      -0.00287603       0.00215062
C       -1.30610252       3.53050685       4.03183803       0.00000000       0.00066922       0.00323735      -0.00082417
C       -2.51675764       5.69256751       3.99779017       0.00000000       0.00076947       0.00404769      -0.00513666
C       -3.72266370       7.82584265       3.79953582       0.00000000       0.00098152       0.00145234       0.00942295
C       -4.95255653       9.96058812       3.75114898       0.00000000      -0.00239595      -0.00466390       0.00378984
C        2.46438289       1.39491138       3.92755550       0.00000000      -0.00547564       0.00097889      -0.00775702
B        1.20765306       3.59487673       3.79934989       0.00000000      -0.00449824       0.00595049      -0.00003594
C       -0.13112881       5.66728729       4.05106259       0.00000000       0.00236725      -0.00188118      -0.00132165
C       -1.24704174       7.83620224       3.82115045       0.00000000      -0.00068890       0.00096074       0.01045519
C       -2.48180199       9.95348375       3.86335004       0.00000000       0.00228412      -0.00468653       0.00518337
C        4.90073470       1.40945409       4.02657224       0.00000000      -0.00091134      -0.00248941      -0.00375117
B        3.66405882       3.59808732       4.35792824       0.00000000       0.00627731      -0.00049735      -0.00437633
C        1.22202554       7.84670636       3.24628724       0.00000000      -0.00301174       0.00253958       0.00571509
C       -0.01588684       9.94787055       3.81753725       0.00000000       0.00206941      -0.00149121      -0.00536156
C        7.36943988       1.42067345       3.96563549       0.00000000       0.00324846      -0.00334409      -0.00261963
C        6.13881051       3.56468491       3.99705710       0.00000000      -0.00225933       0.00120795       0.00392842
C        4.98834342       5.63521670       3.45919176       0.00000000      -0.00215809       0.00100319       0.00516508
C        3.68911617       7.94750528       3.16740751       0.00000000       0.01063726      -0.00278788       0.00081970
C        2.44693017       9.98950685       3.67225449       0.00000000      -0.00246015       0.00117192      -0.00609642
C        9.84271539       1.41545854       3.89745129       0.00000000       0.00303135       0.00197254       0.01752129
C        8.59228408       3.55153139       4.01034113       0.00000000      -0.00099693      -0.00216529       0.00001672
C        7.37963948       5.69163738       3.82841746       0.00000000      -0.00436654       0.00596746      -0.00013597
C        6.15489952       7.82854821       3.52252449       0.00000000       0.00623835       0.00208978       0.00211101
C        4.92188993       9.98239295       3.65354097       0.00000000      -0.00643225       0.00259299      -0.00449248
Os       1.77938493       5.65408406       3.63879985       0.00000000      -0.01457061       0.00390153      -0.00277345
O        2.88495416       4.08553586       5.50045091       1.00000000       0.00802383      -0.00900672       0.01251863
O        2.59006692       5.53007793       5.41334529       1.00000000      -0.00405703       0.00620538      -0.00232676
