51
Lattice="12.336457 0.0 0.0 -6.168228499999997 10.683685154694365 0.0 0.0 0.0 15.0" Properties=species:S:1:pos:R:3:initial_magmoms:R:1:forces:R:3 energy=-443.6490180588402 free_energy=-443.6490180588402 stress="-0.0062508320860207986 0.002052692176842517 4.1094708697204196e-05 0.002052692176842517 -0.007877390131772242 -8.581404401898656e-06 4.1094708697204196e-05 -8.581404401898656e-06 1.727729495891416e-07" pbc="T T T"
C       -0.01956791       0.04855478       3.61141118       0.00000000       0.00694852       0.00070186       0.00806718
C       -1.24738174       2.16101925       3.68335241       0.00000000       0.00029904      -0.00298053       0.00378224
C       -2.51548074       4.30536637       3.80042481       0.00000000      -0.00097813       0.00006947      -0.01204514
C       -3.74613434       6.44412137       3.73644300       0.00000000      -0.01694454      -0.00621569       0.00356655
C       -4.97989592       8.56715824       3.61976219       0.00000000       0.00593657      -0.01068796       0.00237768
C        2.44039320       0.01150443       3.76846309       0.00000000      -0.00097946       0.00430691      -0.00957150
C        1.26961827       2.15904847       3.36952793       0.00000000       0.00651448      -0.00495960       0.00401498
C       -0.14287484       4.32593755       3.89934878       0.00000000       0.00943386      -0.00829512      -0.00719680
C       -1.31281899       6.46477055       3.84993147       0.00000000      -0.00654173       0.00712719      -0.00679460
C       -2.50584806       8.57467646       3.82315002       0.00000000       0.00632313       0.01457721       0.00199732
C        4.90765657       0.01082919       3.96064074       0.00000000      -0.00090945       0.00320800       0.00395765
C        3.67009572       2.09227325       4.06833361       0.00000000       0.00022195      -0.00289996       0.00131006
B        1.20586510       6.44712367       3.90290398       0.00000000       0.00210678       0.00986700      -0.00178761
C       -0.02747026       8.58461894       3.92483717       0.00000000       0.00279291       0.00552132      -0.00379330
C        7.37758836       0.04312514       3.93018629       0.00000000      -0.00722293      -0.00690203      -0.00390329
C        6.15215332       2.16038563       4.03445508       0.00000000       0.00073879      -0.00206957      -0.01062630
C        4.96553954       4.31494853       3.95366499       0.00000000       0.00960743       0.00779640       0.00719010
S        3.47748416       6.29017540       2.94571780       0.00000000       0.01634581      -0.00834747      -0.00087493
C        2.44484845       8.62696422       3.75132838       0.00000000       0.00317870      -0.00142807       0.00477565
C        9.85515605       0.04664261       3.73377211       0.00000000      -0.00310755       0.00312618      -0.00185847
C        8.61699745       2.16893558       3.84610752       0.00000000      -0.00360753       0.00435003       0.01262088
C        7.38342361       4.30534901       3.81857894       0.00000000      -0.00190168      -0.00240025      -0.00104595
C        6.13611012       6.43254829       3.57233731       0.00000000      -0.00446560      -0.00307916       0.00405066
C        4.89541031       8.57891546       3.52645911       0.00000000      -0.00143617      -0.00882303       0.00697164
C       -0.01057185       1.47263140       3.58047895       0.00000000       0.00771292       0.00275665      -0.00100140
C       -1.29348854       3.57307979       3.78916178       0.00000000      -0.00032422      -0.00601969      -0.00653955
C       -2.52478221       5.72980650       3.80377531       0.00000000      -0.01240773       0.00247605      -0.00086174
C       -3.74257288       7.86385619       3.71816197       0.00000000       0.00847166      -0.00417402       0.00095073
C       -4.96418736       9.99412089       3.64136310       0.00000000       0.00346996      -0.00700803       0.00387960
C        2.47208674       1.43211386       3.78463955       0.00000000       0.00010482      -0.00192915       0.00280917
S        1.45716981       3.16032881       1.90257462       0.00000000       0.00478389       0.00599544      -0.01004812
C       -0.10884626       5.71242058       3.87847788       0.00000000      -0.00038998      -0.00401599      -0.00598305
C       -1.27192668       7.87732657       3.88001669       0.00000000       0.00345220       0.01327380      -0.00670822
C       -2.49458275       9.98908007       3.86597665       0.00000000      -0.00053401       0.01475227       0.00365375
C        4.91050203       1.43327560       4.04346715       0.00000000       0.00025403      -0.00128887       0.00837179
B        3.76959227       3.55450455       4.54276985       0.00000000       0.00306520       0.00969236      -0.00046494
C        1.22722615       7.91769793       3.88239242       0.00000000      -0.00011612       0.00867143      -0.01533106
C       -0.02513030      10.00589955       3.95315500       0.00000000      -0.00609343      -0.00194810      -0.00462262
C        7.38010755       1.46225873       3.94446239       0.00000000      -0.00070198      -0.00552176       0.01094669
C        6.16490251       3.58769707       3.95517606       0.00000000       0.00388128       0.00124936       0.00450668
C        4.95219123       5.64658236       3.56245393       0.00000000       0.00206971       0.00327674       0.00285347
C        3.64034540       7.92733809       3.48452492       0.00000000      -0.00305039      -0.00894317      -0.00896034
C        2.44881317      10.03967850       3.82462317       0.00000000      -0.00294604      -0.00185462       0.00280863
C        9.85236762       1.46290744       3.75722303       0.00000000      -0.00500699       0.00509666       0.00426181
C        8.60444347       3.58949704       3.81677899       0.00000000      -0.00055431       0.00381889       0.01431833
C        7.36937848       5.72434221       3.70676734       0.00000000      -0.01610740      -0.00737470       0.00445238
C        6.12328327       7.85290427       3.52535174       0.00000000      -0.00029039      -0.00822651       0.00510920
C        4.90973856      10.01497820       3.62692068       0.00000000       0.00140816       0.00040567      -0.00127416
Os       1.73032464       4.47519545       3.65399464       0.00000000       0.01577146      -0.00332901      -0.00420027
O        2.11584504       4.68097814       5.61163851       1.00000000      -0.01032103      -0.00275612      -0.01353265
O        3.33705330       3.93206235       5.88079432       1.00000000      -0.01795451       0.00136129       0.00542116
