52
Lattice="12.336457 0.0 0.0 -6.168228499999997 10.683685154694365 0.0 0.0 0.0 15.0" Properties=species:S:1:pos:R:3:forces:R:3 energy=-454.97480511239485 free_energy=-454.97480511239485 stress="-0.006621060725514647 0.002016111967089561 -1.0162205849813175e-05 0.002016111967089561 -0.003921416771661221 3.1067086135580063e-06 -1.0162205849813175e-05 3.1067086135580063e-06 -1.3584614030988707e-05" pbc="T T T"
C        0.06882149       0.03545519       3.73843739       0.00430120       0.00211536       0.00294047
C       -1.16560226       2.16683842       3.66730277      -0.00066544      -0.00112599      -0.00741602
C       -2.42036654       4.31198230       3.54856915       0.00001434       0.00068257       0.00353564
C       -3.64592400       6.45143892       3.58487893       0.00199597       0.00246235       0.00148003
C       -4.87164523       8.58754108       3.69915993      -0.00462121      -0.00094640      -0.00124818
C        2.54390368       0.04807499       3.81066681       0.00248515       0.00684069      -0.00061675
C        1.31437895       2.14780119       3.91082658      -0.00574625       0.00097006      -0.00934002
C       -0.02785445       4.33521072       3.83663107      -0.00137895      -0.00765421       0.00889998
C       -1.20589713       6.46785334       3.75075525      -0.00382013      -0.00555384       0.00857769
C       -2.40921825       8.59467497       3.73820291       0.00720668       0.00062739      -0.00594424
C        5.00444895       0.04434279       3.78776413      -0.00253562       0.00448073       0.00198520
C        3.80474388       2.20673735       3.93223749      -0.00158442      -0.00135849      -0.00109670
B        1.31555844       6.40133244       4.25600958      -0.00089222      -0.00284261      -0.00316059
C        0.06100110       8.58862411       3.88344555       0.00436587       0.00142742       0.00259860
C        7.47365995       0.03255499       3.73324407      -0.00263216      -0.00540739      -0.00647024
C        6.25238016       2.15207298       3.66261644       0.00020721       0.00495853      -0.00424281
C        5.05670314       4.24989355       3.78828563      -0.00354338       0.00216189       0.00872656
B        3.74698593       6.38837983       4.07213465      -0.00030902       0.00596631       0.00888006
C        2.53250932       8.60167455       3.91575284      -0.00212426      -0.00272960       0.00422045
C        9.94143315       0.03486399       3.69695043      -0.00012101      -0.00298673       0.01276732
C        8.71032365       2.16444383       3.56467857       0.00069472       0.00157294       0.00106218
C        7.47470415       4.30119702       3.53062013       0.00143051       0.00102745      -0.00397595
C        6.24225496       6.43758156       3.67736671       0.00773483      -0.00606282       0.00008418
C        5.00068463       8.58025557       3.78440825      -0.00615206       0.00150319      -0.00286474
C        0.06998884       1.46115540       3.76706197      -0.00261149       0.00035113       0.00286481
C       -1.20005710       3.58767587       3.64313016      -0.00137381      -0.00253511       0.00269383
C       -2.42267037       5.74001425       3.59692131      -0.00263118      -0.00085718      -0.00144469
C       -3.64016041       7.87756948       3.66603123       0.00090424       0.00271261      -0.00179305
C       -4.86323245      10.01540185       3.75524856       0.00401779       0.00342834      -0.01220024
C        2.55710806       1.47419345       3.91027241      -0.00364659       0.00588775      -0.00302977
B        1.27758428       3.62597529       4.11271998       0.00007606      -0.00331886      -0.00167116
C       -0.01670454       5.72936341       3.91433648      -0.00584983      -0.00838766       0.00450078
C       -1.18376911       7.88683091       3.79991818       0.00707851      -0.00289787       0.00162175
C       -2.39983887      10.01845349       3.78615676       0.00141637       0.00334809      -0.00018676
C        5.01768210       1.46813266       3.78757106      -0.00018004       0.00364840      -0.00563454
N        3.90460162       3.57638545       4.06795269       0.00034010      -0.00398069       0.00454739
C        1.30042766       7.90080613       4.01920388       0.00074448      -0.00121011       0.00399964
C        0.06782293      10.01230808       3.79680251      -0.00457494       0.00127546      -0.00648449
C        7.48161821       1.44866590       3.63002223      -0.00011666      -0.00140185      -0.00572769
C        6.26689203       3.55890539       3.60615702      -0.00123451       0.00579720       0.00495970
C        5.04765595       5.67316080       3.80590615       0.00082132       0.00234679      -0.00794919
C        3.75954552       7.89490676       3.91198768      -0.00399962       0.00221922      -0.00212743
C        2.53861025      10.01732094       3.76841582      -0.00137488      -0.00626807       0.00518033
C        9.94328719       1.45560975       3.61902699       0.00062851      -0.00273471      -0.00493341
C        8.70181695       3.58937475       3.51288956       0.00027455       0.00317740      -0.00350814
C        7.46868053       5.72784623       3.56613772       0.00903538      -0.00219977      -0.00107371
C        6.23458770       7.86804359       3.71815288      -0.00542889      -0.00434876       0.00569948
C        5.00467729      10.00793859       3.72985124       0.00287561       0.00150940      -0.00314997
Os       2.62294460       4.91927531       4.93933173       0.00626857       0.00337796      -0.00388197
O        2.46938248       4.91884925       6.79480561      -0.00510416       0.01639475       0.00513819
O        1.55878967       3.79389407       7.14130860       0.00516511      -0.00811022       0.00952740
H        0.91593259       4.28005981       7.69812071       0.00416965      -0.00735245      -0.00531922
