52
Lattice="12.336457 0.0 0.0 -6.168228499999997 10.683685154694365 0.0 0.0 0.0 15.0" Properties=species:S:1:pos:R:3:forces:R:3 energy=-461.4713951005434 free_energy=-461.4713951005434 stress="-0.007241676083592544 6.313222526266092e-06 -2.2682571819021794e-05 6.313222526266092e-06 0.00438692933152965 2.958304695872315e-06 -2.2682571819021794e-05 2.958304695872315e-06 -3.3380202512773e-05" pbc="T T T"
C       -0.01039506       0.06998730       3.76558778       0.00352500      -0.00372891      -0.00528564
C       -1.26527009       2.17411694       3.72148953      -0.01007718       0.00329379       0.00808113
C       -2.50427957       4.32349011       3.61186207       0.00169513       0.00881157      -0.00422259
C       -3.71865067       6.48127914       3.59088359      -0.00593519       0.00439705      -0.00829922
C       -4.93855734       8.63470972       3.67930098      -0.00111624      -0.00698207       0.00103998
C        2.46129123       0.11548378       3.77179758       0.00292014       0.00834951       0.00045139
C        1.21806590       2.24686629       3.87303786      -0.00559271      -0.00340989      -0.01064118
C       -0.08629247       4.33105455       3.81566258      -0.00219892      -0.00410101      -0.00193654
C       -1.29332145       6.48600349       3.70055563      -0.01239157      -0.00196783      -0.00936121
C       -2.48950873       8.63567127       3.69847809       0.01025090      -0.00594338      -0.00528199
C        4.92517130       0.07348177       3.75051242      -0.01360910      -0.00075491       0.00018756
C        3.71915425       2.26111219       3.81147577       0.01089931      -0.00455115       0.00080665
C        1.13425298       6.43256538       4.00510707       0.00671875      -0.01473748       0.00417992
C       -0.01690252       8.59041176       3.80134786       0.01215029       0.00743554      -0.00515645
C        7.39906939       0.01948990       3.75328309      -0.00071316      -0.00133320      -0.00573318
C        6.17248927       2.17684362       3.66840836       0.00688728       0.00119822       0.00052835
C        4.97657881       4.32064799       3.68843356      -0.00945454      -0.00277025      -0.00262056
N        3.80418140       6.43943757       3.88046939       0.01253032      -0.00589480       0.00355604
C        2.46644428       8.53528273       3.86667270       0.00463057      -0.00146131      -0.00336314
C        9.85399448       0.01934006       3.75956969      -0.00106117       0.00543243      -0.01889058
C        8.62311925       2.16805244       3.64454795       0.00125856       0.00882832      -0.00374923
C        7.39897896       4.32553937       3.55968569       0.00232774       0.00512355       0.00200224
C        6.18332366       6.48496046       3.61534282       0.00154658       0.00034060      -0.00688368
C        4.93375806       8.58192234       3.75811552      -0.01374112       0.00118179       0.00058306
C       -0.01529019       1.49381098       3.78983277      -0.01058397      -0.00233986      -0.00331002
C       -1.29454354       3.59719704       3.69042342      -0.00214904       0.00286638      -0.00173556
C       -2.50344829       5.75896686       3.61580973      -0.01367980       0.00343907      -0.00366356
C       -3.71365438       7.91480875       3.64788374       0.00536342      -0.00181906      -0.01250417
C       -4.93684595      10.06546069       3.74382651       0.00819434      -0.00259426       0.00499302
C        2.46771118       1.55028886       3.83884768       0.00394334       0.00732388       0.00361878
C        1.13239821       3.65109394       3.97776466       0.00493185      -0.00344685      -0.00437794
C       -0.08608499       5.75250307       3.82399950      -0.01197649      -0.00330937       0.00206805
C       -1.26669786       7.90964168       3.72911355       0.01141096      -0.00102875       0.00874702
C       -2.48274175      10.06535261       3.74093617      -0.00671962      -0.00503759       0.01738949
C        4.93301460       1.50177630       3.74042487       0.00784905      -0.00325351       0.00537287
N        3.80668092       3.64235807       3.85626513      -0.00035668      -0.00985178       0.00373026
C        1.21730615       7.83960922       3.89483565       0.00966224       0.00086828       0.00973750
C       -0.01068883      10.01436264       3.76756234      -0.00888307       0.00937652       0.00062297
C        7.39720252       1.44944100       3.67842010       0.00656615       0.00058922       0.00770391
C        6.18428159       3.59822721       3.60745188      -0.00214046       0.00487315      -0.00066320
C        4.97705665       5.76267770       3.69875896       0.00179849      -0.00123815      -0.01278323
C        3.71961784       7.82434901       3.84129387      -0.00019645      -0.00930921       0.00992391
C        2.46100577       9.97047388       3.79357953       0.00306792       0.00022024      -0.00752287
C        9.84802985       1.44817864       3.70074416      -0.00596802       0.00579847       0.00262393
C        8.61746511       3.60060529       3.58424675       0.00497047       0.00964084       0.00726861
C        7.39888178       5.75669591       3.56232990       0.00165590       0.00330366       0.00667701
C        6.17300690       7.90698888       3.67608995      -0.01352728      -0.00096318       0.00273202
C        4.92513266      10.01094361       3.76367723      -0.00238181       0.00295490      -0.00079939
Os       2.44282549       5.04196803       4.53333278      -0.00315560      -0.00653122       0.01083528
O        2.40292154       4.80552675       6.38925583      -0.00355282      -0.00284935       0.00370026
O        3.27960297       3.64306208       6.74848142       0.00758621       0.00157184      -0.00738787
H        2.96249102       3.52634583       7.67015072       0.00682113       0.00398952       0.01701177
