51
Lattice="12.336457 0.0 0.0 -6.168228499999997 10.683685154694365 0.0 0.0 0.0 15.0" Properties=species:S:1:pos:R:3:initial_magmoms:R:1:forces:R:3 energy=-694196.4652620275 free_energy=-694196.4652620275 stress="124.70639419682375 -387.2889113419511 -535.9254161908827 -387.2889113419511 -659.513833885943 -1079.9165183269786 -535.9254161908827 -1079.9165183269786 -1286.5493476025772" pbc="T T T"
C       -4.14204051      -2.48534282      -1.72020347       0.00000000       8.38072500     -45.63299009     -87.55808111
C       -0.52853851      -6.08561203       1.35178928       0.00000000    -442.03009890      70.23186905     574.87542851
C       -0.37194774       0.87473748       4.34932958       0.00000000     599.28004920     711.70733378     699.03719374
C       -6.46953679       3.50307259       2.05662292       0.00000000    -549.46694467     367.72420718     859.86170721
C       -2.60712241       3.48373653       1.94996193       0.00000000      -2.24759708       6.08199453      19.32190321
C       -4.19299431      -1.44874321       2.66203579       0.00000000     -18.84615833    -692.28110195     243.63759399
C        1.41635867       4.01341948       6.61764197       0.00000000   80886.80398248 -103602.21988436  -77184.88263530
C        1.60219435       3.15021489       6.64299054       0.00000000  210655.92092402  171569.70309227   -5161.77713627
C        0.64439548       5.56869194       6.26186690       0.00000000   71616.09564056  -22829.54262551   37603.08178611
C       -6.95037968      10.84902256       4.43187335       0.00000000     297.13059192     431.17581752     419.92897467
C        7.28350181       3.68531216       1.13284667       0.00000000    -208.65507161      85.65934059      48.76101946
C        2.76623856       3.71624909       6.27638048       0.00000000 -246990.84926640  -24073.21987075 -756127.35887083
C        3.68924055       9.45548469      -0.96118554       0.00000000       5.94421506       5.54651485       0.59454509
C        3.71589751      10.47772464       7.27279828       0.00000000     158.09747460    1677.61906231    -199.76636504
C        9.27176228      -2.75933025       2.30132324       0.00000000    -650.03177843    -979.87368349     711.73646127
C        7.90691158       3.21310329       1.23220893       0.00000000      74.49006948     -64.32766269      44.66570910
C        2.75716563       4.72471557       5.14683680       0.00000000  449203.58794696   71363.04136967  685351.65637563
N        3.80236966       6.09486861       8.85419223       0.00000000 -295058.07156429 -322546.96256817 -428643.03515737
C        2.40990099       3.20163718       3.58473603       0.00000000    5275.25304896    2369.98466573   -2794.64706446
C       10.41223054      -2.75866345      -2.20499337       0.00000000     444.11157878    1107.18626480    2135.31110320
C       10.68913055       3.84377007       4.23131652       0.00000000    1201.97817590     174.95073286     680.18596327
C        7.30455383       2.72383494      -0.44022706       0.00000000       5.55152156      -3.29591522      -4.51933990
C        2.98904919       5.50834695       5.16043198       0.00000000  -96158.55669853 -108084.23174464  -55328.32948557
C        2.33333805       5.71628160       4.31247512       0.00000000    4208.95980441  -65284.90005719   69383.01987802
C        3.67260551       0.14410424       7.66693777       0.00000000     194.85247845     239.15906734    -697.35410802
C        1.83384334       9.27154668      -0.05954737       0.00000000      -0.01802621     -10.72783626       0.89217181
C        0.38519402       6.33818966       2.54178706       0.00000000    2910.51005149   -1066.40680760    1692.04353335
C        1.85900812       7.75722105       3.30008030       0.00000000     824.07100629   -4823.58482359    -317.03916055
C       -7.69408471       9.51960721       0.65154494       0.00000000       8.47981598      -1.22187889     -13.19225193
C       -0.15276252       2.59848805       6.69618958       0.00000000    1275.35800042   -5062.33467441    8735.76102122
N        2.32335484       3.92640277       5.90717020       0.00000000 -114704.74611520 -122555.96979568  307264.39360234
C        6.37074754      12.05843005      -7.12478332       0.00000000    3274.36439563    5335.88616802   -4987.38341687
C       -6.87861394      10.63796226       3.32890594       0.00000000     -71.52948887    -139.60090961    -153.27230300
C       -2.88416618      12.07235192       3.93279719       0.00000000   -5369.96731768   -6263.40062898   -6625.46576796
C        2.75642314       3.36422623       6.56508018       0.00000000 -239728.82469062 -296744.78994340  156058.72323519
C        4.17554147       3.56361364       7.59537227       0.00000000  138086.12219485 -156650.77659396   47316.43065148
C        3.18063197       1.64355885       4.33126330       0.00000000    1597.79226345   20565.00127455   16803.37424989
C       -0.87185980      11.68897567       5.60987815       0.00000000   -1212.50101393    1734.47180771     841.71234978
C        6.13868198       5.13125865       2.75153301       0.00000000   -1235.70362181    -168.81020145    2138.84732952
C        2.99307924       4.54852949       5.49223440       0.00000000 -329070.66578892  124190.86009709 -912455.18514242
C        2.15265090       5.10265266       5.31108293       0.00000000  184167.03633604 -115032.51300444   64510.48851078
C        1.09910040       8.35810352      -2.67996752       0.00000000    -312.48488511     437.11570281     660.46069378
C        4.74611070       6.40220403      -2.41329201       0.00000000    1387.79762368     723.87574928    4757.09180631
C        9.72248204       2.02711348       7.60981881       0.00000000     487.02107833      89.23909514    -112.81587045
C        4.50720665       5.07905624       4.96866659       0.00000000  -77842.25228129   -4665.48521808   70529.49163488
C        5.95526787       4.75451166       5.23838212       0.00000000  -13092.52883490    5116.32173224   11814.30133073
C        2.57721247       8.06327292       6.40880685       0.00000000    -686.32320113    3065.92190526   -3241.74091537
C        5.73264109      12.27256963       6.08818475       0.00000000    3959.78088116    1576.07835553     221.18440777
Os       3.13582164       5.29142847       7.64399188       0.00000000 -4052695.19149583 -4234183.00891246 -8217217.72959428
O        9.90644766       8.67451643       9.71946959       1.00000000      -2.37994211     -57.36101479      77.07864245
O        3.29064607       5.48443972       7.97101897       1.00000000 4313289.10000717 5182617.93712755 8979155.10185293
