52
Lattice="12.336457 0.0 0.0 -6.168228499999997 10.683685154694365 0.0 0.0 0.0 15.0" Properties=species:S:1:pos:R:3:initial_magmoms:R:1:forces:R:3 energy=-794874.3203038487 free_energy=-794874.3203038487 stress="859.8976723327697 -49.49709200051895 -382.07538760241215 -49.49709200051895 -205.82019236130614 -640.8205198935864 -382.07538760241215 -640.8205198935864 -529.815817895492" pbc="T T T"
C       -0.19998260       3.49520778       4.73741701       0.00000000    1102.77169422     657.13776730    -107.16840603
C       -1.64540232       4.71789962       5.96495083       0.00000000     182.10159539     345.77879734    -306.64808946
C        4.85174275       2.23295646      -1.29186380       0.00000000      -1.68526720      -2.17823130      -1.78639106
C       -4.59946393       7.37233812       3.82435373       0.00000000 -816914.63816545  681574.86794654 -735221.02495061
C       -5.01876964       7.53148888       3.63699657       0.00000000 -735001.03258811    4960.87349801  700478.17109544
C        1.52331964      -1.21057749       0.95877873       0.00000000   -1120.79659439    -712.71050741    1384.87852265
C        2.49375458       6.32270649       4.74575437       0.00000000   21963.59119643  118415.52747550  -38934.49007439
C       -1.74464075       2.37196366       8.54473443       0.00000000     473.39435795    1064.98821877    1525.64148022
C        2.32273835       6.64639901       4.63530121       0.00000000  110776.82139695   75314.85804011    -665.87784581
C       -6.31650821       7.52212403       2.32949441       0.00000000  -14735.80676083   10874.33795818   30642.19376038
C        8.48109427       3.41370058       1.24400354       0.00000000    -129.42621510    1271.19410727     908.28774382
C        2.84658089       5.94765887       2.61251462       0.00000000   -2103.31122228  -13417.80320503  -19665.93492963
C        3.72136522       6.66385781       4.38400797       0.00000000 -105085.02560221    9405.61425911  -13478.01092125
N        1.86184778       3.60010176       2.16134508       0.00000000     718.22054641    2451.29329058    1514.27189615
C        1.33338988       7.00455909       4.78488456       0.00000000   89318.56702011   24753.07699991   -1789.52282351
C        8.19286784      -2.21034352       3.74251086       0.00000000   57839.70801006   -5203.03406942    2540.70143385
C        4.42431214       2.84312261       6.59684951       0.00000000     -37.61158029     513.80282077    -521.80367123
C        5.54015090       4.52235508       6.68592571       0.00000000    1068.75748778    4263.03038056   -3921.48527473
N        2.23765972       7.39287144       3.81677761       0.00000000  188157.37498197   31831.61052610  255975.15597735
C        2.38622499       9.06292288       2.93784905       0.00000000  -11763.61925354  -42412.48797325   52674.53496046
C        9.35478566       0.52704640       4.05591859       0.00000000   -2125.30555088   -6602.36395284    5981.38378048
C       10.10255028       2.31456608       3.78059002       0.00000000    -669.54255200    1349.67495731    -431.70426460
C        5.18677567       3.90286409       5.49403827       0.00000000    2118.33033151    1540.81831648   -3143.05431010
C        4.45967546       6.43145222       5.21366737       0.00000000    2715.37145608   11444.69556958  -17930.95240825
C        2.79080649       8.53529141       3.59472888       0.00000000  -28152.57775014  -67913.98373261    1722.40907890
C        0.02813250      -1.56385293       4.55844229       0.00000000   35690.56166899 -140532.75367099  -53798.90390735
C       -6.31439351       5.20560363       4.79108488       0.00000000   -4458.88359127  -32392.29961418     955.45042452
C        1.48109100       4.38631361       3.81663297       0.00000000   -1334.14712214   -2346.14030924   -2798.03947498
C       -4.46189297       6.92304430       4.04844306       0.00000000  247855.46891130 -647956.80045939  304399.71126617
C       -5.55380620       7.42311913       4.01154027       0.00000000  321932.57992767   33477.28950833 -866067.50964806
C       -0.70701911      -3.73556820       2.95048771       0.00000000   53239.55385339   92353.54358489   52049.04167414
C        2.61909480       4.36114948       5.05628132       0.00000000   -3161.33889655   58909.56733069   -9770.05972415
C        2.60360404       3.37363219       2.75975449       0.00000000      29.87109175    1680.45944816     544.93286177
C       -4.63638329       7.64139998       4.81144043       0.00000000   61655.98504656 -158118.19323007 -377490.90620166
C       -4.53678415       7.30474738       4.31142377       0.00000000  504738.07872794  192707.25542106  980291.29628327
C        8.25723294       0.06570671       3.96358458       0.00000000    3770.46834412   -3249.78606574    7907.02489692
C        3.11051754       6.96597820       3.76150092       0.00000000  -11336.51764688   43054.16866999  169201.61359945
C        1.08131969       4.70297107       2.36752575       0.00000000    2941.88627638    4197.29100455    2507.29069560
C       -2.82814639       4.09541704       3.94889687       0.00000000    5655.08600974   -9024.41636003    -806.46191510
C        9.47090879       5.08823077       2.39503182       0.00000000    6712.29967369   -4517.14952995   -8166.16262403
C       10.40521844       4.24684124      -2.04976547       0.00000000       0.07741920       1.23080248       5.86823041
C        5.20847017       6.81828723       4.13920553       0.00000000  -22484.83432780   54671.70769742   -1422.89808350
C        5.08498426       7.81148912       3.67459322       0.00000000  108907.60417000    7047.39178256    2648.41565554
C       -2.27000504       7.97358083       1.50397803       0.00000000    4313.21397841     586.28363039   -4680.32557872
C       11.44209657      -3.16892187       3.12604946       0.00000000   -5643.09937622  -17882.95821752  103933.81760590
C        5.47250717       5.36998582       2.36460015       0.00000000    4453.89350572    6564.37558222     700.04722950
C        7.73235597       8.33220052       0.68245066       0.00000000   -2454.98158471    -762.92195730   -1227.43643747
C        5.26064108       8.44775202       4.33284183       0.00000000  132256.13402547 -105646.95248275  -62935.10458881
C        5.03848362       6.74738031       5.45388855       0.00000000  -45591.46386635     354.51435742  -61036.04627026
Os       3.20647224       8.46026190       5.93778562       0.00000000 -1318090.48477373 -5418662.21173357 -7446384.81861554
O        4.15793471      11.42820327       8.58649986       1.00000000    6833.39665075   22017.37098409   17072.50401081
O        3.26922947       8.71083461       6.27974631       1.00000000 1154974.96093213 5177701.51456892 7035139.49326660
