52
Lattice="12.336457 0.0 0.0 -6.168228499999997 10.683685154694365 0.0 0.0 0.0 15.0" Properties=species:S:1:pos:R:3:forces:R:3 energy=-461.5254429755554 free_energy=-461.5254429755554 stress="-0.0059139430830944415 -0.00023161384970638355 4.619965486293145e-05 -0.00023161384970638355 0.004693341222093453 2.6495179000486704e-05 4.619965486293145e-05 2.6495179000486704e-05 8.605534953139701e-06" pbc="T T T"
C        0.00010361       0.01412967       3.76021747       0.00056524       0.00397659      -0.00249230
C       -1.24979370       2.12490091       3.72702414       0.00619933       0.00304624       0.00622022
C       -2.47874659       4.27241595       3.59400305       0.00613725       0.00536277       0.00346513
C       -3.69810466       6.42708896       3.54855551       0.00118428      -0.00373209       0.00037637
C       -4.92459789       8.57805642       3.64762697      -0.00273556      -0.00829524       0.00411005
C        2.46931652       0.04620563       3.77737771      -0.00602019      -0.00504890      -0.00309209
C        1.22669306       2.18592484       3.88693281      -0.00084087      -0.01061622      -0.00087867
C       -0.04705192       4.29173991       3.79691717      -0.00416219      -0.00199022      -0.00426745
C       -1.26615952       6.43612344       3.63447003       0.00186539      -0.00178214       0.00068920
C       -2.47168104       8.57609796       3.65645217       0.00633171       0.01361832       0.00663745
C        4.93751172       0.01443758       3.75193747       0.01285374       0.00326707      -0.01356629
C        3.70947399       2.18975712       3.85414997      -0.00262055       0.00433570      -0.00443734
N        1.11878088       6.38566286       3.90174610       0.00145365       0.00500613      -0.00065264
C       -0.00203047       8.52788754       3.74636539      -0.00262934      -0.00707166       0.00177907
C        7.41062978      -0.03541312       3.73961580       0.00319243      -0.00855907      -0.00309677
C        6.18530604       2.12639856       3.69142746      -0.00922099       0.00283311      -0.00245793
C        4.97969378       4.29390971       3.72020083       0.00743253       0.00300697       0.00158408
N        3.82600334       6.39240354       3.85247634       0.00351164      -0.00056066       0.00435434
C        2.46951435       8.46412751       3.82398506       0.00141044      -0.00033036      -0.01645317
C        9.86196275      -0.03585439       3.74083315       0.00693607      -0.00618564       0.00924998
C        8.63619971       2.11672036       3.64736671       0.00001832       0.00248538       0.00054855
C        7.41613399       4.27254916       3.56118344      -0.00377546       0.00161232      -0.00048459
C        6.20748306       6.43875491       3.57993453      -0.00355112       0.00180841       0.00300801
C        4.94355810       8.52982838       3.72492403      -0.00274110       0.00490839       0.00463759
C       -0.00549088       1.43851221       3.79861853       0.00404369       0.00248230      -0.00714488
C       -1.26259395       3.55383230       3.68777944       0.00011083       0.00057534       0.00158410
C       -2.47929568       5.70495720       3.57248831       0.00391421       0.00121783      -0.00315694
C       -3.69841342       7.85841841       3.60256413       0.00677807       0.00083803       0.01108411
C       -4.92720029      10.00524253       3.73493710      -0.01009552      -0.00544205      -0.01464078
C        2.46810787       1.47686956       3.86548211       0.00039224      -0.00650322      -0.01120754
C        1.16461720       3.61077287       3.97718248      -0.01306774      -0.01213500      -0.00883065
C       -0.06058772       5.71999958       3.75660363       0.00130618       0.00084708       0.00112863
C       -1.24691555       7.85276898       3.66853513      -0.00358156      -0.00332664       0.00461536
C       -2.47066895      10.00397555       3.73136298       0.00808724       0.01431533       0.00450900
C        4.94237617       1.44002917       3.76864111      -0.00409765       0.00365786      -0.00101849
C        3.76883592       3.61610985       3.91307859       0.00739810       0.00820317      -0.00154945
C        1.21213186       7.77062208       3.82881818      -0.00088457       0.00454418      -0.00295873
C        0.00301620       9.95763836       3.74488625       0.00650810      -0.00839546       0.00617704
C        7.41153439       1.39694964       3.68467633      -0.00796744       0.00010483       0.00176557
C        6.19772519       3.55436342       3.62987054      -0.00072440      -0.00133032       0.00313627
C        4.99719372       5.72565629       3.68188191       0.00161783       0.00172055      -0.00649804
C        3.72963235       7.77121432       3.80252699       0.00248364       0.00200580       0.01010394
C        2.46813463       9.90711065       3.76779630       0.00543923      -0.00430863      -0.00302850
C        9.86084828       1.39658438       3.69808047       0.00754016      -0.00559513       0.00366123
C        8.63648708       3.54983748       3.58401982       0.00256063       0.00921918      -0.00303932
C        7.41973538       5.70554226       3.53974217      -0.00341971       0.00143638       0.00589014
C        6.18816461       7.85470050       3.64086217      -0.00780330       0.00055732      -0.00042486
C        4.93472365       9.95786093       3.74207953       0.00808230       0.00260203       0.00574529
Os       2.47174975       4.98456261       4.53353607      -0.01255757       0.00286376       0.00760128
O        3.16622362       5.16273397       6.27397580      -0.01189929       0.00534550       0.00969543
O        2.22713410       4.53344230       7.24119543       0.00263395      -0.01078998       0.00323403
H        2.66010098       4.84054610       8.06791568      -0.01359233      -0.00580528      -0.01121403
