53
Lattice="12.336457 0.0 0.0 -6.168228499999997 10.683685154694365 0.0 0.0 0.0 15.0" Properties=species:S:1:pos:R:3:forces:R:3 energy=-462.93852346117257 free_energy=-462.93852346117257 stress="-0.0031167949260706373 -0.000606587788940516 1.2662014182511226e-05 -0.000606587788940516 -0.006750149124590124 -9.927577049878342e-06 1.2662014182511226e-05 -9.927577049878342e-06 2.0789923033931173e-05" pbc="T T T"
C        0.10057946      -0.03373890       3.83934636      -0.00420822      -0.00671642      -0.00276870
C       -1.13349009       2.10287640       3.94233138       0.01113955      -0.00444680       0.00017807
C       -2.36884677       4.24754117       3.94228963       0.00217893       0.00174023       0.00015563
C       -3.59408520       6.38332360       3.85606365      -0.00412080      -0.00101802       0.01568375
C       -4.83909334       8.51103840       3.75822102      -0.00405278       0.00577859       0.01575857
C        2.56488346      -0.04629354       3.95518289       0.00960438       0.00344885       0.01450611
C        1.33130066       2.06693704       3.99962065      -0.01072302       0.00936752       0.00139022
C        0.09534113       4.18948858       3.84427384      -0.01312256      -0.00120354       0.00911353
C       -1.13118772       6.38876737       3.76619989       0.01283300       0.00178032      -0.00776162
C       -2.36997791       8.51691711       3.84845944       0.00269990       0.00070870       0.00563643
C        5.02784356      -0.02470590       3.95447804       0.00999140       0.00263201      -0.00362576
C        3.79392172       2.10175299       4.06085014      -0.00430359      -0.00478177      -0.00372107
C        2.53393009       4.19105338       4.06140584      -0.00118831       0.00753328      -0.00584371
P        1.18629319       6.41058179       2.19528045      -0.00256795      -0.01129390      -0.00045632
C        0.07308358       8.55806192       3.61759977      -0.00051151      -0.00431640       0.01033241
C        7.49469795       0.00560320       3.82296785      -0.00171614      -0.01187109      -0.00654045
C        6.26393001       2.11361919       4.04096285      -0.00047679      -0.00446457      -0.00199594
C        5.03931326       4.23354192       3.89577344      -0.00803777       0.00467845       0.01491132
P        3.68301836       6.25725398       2.64684404       0.01110962       0.00692702      -0.00376497
C        2.58643129       8.65317806       3.26263010       0.00075451       0.00536078      -0.00022649
C        9.97799677       0.00296945       3.74299935       0.00339034       0.01320021      -0.00771394
C        8.73504550       2.11928419       3.96894778       0.00084986      -0.00049293       0.01666655
C        7.50382221       4.25222893       3.95963758      -0.00710643      -0.00506743       0.00378728
C        6.27847524       6.37508127       3.64596323      -0.00426117      -0.00125518      -0.00604473
C        5.05637877       8.55777315       3.45396499       0.00000333      -0.00495132      -0.00075955
C        0.09701816       1.38213596       3.93794315       0.00182163      -0.00775930       0.00387903
C       -1.14084850       3.52172418       3.92977898      -0.00509941      -0.00880123      -0.00080327
C       -2.35201439       5.67653905       3.88419765       0.00779669       0.00572813      -0.01068841
C       -3.59934688       7.80374015       3.82689310      -0.00446572       0.00314964      -0.00207738
C       -4.83608989       9.93268270       3.84995120       0.00415645       0.00708996       0.00408937
C        2.56734673       1.37283865       4.02961516      -0.00859583       0.00543738      -0.01192960
C        1.31700897       3.48696637       3.97567513      -0.01230640       0.01083826      -0.00643554
C        0.12952899       5.63188446       3.66849715       0.00956468      -0.00571266      -0.01357687
C       -1.12648387       7.81012818       3.74016065       0.00078582      -0.00193861      -0.00330131
C       -2.36789203       9.93552136       3.92722885       0.01403337       0.00226775       0.00618592
C        5.02903994       1.39678606       4.03701959       0.00126985      -0.00107283       0.01031778
C        3.78558072       3.53235170       4.02230897      -0.00356130      -0.00314776      -0.00032896
C        1.34063262       7.89564341       3.28480599      -0.00218585       0.00610611      -0.00287075
C        0.09094369       9.95854661       3.81608097      -0.00145507      -0.00601678      -0.01407285
C        7.49769224       1.41050403       3.97206698      -0.00114609      -0.01069298      -0.00422419
C        6.27211529       3.53331822       4.00813538      -0.00846790      -0.00215130      -0.00459587
C        5.08871201       5.60575200       3.55154576      -0.00166776      -0.00033846      -0.01531664
C        3.80599831       7.96152750       3.13701903       0.00255559       0.00371398       0.00905313
C        2.56580878      10.01509928       3.61488662       0.00546258       0.00584310      -0.00744553
C        9.96999054       1.40754699       3.90799338       0.00852765       0.01106066      -0.00230351
C        8.73710359       3.54149417       3.98218241       0.00020824       0.00065698       0.01473553
C        7.50941441       5.67149401       3.84308160      -0.00695126      -0.00613573      -0.00093862
C        6.27151405       7.80847553       3.58744563      -0.00090383      -0.00334581       0.01139337
C        5.04129579       9.96511316       3.68001112      -0.00585134      -0.00288608      -0.00246681
Os       2.02399850       6.17095246       4.32602995       0.01104029      -0.00894828       0.00227678
O        2.18648650       6.29688209       6.15837277      -0.00371572       0.00065445       0.00106266
O        0.85558636       6.80569194       6.62183697       0.01139596       0.00148692      -0.00763065
H        0.85989531       6.39122237       7.51204996      -0.01040311       0.00363790      -0.00888344
