51
Lattice="12.336457 0.0 0.0 -6.168228499999997 10.683685154694365 0.0 0.0 0.0 15.0" Properties=species:S:1:pos:R:3:initial_magmoms:R:1:forces:R:3 energy=-739742.2352586956 free_energy=-739742.2352586956 stress="1359.7121333781715 -455.77559840303036 762.5896745626812 -455.77559840303036 1186.6519847264262 479.10789345744234 762.5896745626812 479.10789345744234 -1582.1564432463692" pbc="T T T"
C       -0.47680495      -1.84549796       1.06833642       0.00000000  -13097.98943347  -67182.75285036  -53910.59506976
C        0.01753624       5.29776416       3.56999772       0.00000000   -3337.90064400     -87.31719138     376.66162491
C       -8.36062041       1.39514235      -4.60386582       0.00000000      -1.43111036      -1.56076190      -1.26401342
C       -5.02621391       9.62038484       3.00050991       0.00000000    1925.26605491   -5912.99640206   -6497.21546992
C       -6.50877416      12.43783315       2.03168932       0.00000000   -8401.99479012  -16148.44162087    4892.32162894
C       -0.49251264      -2.09366417       2.24775109       0.00000000  269268.73558016  158222.40915746    4046.92464921
C        2.56689072       0.26730661       7.80777447       0.00000000      -9.32125976      -8.17823559     -12.62897358
C        0.95450157       7.22638646       3.06427614       0.00000000  256702.13354742  255015.29153710 -108020.05445916
C        0.66717227       8.17542270       3.55289930       0.00000000  314644.79947928  145643.45346834 -166139.16685355
C        1.55726679       7.05119415       5.24946056       0.00000000    5057.22746699   58108.71464793    6038.83009339
C        2.94501676      -0.07671662       3.00202780       0.00000000   -3087.03427942   -2049.25128892     -60.10878751
C        0.97786801       2.18527221      -0.23478972       0.00000000    -264.23268430    -354.88340517     270.04520205
S        4.68096997       7.08150536       0.00354864       0.00000000  160416.00850043  -11804.25988388 -324992.80876305
C        1.84539859       7.94260562       4.02847271       0.00000000 -4664375.29370149 4791612.05566623 2839008.60893362
C       -0.21060852      -0.93055787      14.03353522       0.00000000    3566.78761905   -2611.05207945    1188.38050298
C       11.33224617       1.32429426       6.29248585       0.00000000    -457.98444623    -587.37298576   -1122.67522727
C        5.30208464      10.52620163       2.21834926       0.00000000  -75329.17082632  -54196.04234032  120299.39293689
C        3.02027999       9.86637838       4.36512886       0.00000000  -26324.64707910  -69311.90880240 -128892.49342275
C       -4.93412713       9.80107252       5.41591413       0.00000000    1295.24043348     446.12217534     759.78465798
C        8.47472353      -0.91713249       2.72325093       0.00000000  -12383.23542209 -154076.39177726   64540.74928991
C        7.19385184       0.71119207       4.51539343       0.00000000    5099.65783428  -14858.13798785   -8927.50788585
C        2.82896543       4.55128411      11.41841346       0.00000000     -10.19129059     -14.71637995     -25.20647530
C        9.73657536       8.54170300       5.30725162       0.00000000    2058.01892972     -90.89706445    -805.95115889
C        5.00788619       8.08527214       0.21141965       0.00000000  -30736.15188639  -45301.18902309  -84946.31243397
C        1.56986310       2.20985447       3.13982358       0.00000000    -926.77401606   -1032.30548273     126.10228625
C       -4.58705478      -1.30250061       3.55449731       0.00000000   30218.09589601 -221546.38194972  217238.25729082
C        1.64536167       3.73462677       4.34096880       0.00000000   -1216.92995217   -1932.79083455     213.17329136
C       -0.09713825       6.58046994       1.80401258       0.00000000   12830.95328867    1199.08111728    -652.00570426
C       -6.95674020       9.38724320       3.57953144       0.00000000  -31975.57119909   26186.27723015    5197.63177464
C       -1.73178150      -4.37356786       6.77472447       0.00000000    1111.63880873   -1518.87726352    4555.39079799
S        3.50295227       4.11667726       1.77621826       0.00000000    1118.91511408   13738.01671381    9683.81470529
C       -0.95766473      -1.16887117       9.68145633       0.00000000       0.89543021       4.61682733      15.91320461
C        3.02931089       8.57781459       2.42192752       0.00000000  261104.46924849 -379580.19493979  -60021.65192720
C        0.81379157       8.94185848       3.64637544       0.00000000  291258.60018777 -138866.24613364  -38534.88548129
C        8.20382586      -1.50653755       4.20617001       0.00000000   59751.82618896 -194694.95634782 -462956.82511968
N        5.28095205       4.10908700       3.00955510       0.00000000   -6263.04731575   18908.56162536  -11872.49428042
C        1.84376067       7.93160167       4.04498598       0.00000000 4641570.32226782 -5136668.52078200 -2832599.31398399
C        2.16836003       8.01204100      -0.70825978       0.00000000   24247.05171069   -8148.71974453   42549.78526068
C        2.62423949      -0.34059646       9.27547553       0.00000000       2.04856641       4.12961943       0.35955902
C        4.64889167       1.40649194       3.12169744       0.00000000     457.42036656    -401.50633102     136.71394766
C        4.51745150      10.53003434       3.21315531       0.00000000  112772.10272143  -97005.32186849  -79421.48568543
C        3.94821253      10.04577328       3.46031743       0.00000000   73288.44208520   29357.90677248  -81229.13878488
C        2.55948366       8.80378687       4.04425027       0.00000000   -3871.71483103  274947.83371431  -56741.71961715
C       13.97159043      -0.58745707       6.12591450       0.00000000    -376.15893514    -175.98874144    -703.56364288
C        1.80163310       2.21961184       7.10756008       0.00000000      -5.19196211      75.28481608      -3.49652057
C       11.42709825       9.41754528       5.53605122       0.00000000    5039.24761504   -3100.04474500   -5413.35179213
C        5.58632766       8.08547009       0.43781275       0.00000000  -57171.31445664   31515.22558369  125980.07540421
C        4.92513955      10.62180224       2.92896827       0.00000000 -146202.49194191  -50183.49061919    6134.04218786
Os       3.78297650       7.44103408       2.14444362       0.00000000 4645510.15821283 1219197.50197448 -10851046.05000548
O        5.13643595       7.49740340       3.16478627       1.00000000 -716134.40277329  -20333.75812502 -218925.43624504
O        3.58578213       7.43098314       2.50857873       1.00000000 -5378355.88691780 -324396.02865773 12131222.44855411
