52
Lattice="12.336457 0.0 0.0 -6.168228499999997 10.683685154694365 0.0 0.0 0.0 15.0" Properties=species:S:1:pos:R:3:forces:R:3 energy=-450.75545931405054 free_energy=-450.75545931405054 stress="-0.003126859715292604 -0.005542910946370874 -1.5130968338193509e-05 -0.005542910946370874 -0.003432637099883924 -3.174516815814016e-05 -1.5130968338193509e-05 -3.174516815814016e-05 1.8425477323316088e-06" pbc="T T T"
C       -0.01278084       0.03337218       4.04377353      -0.00068082       0.00248472       0.00733810
C       -1.29348566       2.12731123       4.13602519       0.00022561       0.00849875      -0.00021702
C       -2.51609027       4.29718529       4.12492428       0.00348871      -0.00306034      -0.00093466
C       -3.67573079       6.44813680       4.00967111      -0.00252565      -0.00125712       0.00648160
C       -4.90825049       8.59822834       4.00775572       0.01118196      -0.00285549       0.00647723
C        2.45993626       0.04703416       3.93770109      -0.00133075      -0.00687110      -0.00996233
C        1.17095077       2.19020570       3.92959175      -0.00784741       0.00127319      -0.00094521
C       -0.10779456       4.20117868       4.09332465      -0.00090264      -0.00397239       0.00368400
C       -1.18426597       6.40952994       3.97078804       0.00314147      -0.00079718      -0.00277198
C       -2.43581214       8.57123885       3.91275858      -0.00188874       0.00819927       0.00393939
C        4.91403622       0.04184484       3.75838895       0.00334817      -0.01111371       0.00911116
C        3.63495493       2.13805756       3.55374825       0.00042178      -0.01658200       0.00436096
S        1.31571846       6.66775103       2.07354160       0.00034675      -0.00197947      -0.00840728
C        0.00492452       8.57550788       3.61918952      -0.00030632       0.00808895       0.00672275
C        7.37273101       0.04694987       3.76242586      -0.00327791      -0.00469147       0.00105332
C        6.12339785       2.19464871       3.68863386      -0.00148515       0.00257865       0.00469330
C        5.00470140       4.40283255       3.49131062      -0.00824903      -0.00184294      -0.00058550
C        3.74726517       6.49719767       3.63671010       0.00544821      -0.00923602      -0.00961994
C        2.47366117       8.61202797       3.60078973      -0.00118651      -0.00094818       0.00383507
C        9.84169485       0.02608568       3.96150799      -0.00833913       0.00222859      -0.00086114
C        8.58399771       2.17013247       3.97764963      -0.00031644      -0.00558291      -0.00349713
C        7.38568247       4.32520667       3.89948439       0.00196641       0.00171845       0.00235251
C        6.20898409       6.48663185       3.87261711      -0.00128332       0.00516301       0.00105411
C        4.94939508       8.59866961       3.88760217      -0.00494690      -0.00119775      -0.00584072
C       -0.04109201       1.44954373       4.06634904      -0.00597612       0.00540131      -0.00507304
C       -1.33358340       3.52974664       4.18488961       0.00045881       0.00131581      -0.00448274
C       -2.45533453       5.72048527       4.05671037      -0.00144646      -0.00122026       0.00012617
C       -3.67302885       7.87411263       3.99189113       0.00580506      -0.00091634      -0.00020709
C       -4.93297523      10.01648348       4.01873619       0.00106605      -0.00197099       0.00564273
C        2.42855689       1.47149561       3.82088488      -0.00303474      -0.00340473       0.00543300
N        1.05035416       3.54278956       3.93333492      -0.00496623       0.00077398      -0.00481922
C       -0.02328502       5.60786690       4.05811676       0.00592106      -0.00466419      -0.00404422
C       -1.19752642       7.84651815       3.81815277      -0.00325567       0.00824957       0.01296970
C       -2.46748719      10.00748333       3.87010965      -0.00200616       0.00015628      -0.00589065
C        4.89158607       1.47985213       3.65401936       0.00513490      -0.01658357       0.00719487
S        3.54123308       3.73919564       2.92616149       0.00426019       0.00687734      -0.00293819
C        1.25851612       7.94448382       3.26288420       0.00358415       0.00208008       0.00285117
C       -0.01470186      10.00577884       3.70993370       0.00100561      -0.00143448       0.00858165
C        7.35067862       1.47544641       3.81800031      -0.00452616      -0.00331236      -0.00043077
C        6.15341639       3.62211344       3.69122377      -0.00493992       0.00408105       0.00252273
C        4.96836896       5.79848299       3.67392156       0.00470346       0.00045547      -0.01445131
C        3.71287818       7.88624359       3.69026323      -0.00373831      -0.00696046       0.00038879
C        2.44442844      10.01650242       3.79499434      -0.00783725       0.00064910       0.00575147
C        9.81344152       1.43679887       4.05328887       0.00407002       0.00125441       0.00060465
C        8.58822008       3.59341258       4.02458956       0.00339578      -0.00426009       0.00218882
C        7.41749546       5.74918545       3.94245113      -0.00070779       0.00388467       0.00452807
C        6.19380450       7.89953116       3.94895490       0.00523931       0.00594747      -0.00670805
C        4.92062207      10.00855935       3.98558513      -0.00345710       0.00284591      -0.01171319
Os       1.99637830       5.43133197       3.79539223       0.00518780       0.00850332      -0.00726566
O        2.35331025       5.35036099       5.71594061       0.00183154       0.00883259       0.00052496
O        2.51264950       3.97046053       6.17650017      -0.00006979       0.01018270      -0.01625462
H        3.07480156       4.13101400       6.96471661       0.00929559       0.00499093       0.00750941
