53
Lattice="12.336457 0.0 0.0 -6.168228499999997 10.683685154694365 0.0 0.0 0.0 15.0" Properties=species:S:1:pos:R:3:forces:R:3 energy=-467.1171188629915 free_energy=-467.1171188629915 stress="-0.0021860763014913713 0.004133685206423923 -3.546337604811569e-05 0.004133685206423923 -0.00555129498803013 -1.3270273737464917e-06 -3.546337604811569e-05 -1.3270273737464917e-06 2.1230897317433968e-05" pbc="T T T"
C       -0.01106346      -0.05406578       3.82910867      -0.00385013      -0.00436503       0.00373510
C       -1.21952033       2.10275924       3.86716624      -0.00038124       0.00267116       0.01160476
C       -2.44586542       4.23091578       3.86634901      -0.00546917       0.00220793      -0.00055278
C       -3.70786537       6.35552164       3.82951478      -0.00708720       0.00070738       0.01095402
C       -4.95796052       8.48558018       3.80522151       0.00403112      -0.00247801       0.00277062
C        2.44716178      -0.06822032       3.80664111      -0.00272928      -0.00240007      -0.00091233
C        1.23680200       2.08685338       3.89618018      -0.00017153      -0.00452131       0.01490672
C        0.03609144       4.25785395       3.94136357       0.00277277       0.00231101       0.00191228
C       -1.23039410       6.37392743       3.82130744      -0.00286316      -0.00126283      -0.00200866
C       -2.49499377       8.49080465       3.76654596      -0.00248113       0.00130547       0.00289068
C        4.91762418      -0.06279967       3.71854977      -0.00292845       0.00288773       0.00215070
C        3.70039283       2.03290696       3.79251761      -0.00575173       0.00251201      -0.00081929
C        2.52397525       4.16454691       4.00234190       0.00028446      -0.00018687      -0.00982310
N        1.18633006       6.46311689       3.83421219       0.00742582      -0.00267271       0.00803597
C       -0.05084009       8.51027194       3.65888635      -0.00007111       0.00373979       0.00452408
C        7.38590733      -0.04375972       3.68578605       0.00796838       0.00400358       0.00898284
C        6.17515885       2.06219098       3.74978951      -0.00129672       0.00108871       0.00275381
C        4.95268958       4.13963845       3.73962031       0.00286207      -0.00190903      -0.00789998
P        3.69200129       6.30011392       2.50791988      -0.00156039       0.00028089       0.00236666
C        2.39815372       8.53500816       3.58155041      -0.00015824      -0.00272175      -0.00054590
C        9.86356193      -0.03631035       3.75342976      -0.00388129      -0.00364293       0.01269491
C        8.64508585       2.08941377       3.79646353       0.00510295      -0.00114320      -0.00581986
C        7.41821076       4.21102876       3.81281708       0.00472001      -0.00143234       0.00964871
C        6.16233070       6.35045034       3.77965542      -0.00577098      -0.00121526      -0.00938926
C        4.91834366       8.49283572       3.71722942       0.00226963       0.00506194      -0.00666136
C        0.00263824       1.37786709       3.87073918      -0.00117952      -0.00297492      -0.01198465
C       -1.20140703       3.53494574       3.89743156      -0.00273943       0.00625431      -0.00122805
C       -2.46029169       5.65221282       3.84648263      -0.00822824       0.00164336      -0.00200486
C       -3.72604537       7.77547180       3.80876609       0.00143493      -0.00108844      -0.01251042
C       -4.95632201       9.90754554       3.81827826      -0.00146645      -0.00335766       0.00554903
C        2.45581744       1.35019468       3.83701877      -0.00244985      -0.00308999      -0.00539673
C        1.26446831       3.52746640       3.96201434       0.00132911      -0.00262893       0.00741199
C        0.02921110       5.69934629       3.88306618       0.00553291       0.00082631      -0.00717440
C       -1.26395332       7.78741201       3.74138642      -0.00284356       0.00135888       0.01628399
C       -2.48856070       9.91114470       3.75713149      -0.00331224       0.00014104       0.00016104
C        4.93538819       1.34922880       3.74358311      -0.00634506       0.00261147       0.00202413
C        3.72690132       3.44674497       3.81607608       0.00161291       0.00136683      -0.01282498
C        1.17249076       7.82074833       3.63662577      -0.00125305      -0.00171375      -0.00598971
C       -0.02025446       9.92602202       3.67059170       0.00376642       0.00810816      -0.00307211
C        7.40673609       1.37082047       3.74300596       0.00349784       0.00382385       0.00708303
C        6.19074859       3.47946525       3.76995051       0.00479675       0.00024673       0.00434222
C        4.89991112       5.58866933       3.73476711      -0.00487512      -0.00374666      -0.00343458
C        3.62990048       7.77966365       3.60641242       0.00368287       0.01258179       0.00090073
C        2.44812528       9.94203811       3.67016092       0.00155886      -0.00421019       0.00175282
C        9.87966167       1.38468975       3.80898502       0.00229275      -0.00250576      -0.00209452
C        8.65326789       3.51286485       3.83239353       0.00241774      -0.00283986      -0.00947096
C        7.39075157       5.64237815       3.82575867      -0.00468494      -0.00149042      -0.00613260
C        6.13613981       7.76719221       3.76666465       0.00256080      -0.00015433       0.00354233
C        4.92149101       9.91217239       3.77827798      -0.00462874       0.00146320      -0.00057340
Os       3.00178577       6.01666200       4.61545264      -0.00410934      -0.01389862      -0.00756034
O        3.12454673       5.82036407       6.46209868       0.00716807      -0.00835242      -0.01402585
O        3.63088069       7.15175710       6.91887537       0.00865112       0.01193931      -0.00370118
H        3.04641362       7.26502569       7.69898358       0.00682700       0.00086045       0.00462870
