52
Lattice="12.336457 0.0 0.0 -6.168228499999997 10.683685154694365 0.0 0.0 0.0 15.0" Properties=species:S:1:pos:R:3:initial_magmoms:R:1:forces:R:3 energy=-1365760.4657432525 free_energy=-1365760.4657432525 stress="787.7373089267525 -546.0393884666328 51.528449440685996 -546.0393884666328 1935.0521686728823 -118.20486266495331 51.528449440685996 -118.20486266495331 -1486.0704023477178" pbc="T T T"
C       -0.39756941       2.93143626       8.49120536       0.00000000    -702.12916930     -74.16169376     723.45144947
C       -4.10075335       1.38441751       4.58128052       0.00000000   -9286.20707075     504.58312050     912.85628519
C       -1.49055312       3.81896136       2.04358908       0.00000000   -3480.68454215   -1824.59228011    -388.68452445
C       -3.77208724       9.71166953       4.01253189       0.00000000    1763.47164530    5801.29119126    4912.30827130
C       -5.75969720       8.63035958       3.47471792       0.00000000    3205.31081597     236.26422330    1062.88380843
C        3.59744735       0.60414442       5.34953241       0.00000000   66182.14204930   87772.39138627 -125212.15928651
C        3.28683818       3.72984620       1.93664491       0.00000000   98667.69978673  268572.76668109  188041.06542768
C        3.47369841       4.36938306       2.31215829       0.00000000  210338.22366761 -295653.55045301  -66263.24595548
C        2.28998436       4.42604357       5.86280672       0.00000000  109677.22355284  -14340.23532105   15944.65811416
C       -5.46511558      -2.40676862      -4.46617531       0.00000000     -30.01894289     -39.71698129      82.55026706
C        4.53846342       1.52370420       5.24011685       0.00000000   83906.48739526 -184645.31555670 -106667.99646363
C        2.47572601       1.14751300       4.75888230       0.00000000    3330.87496945    5765.17173817   22551.89751871
C        6.23558474       1.91252596       3.78833002       0.00000000  -16364.89596892  -21865.24286616  -17031.10012646
P        3.18667910       6.01960663       2.71641999       0.00000000 5664865.59722032 -6700347.00883893 -3432158.55927909
C        3.71489859       6.58870875       3.41887114       0.00000000  368957.25599207 -253670.97515137  114022.91125783
C        6.68085102       0.21060015       4.52568692       0.00000000  -20588.87104565   10145.39044983    4416.00133233
C        4.86658936       3.43793406       2.03352174       0.00000000 -101118.25111841   84352.36863459  -53716.45646158
C        4.65373746       4.70110900       7.19954350       0.00000000  -12678.26826745   15668.17823421  -73336.70784541
P       -0.75303245      -3.36273369      -3.32281924       0.00000000      11.60116002     -49.04370095      19.65555591
C       -9.11629148       7.71254295      -4.86124124       0.00000000      10.56473395      59.11139831     -58.98443123
C        5.68905413      -1.23203438       3.37240003       0.00000000    -698.89951394    3107.16865399    1664.72908397
C        6.67535730       1.75250287       2.94180211       0.00000000  -60706.99443160   38708.51983136   16488.22436860
C        7.52411546       5.84523832       5.04260603       0.00000000   -7577.69753265   -3508.50247239   -2274.55636317
C       -0.30942131      11.72970119      -2.11906533       0.00000000     -21.22507063      59.12300934     109.18314995
C        3.94965559       6.51960772       5.26695293       0.00000000   41603.68665445  -92680.21874789   22707.01350880
C        0.55326032       3.36190449       7.59796682       0.00000000     -75.14472257    -422.31053563   -1201.71541849
C        2.47790487       3.99112669       2.22444770       0.00000000  144556.99398886    6516.99581927  127021.36845432
C       -2.66397595       4.91304760       3.21068304       0.00000000     -15.75225459      -2.71871953     -76.74560781
C       -4.57254304      12.70828381       4.55840444       0.00000000  -16202.97388681   -5740.75164914   -9793.59924914
C       -2.28750261      11.70625230       5.65704668       0.00000000  139711.98754939   93129.93259222  -74144.44188749
C        2.53787148       3.56066541       3.96551700       0.00000000  173776.40388231  -61822.82960526  478326.92892493
C       -2.87469581       8.54022086      -0.33269669       0.00000000     -23.44019003     -10.29294780      13.09027115
C        3.33682754       5.81971013       2.72103847       0.00000000 -6505954.18941443 6258322.01414761 3987658.78853887
C        1.27581747      10.63382675       6.15415706       0.00000000     366.68288655    -823.38083874   -1861.68306471
C       -1.66236137      11.97759073       4.94507643       0.00000000    6944.23527152 -416883.83445797  380271.58444779
C        5.12409320       1.23478995       4.56432517       0.00000000  -83468.62548268  109975.98340292   75185.64269255
C        5.60245656       1.76115455       5.22141899       0.00000000  -60351.66569071   26801.41200064   34637.87816634
C        5.19314957       6.99944850       2.40231621       0.00000000  -18672.20799778 -151405.81035872   30448.40778235
C        2.67052013       9.35374695       7.42776935       0.00000000 -331241.82796920 -137468.36418586  141751.70924806
C        5.64508203       2.35928530       3.24622132       0.00000000  121082.11530891 -102408.78028552   -5276.39103124
C        4.10788096       7.05217015       5.64490696       0.00000000    8740.59740405  -31220.31456076  -22674.38625639
C       10.31402862       4.03950337       1.29199861       0.00000000    -246.68982329      32.83676939    -314.11521528
C        2.97148794       9.48070305       7.29762127       0.00000000  329479.48288916  139275.12972227 -142004.06275546
C        4.05590653       9.72430424      10.15415860       0.00000000    -146.83633136     -66.96645437    -238.96705054
C        9.60802166       1.15079310       9.74114389       0.00000000      39.61260634      38.04546337     137.33783484
C        9.70448133       3.98867299      -0.46338353       0.00000000     -30.82051192     -27.64268573      61.31806592
C        4.85859254       4.73650458       2.58737620       0.00000000  144401.38596403 -153216.30131233 -149450.94053375
C        4.99095205       4.97927346       5.96452942       0.00000000   78461.79207089  147657.53464378   74589.45296719
C        3.96128793      15.00849583       4.42357634       0.00000000      64.44760157     -13.27436601      27.41434626
Os       3.97265944       3.47085460       4.28846172       0.00000000 1673921.19372920 3376972.99387592 -12546833.81348291
O        3.60104347       4.03719693       5.54223680       1.00000000  323761.22160132 -286488.49672916  128222.85789031
O        4.03241306       3.42799259       4.67437341       1.00000000 -2548143.97544764 -1762754.57323347 10978966.14325997
