52
Lattice="12.336457 0.0 0.0 -6.168228499999997 10.683685154694365 0.0 0.0 0.0 15.0" Properties=species:S:1:pos:R:3:initial_magmoms:R:1:forces:R:3 energy=-1594658.012901899 free_energy=-1594658.012901899 stress="6899.12031964136 -2703.2391322520634 -2107.714089679102 -2703.2391322520634 1636.6250061634373 279.6339595394666 -2107.714089679102 279.6339595394666 -2421.881028202808" pbc="T T T"
C        1.58084188       1.13029606       6.12176570       0.00000000  107387.09625532  236562.36791813  -47141.68823609
C       -1.84773326       4.79623797       5.51719121       0.00000000    7246.71257479   -4052.44967386   -3651.72140571
C       -5.30923001       4.88144076       3.52195143       0.00000000     655.63569936    -207.10876417    -742.62027887
C       -1.09211584       8.92227780      -1.86447795       0.00000000     -50.00758995      26.30538688      88.94407301
C       -3.66653937       9.18213850       5.94726168       0.00000000     510.00289585   -7807.06658766     151.24864560
C        4.63138981       1.11983703       4.39500361       0.00000000  -69118.17685564   82403.42773537   32919.78002632
C        2.51214629       2.03740417       2.80630018       0.00000000   15014.36583715  156117.32759366   20703.22271481
C       -0.44437048       2.43022874       5.59703801       0.00000000  184871.94288495   79406.03947123  -43392.57076748
C       -7.54906092       3.07208874      10.07569217       0.00000000    1027.65921396    -439.07885917    1876.80570249
C        2.09444357      10.97104962      -0.23846619       0.00000000     -67.23928642      20.06063101      27.55603585
C        3.93936292       1.29979558       4.35281360       0.00000000   72770.68776386   31808.35734350  -68909.92184942
C        3.55526000       0.45534185       1.98470345       0.00000000    6145.41713257  -40977.85430971  -18514.57321530
C        1.73551822       2.29049922       5.64756271       0.00000000  153655.87370265  420426.58082336 -576331.16146268
N        4.48070974      22.39918242      10.07210147       0.00000000    -187.46794521     236.16805169    -563.06419853
C       -2.31253161       7.10313397      -1.58493574       0.00000000     615.78491332     526.73234122     -51.29707441
C        8.10349614       0.68481240       2.83598343       0.00000000     -96.25067931     -44.18981674      76.11077920
C        5.36995021      -0.76055627       5.20755155       0.00000000    6419.50758134   -8183.37328571    -298.66170657
C        7.91878469       9.15212400       1.00311641       0.00000000     955.53165759     975.45848917     561.31976776
O        3.29180945       5.45794635       4.58688699       0.00000000  774880.99287848  691908.96118492 -422993.53918815
C        4.49807176       6.60895911       2.88191139       0.00000000   -8665.62942883    -909.05993272  -16550.91471413
C       10.41079357       0.33485535       2.01120580       0.00000000     586.80976344       0.30510870     497.98301385
C        9.43574939       4.36538291       3.54212071       0.00000000    -661.30839752     -61.98323350     -79.69592956
C        8.77865606       4.95238461       2.47408615       0.00000000   -1826.48792745     -56.41467223    1025.90462061
C        6.04850954       5.52753790       5.56580437       0.00000000  -13366.32300072  -11265.56485167   -3158.07361452
C        3.57235764       4.97758945       4.19744076       0.00000000 -156607.86738763  529665.67564912  393801.15852332
C        2.47776979       1.40830997       3.02517086       0.00000000   22275.56557346  358322.75819462   41845.53176248
C        0.93040561       6.55579477       3.82411472       0.00000000   32168.60937592  -82184.24665718   22614.37675702
C       -3.35124651       9.83918526       0.37080105       0.00000000    3781.52545323    4778.56673806    5783.39730953
C       -6.80261354       6.37114587       3.16748060       0.00000000   13405.61236209    5608.33188509  -13691.34056123
C       -4.24548024      10.18835645       6.54286580       0.00000000  -14741.23451827  -12819.54060890    7753.21122043
C        3.19254832       1.00988127       2.13067806       0.00000000   -8231.42280109   29471.06753450   31604.92391674
C        1.12353045       3.01033676       4.95055204       0.00000000  982098.93989960  288208.38644273  199210.38683193
C       -1.42878886       4.19011103       7.52353880       0.00000000   -6910.50170424    -182.93581207    2447.75123588
C        0.20856041       2.84959761       3.23927176       0.00000000   70533.67047109   -9498.53631514   16888.70173088
C       -0.82700759      10.26843028       4.72576541       0.00000000   -2718.98959968   22401.77747423   -6860.10901324
C        4.79536969       3.21697050       2.26134276       0.00000000  -93158.43630978    3290.19222780  117129.36929789
C        2.33032052       1.79882681       5.87395812       0.00000000  -54211.26976847 -399236.68082083  284272.72854658
C        2.61992424       6.73224343       4.59164057       0.00000000    2012.84518412 -102083.18102549   -2985.81260375
C       -0.48366018       4.18243834       7.95329490       0.00000000  -25421.76349862     976.54481831   14475.15131778
C        5.40363638       2.99572723       5.66236542       0.00000000  -54160.51083059   -4719.48157489  -22109.48983590
C        1.87811326       3.70941282      -0.74195489       0.00000000    -141.05536599    -155.20099536    -540.61192123
C        3.03694035       3.34642137       4.44684021       0.00000000 -19839698.86082061 7593973.47565169 7271447.47879026
C        6.36137942       6.17606093      -4.19148964       0.00000000       0.51897722       1.34482750      -6.12233736
C       -1.97866689      12.24421180       5.44980665       0.00000000   77372.23390214  -30091.42475161   30325.72338675
C       12.91239996       1.42272066       0.94167320       0.00000000    1011.21747495    -298.85326409    2993.65037713
C        5.35148108       1.81950910       8.07985542       0.00000000    -380.20296053    -452.51078911   -3402.89390133
C        9.54718544       6.72391304      -1.52721644       0.00000000    -602.01550875    -468.12090636      79.94365155
C        4.13291149       5.17657119       4.65183958       0.00000000  211033.48962614  383311.90060453  238658.85764652
C        5.41766182      10.79425388       3.28758903       0.00000000    -577.29844827     618.61426590    -970.13994392
Os       2.41814567       3.61041388       4.69696256       0.00000000 22195708.24352862 -24385477.42286653 -31995925.93771463
O        2.31753349       4.53436878       5.87917655       1.00000000  351699.15658055 -3309681.60228687 -1389151.62516982
O        2.36955756       3.70561330       5.04685369       1.00000000 -4944245.32853020 17490307.15426866 25898762.36896164
