53
Lattice="12.336457 0.0 0.0 -6.168228499999997 10.683685154694365 0.0 0.0 0.0 15.0" Properties=species:S:1:pos:R:3:forces:R:3 energy=-468.5001305763494 free_energy=-468.5001305763494 stress="-0.0023428618497966813 0.005773158848721863 5.078820526671962e-06 0.005773158848721863 -0.005556968078970756 -2.8379662534992052e-05 5.078820526671962e-06 -2.8379662534992052e-05 1.2695026520289316e-05" pbc="T T T"
C        0.05477773      -0.06551354       3.74216397       0.00125690      -0.00688197       0.00673942
C       -1.14197197       2.09548329       3.78386735      -0.01189236      -0.01113127      -0.00128616
C       -2.36932405       4.22044688       3.82757417       0.00457747      -0.00067827      -0.00202051
C       -3.64823656       6.33693778       3.83333628      -0.00528564       0.00407539       0.00876114
C       -4.91718376       8.46038291       3.78738462       0.00464870      -0.00396817      -0.00513879
C        2.50795876      -0.08341794       3.82868366       0.00321430      -0.00313797      -0.00362063
C        1.30838932       2.07402789       3.90474723       0.00086339      -0.00221733       0.00110061
C        0.11519875       4.25369678       3.85993089       0.00661476       0.00011991      -0.00594570
C       -1.17463817       6.36723285       3.72512004      -0.00156848       0.00156837       0.00628782
C       -2.44346941       8.47798562       3.73306287      -0.00412747       0.00124842       0.00757111
C        4.97910893      -0.07015518       3.77661669       0.00032281       0.00714005      -0.00983058
C        3.77407853       2.01475816       4.01421058       0.00314862       0.00867152       0.00125616
C        2.59782202       4.12682724       4.12473216      -0.00209575       0.00359492      -0.01259750
N        1.21281166       6.48070492       3.72189732       0.01315784      -0.00592552      -0.00416582
C        0.00193234       8.51353527       3.57230595      -0.00629007       0.00090448      -0.01368575
C        7.44855489      -0.04543944       3.65490550       0.00521143      -0.00162172       0.00619908
C        6.25181081       2.04619136       3.92512782       0.00369856      -0.00021510       0.01340469
C        5.05260982       4.12877145       4.19641777      -0.00476022       0.00524053      -0.00647744
O        3.63412601       6.74791667       2.41302848       0.00479270      -0.00569770      -0.00197831
C        2.46446623       8.54498577       3.43503933      -0.00036956       0.00113294       0.00650704
C        9.93565838      -0.04405598       3.62034391      -0.00200689      -0.00408700      -0.00254561
C        8.72216025       2.07699374       3.79427460      -0.00563662      -0.00259821      -0.00608792
C        7.50087147       4.19096704       3.97207215      -0.00147197      -0.00101172      -0.01015658
C        6.20824774       6.31031312       3.99957244      -0.00004183       0.00199163      -0.00109067
C        4.97457329       8.47753209       3.57656075       0.00046817       0.00048110       0.00916171
C        0.07555269       1.36772965       3.80181543      -0.00554364      -0.00580860       0.00798769
C       -1.12087938       3.52870473       3.82282483       0.00487705      -0.00596644      -0.01142782
C       -2.39513974       5.64060409       3.79809778      -0.00492014       0.00285724       0.00625535
C       -3.67526716       7.75810433       3.78865966       0.00140234       0.00099823       0.01059033
C       -4.89840821       9.89008626       3.77760379       0.00368897      -0.00745676       0.00583702
C        2.52440377       1.33473184       3.92178993       0.00563037       0.00114006      -0.00619292
C        1.33879311       3.51542052       3.96664039       0.00344522      -0.00073548      -0.00396923
C        0.09012181       5.69792167       3.76381913       0.00697669       0.00203809       0.00903468
C       -1.21136205       7.78035960       3.66840701      -0.00879499       0.00079535      -0.00559231
C       -2.42940820       9.89908699       3.77697941       0.00189663       0.00039659      -0.00399291
C        5.00661762       1.33421311       3.91396471       0.00310799       0.00751628      -0.00016428
C        3.81027445       3.42239595       4.15166879      -0.00203389       0.00906791      -0.00355540
C        1.22070830       7.82699052       3.50713133      -0.00181344       0.00085389      -0.00022886
C        0.03897083       9.92732266       3.64810494       0.00050088       0.00423562       0.00014689
C        7.47965972       1.36006549       3.78798937       0.00054492      -0.00224888      -0.00030221
C        6.28670710       3.45076835       4.05427747      -0.00406273       0.00127589      -0.00026264
C        5.06384561       5.52659890       4.24667423       0.00221535       0.00297197       0.00508192
C        3.70208182       7.83346469       3.21770274       0.00049927       0.00049901      -0.00424873
C        2.51439483       9.94334297       3.55962987       0.00356483       0.00119508      -0.00073720
C        9.95629937       1.37692203       3.72442940      -0.01308597      -0.00882594       0.00187370
C        8.73653952       3.49654605       3.86714346       0.00164892      -0.00192943       0.00326189
C        7.46775827       5.61635380       3.94872351      -0.00236382       0.00138385       0.00639679
C        6.17769122       7.74307310       3.79114795       0.00301865       0.00279212       0.01124994
C        4.98675316       9.90331032       3.63282166      -0.00066182      -0.00094950       0.00170812
Os       3.13531712       6.01980386       4.26190397      -0.00638144      -0.00841820      -0.00092918
O        2.90948599       6.31171419       6.10609678       0.00753412       0.00403618      -0.00584493
O        1.65557849       7.03995113       6.47699230      -0.00790710       0.00968059      -0.00095521
H        1.86539138       7.19779604       7.42295971       0.00058799       0.00160799      -0.00138127
