52
Lattice="12.336457 0.0 0.0 -6.168228499999997 10.683685154694365 0.0 0.0 0.0 15.0" Properties=species:S:1:pos:R:3:initial_magmoms:R:1:forces:R:3 energy=-519839.1838669903 free_energy=-519839.1838669903 stress="569.3052108733465 -221.32016609176188 70.14741886944778 -221.32016609176188 592.3237523412417 -114.23313869033643 70.14741886944778 -114.23313869033643 -570.4483093351475" pbc="T T T"
C        0.55144969       2.29768257       2.78207772       0.00000000    1711.78727981    -471.96111899   -3944.45248437
C        5.32947245      -1.67031789       6.30401623       0.00000000    2219.99730059   -5914.66087426    4477.21400223
C        1.72827757       6.26721251       2.78119415       0.00000000  -80673.06944486  -26437.89417225  102950.50901589
C       -0.03760535       7.75935578       6.05438388       0.00000000   11345.83469660   -6216.40857270   11345.60843425
C       -0.99167516      10.27268137       4.13295841       0.00000000    7368.04784016     -74.54622144   -6382.86843785
C        2.75401777       0.58782439       8.09984998       0.00000000      33.80379970      13.48372032    -102.16047697
C        3.12473656       4.96045789       2.53981733       0.00000000     926.39778387   14544.11182410   37289.96432517
C       -0.99467401       5.76729158       4.32632466       0.00000000  132565.69918642  -44783.97980504    6390.04433749
C        0.82161104       7.34059651       4.10961092       0.00000000   36741.98165735   90263.00381340  -93786.87802623
C        1.29472580       1.19651560       4.84938026       0.00000000      -2.60241947   -3810.26028317    -119.89441407
C        6.92113868      -1.23433651       3.65547232       0.00000000  -23115.88096654 -113875.55967028   87922.19006295
C       -0.49843188       2.53088346       4.40879859       0.00000000   -4629.74379037   -1831.00531423    1738.03872233
C        3.00052218       4.78613955       5.79560979       0.00000000  -68015.48298998  217769.18227241  119819.37160939
P        3.51209106       7.30067243       3.23279327       0.00000000   14005.11212265  -26009.07953577   45340.30711559
C        1.19543231       9.72935499       3.35557084       0.00000000    9655.30410741     451.52322048    2881.42611821
C        7.96747764       1.25015461       3.59323829       0.00000000   -1556.61759518   -5856.04432749       1.51057407
C        5.46050023       5.65263828       3.61435054       0.00000000   -5682.98557846   -7989.29758259    9816.20609911
C        1.69678985       6.37237637       3.48890686       0.00000000  -70953.89875458    1572.75168016 -252715.85242152
S        0.56382265       6.21032509       2.93596811       0.00000000  108126.62255951  -47335.39617939   17707.46247807
C       -2.07076426       8.80725428       3.19642431       0.00000000    3138.16765436     274.35198060   -3002.86819393
C        5.00494539      -2.33156035       2.49452462       0.00000000  -13433.15322290    4584.76105855  -13267.78403352
C        7.68710738       1.58100530       4.12855246       0.00000000    -842.14960994   -2853.93008998     -82.04977720
C        0.65612524       2.03430684       0.44033048       0.00000000     207.76035550     481.21886975     754.38038613
C        0.59456902      14.51629737       5.62414461       0.00000000     643.54558345    -227.96372159    -696.27550807
C        3.65659671       6.01910070       1.57131947       0.00000000      -6.10802955   -5774.04723238   -8667.03191479
C       -5.11471110      -2.71575170       3.82778556       0.00000000  -53594.46276004 -112141.86148299   37981.49070104
C        0.14034152       7.48346540       2.31607494       0.00000000   -7725.25988307    8984.02982346   12889.01640773
C        3.85771790       5.31037535       2.27728880       0.00000000    4701.22199840    1811.21886656   10804.68116400
C       -0.19106380       9.32481100       2.90941323       0.00000000  -12847.04136007   17655.31152259   -8460.66944102
C       -0.36651847      10.31758921       3.17968922       0.00000000   -1315.65128563    5464.73915617   -5531.68308406
C       -0.64365666       0.61472111       5.05533370       0.00000000     544.31570891    1907.42776275    -939.54404175
C       -0.67626637       5.14112027       4.24464511       0.00000000    6016.83583615  105992.52182054   11526.50824771
C       -0.00867333       4.82631437       4.35425186       0.00000000  110822.33652325   27580.23804891    3008.48182391
C        0.19672376       7.93596417       3.46961984       0.00000000   50471.40293066  -45993.65991645   60232.86669193
C       -3.21301235       4.15548237       4.23991900       0.00000000    1216.79166754     445.88724804      91.17602744
C        4.48004141       5.12509969       4.34196467       0.00000000   -5924.53554956   -6875.74810453    -144.62832295
C        2.27470597      -0.74448513       2.80262517       0.00000000     546.15298838      17.20084591      63.44580730
C        3.44567605       6.53067377       4.03221992       0.00000000   70006.65796022   85700.01194009 -186132.01496161
C       -0.03437123       6.08833351       4.29684981       0.00000000   19822.87607698  -67497.38711390   33065.98308363
C        8.86091131      -0.96251658       4.13811584       0.00000000     267.04708025    4615.55585532   -3085.65096351
C        3.94782168       4.24784634       4.24893759       0.00000000  -18466.13459289   16295.38823909   12949.15643070
C        1.41063935       4.22518461       4.05625964       0.00000000  -78424.69040350   64379.42230253 -267616.41196234
C        0.73826352       6.84537197       5.45731769       0.00000000  274899.71084234  -55972.91050817  260039.68582135
C        0.79957670       9.02046758       3.96761147       0.00000000   40074.49622005   47075.91129710  -39400.35698413
C       13.65515579       4.00870087       4.37509323       0.00000000   -4608.21080476  -65407.46447640  149613.91724801
C       11.54344013       6.71330559       1.76056405       0.00000000   -6604.21621717    8279.25502780  -18859.57977452
C        9.40439527       2.01885958       3.82771553       0.00000000     663.05854248      91.95177070      36.38861940
C        3.18045562       2.02692376      -1.75022416       0.00000000       4.76382593      76.42603022      96.28126256
C        3.99416557      16.90589934       0.51862529       0.00000000    1116.12495973     784.12219434     847.63705393
Os       1.96275348       5.85803552       5.56301563       0.00000000 -1591905.43050708 -2080006.51927113 -4367718.40180526
O        2.56231486       7.10767930       7.37078521       1.00000000 -212978.53737107 -575342.46055622 -601765.95160024
O        2.08085808       6.00588369       5.94899985       1.00000000 1353442.00804800 2581589.03793947 4840742.05895835
