52
Lattice="12.336457 0.0 0.0 -6.168228499999997 10.683685154694365 0.0 0.0 0.0 15.0" Properties=species:S:1:pos:R:3:initial_magmoms:R:1:forces:R:3 energy=-908587.3217594038 free_energy=-908587.3217594038 stress="980.0282346034526 922.0988243941011 592.2140643920399 922.0988243941011 1518.6359604097497 77.29916067071805 592.2140643920399 77.29916067071805 734.0559834563414" pbc="T T T"
C        1.00997359       0.94707347       3.06457876       0.00000000    -304.46046563      -3.68743274    -133.80733474
C       -3.04993129       3.06747016       5.52157518       0.00000000   67390.46604312   32493.41710246   -3147.90822035
C       -4.94197342       4.50036103       4.34618602       0.00000000   44006.59043031  -20034.87402512   -2704.63592292
C        0.58959378       6.80857020       3.48693289       0.00000000    9263.08734004   30779.86314113   28144.68285442
C       -5.56717987      14.61855120      -2.49872928       0.00000000       1.62695050       8.54263001       9.15511284
C        3.39878176      -5.13279217       2.88157966       0.00000000    -985.86376724   -3356.34475416    2509.75876091
C        4.67170664       4.00668058       6.67577037       0.00000000   -1004.75928605    1218.72152552   -2467.32049177
C       -4.87527622       2.64588027       7.33098615       0.00000000  -11722.80317798    -467.76068398  -71779.59179203
C        0.87083388       6.20957860      12.48534211       0.00000000      -1.36591049      -4.93304060      12.18394161
C       -2.88738380       5.38867045      -6.01161272       0.00000000     253.90541700     434.43257526     843.04389790
C        5.51440029      -0.60240447       3.49377854       0.00000000   -3746.88572761   68818.99512455   66548.43973351
C        6.43552013       1.85142777       5.23047103       0.00000000 -851264.30450456 -2143959.10939824 -2877681.30026123
C        6.19642288       1.08298036       4.83078323       0.00000000 1228838.51045800 3145696.15041543 -203128.97282426
N       -2.16438385       8.68040932       0.23734295       0.00000000      71.51779949      -7.88617994      77.85147341
C        6.73877872       4.82236152       5.05071926       0.00000000   18667.92238794  -30089.95142234   -2533.00981932
C       13.07009618       6.35530035       2.42848840       0.00000000   -3887.40464118     515.73823820    4061.98755112
C        6.73575179       1.91756312       5.00202573       0.00000000 -2190911.24650545 -1586288.37252673 -343354.50833497
C        1.98040373       7.51842921       3.49763939       0.00000000  -25469.81633310   23140.11968703   52585.29513694
P        4.14424151       5.87925479       4.17570400       0.00000000     550.39824608   -1814.41660061   -1692.75047233
C       14.94932930      -0.71242857      -3.08211769       0.00000000       0.30474673       1.30336752       2.94371521
C        9.43036577       3.54923814       4.49893259       0.00000000  -35176.24274746    8679.32977185   26875.01898104
C        7.70680098       2.80341201       4.89551639       0.00000000 -151793.74860438   44745.14909731  -49883.09939634
C        9.43859986       3.77002820       5.26873709       0.00000000  -73630.65325317  -41169.39600481  -31764.36406663
C        5.13275344       3.01129863       6.36940947       0.00000000   29348.41113530  -59853.82023693  -50041.96454008
C        3.73922170       3.58774958       1.23869630       0.00000000     -32.81659878    -102.27975757     292.82177894
C        2.62854905       5.99193907       5.14439445       0.00000000   -5878.45391780    9887.81039006     657.47920377
C        0.10793052       8.38403477       3.80498889       0.00000000   14399.38201035  -35985.23603110  -75696.66661668
C       -3.92637131       4.11738091       5.92110713       0.00000000   23651.26414622   16585.26885784   -8188.23283502
C       -1.94798016       4.94639708       6.53555255       0.00000000   -2756.50612682   -4937.89292897   -6896.26991353
C       -6.68514686       9.11484356       2.58199178       0.00000000    6380.10841702    1975.92863223   -4470.99435908
C        4.93495565       0.15545549       4.01583767       0.00000000   49234.38512538   -7998.56018168   42404.88727245
C        2.43411544       7.34541591       4.31279780       0.00000000  -77459.17004811   63764.97464589   70785.50204099
C        5.15608971       8.24195683       0.56435289       0.00000000     -29.04295205     -18.68616351     253.14821994
C       -0.69601174       7.46755752       4.73361129       0.00000000  -40512.72996041  -76286.80587437  -67220.43606199
C       -0.92893297       6.57812423       0.22755005       0.00000000       7.42447322      13.86031815     -15.55567374
C        6.33667258       1.47413118       4.84115174       0.00000000  747449.56060027  971235.53922091 3241544.95243886
C       -7.11087930       8.95160509       2.85715075       0.00000000   -7972.31816704   -2007.20341620    5558.23478349
C       -3.29166476      13.86863650      -0.94669102       0.00000000      -2.53654598       3.15783736      13.52587591
C        0.08042329       9.90118176       3.83687428       0.00000000   -2453.73401684   85212.31116659   78082.01464246
C        8.92507902       3.47054627       3.83305827       0.00000000  -23912.70765389    1575.55651108   79997.55577204
C        5.71012744       1.81241978       4.87701873       0.00000000 1216865.83468998 -503870.88180396  288908.30518872
C       -1.02404325      -0.84269700      -1.16996817       0.00000000       0.00358880      -0.78910646      -1.34131654
C       -1.19556997      10.45331567       5.29824978       0.00000000   13351.39839597    6207.91944644  -29165.81222693
C        0.95613808      10.01114485       5.17718711       0.00000000 -220226.15812505   59593.88271320  159940.29107784
C        8.45868709       2.60715596       7.03482600       0.00000000  -42994.37648091    4248.43146185  -66519.91640760
C        7.77957758       2.68554071       5.07296522       0.00000000  114426.38598730 -192728.43948735    7966.34837500
C        2.84214953       0.21314896      -0.80509019       0.00000000      24.46699649      -4.09945524      39.79728932
C        5.51485082       3.31441188       9.03014644       0.00000000   -1178.82144095     992.37038050    2666.60011821
C        4.14480241       7.90940615       2.53333872       0.00000000   -2029.34525114     591.30541795    1795.71421140
Os       0.69063463       8.86099929       6.00436722       0.00000000 2970881.02211823 -4465891.31402393 -3654337.56390274
O        0.82119729       8.35819629       7.10623750       1.00000000  -26909.27933609   28842.34440171  -48053.39785301
O        0.46725471       9.16609622       6.24677806       1.00000000 -2750816.42595760 4569620.31645851 3438301.88119558
