52
Lattice="12.336457 0.0 0.0 -6.168228499999997 10.683685154694365 0.0 0.0 0.0 15.0" Properties=species:S:1:pos:R:3:forces:R:3 energy=-450.7714697111205 free_energy=-450.7714697111205 stress="-0.00817563049912745 -0.0007499336158072269 -1.16260960856583e-05 -0.0007499336158072269 -0.0006115616329272322 -9.874647756745897e-06 -1.16260960856583e-05 -9.874647756745897e-06 -1.4139404668949842e-05" pbc="T T T"
C        0.04379829       0.02737072       3.84454170       0.00611581      -0.00107762       0.01032292
C       -1.20536023       2.15722464       3.73701801      -0.00428981      -0.00140059       0.00843784
C       -2.44491532       4.30392127       4.03583190      -0.00192240       0.00129104      -0.00863164
C       -3.65348716       6.45711965       4.19702965      -0.00119225       0.00942601       0.00096703
C       -4.87710333       8.60675437       4.09752119       0.00151938      -0.00451297      -0.00052885
C        2.51539336       0.03880586       3.80892842       0.00867801      -0.00829618       0.00000423
C        1.25821609       2.08564306       3.32003966       0.00250952      -0.00543637      -0.00347128
C       -0.12890561       4.37159716       3.45797355      -0.00629402      -0.00215393      -0.00565461
C       -1.24590130       6.47067845       3.98580655      -0.00367766       0.00080494       0.00271848
C       -2.42644408       8.60299297       4.06401323      -0.00204170       0.00408147       0.00559211
C        4.98341839       0.03061067       3.83192442       0.00022711       0.00067231       0.00191766
C        3.76484092       2.10004736       3.32211625      -0.00233737       0.00118794      -0.00471438
C        1.18317206       6.43192276       3.67494290       0.00972927      -0.00671005      -0.00765797
C        0.04386580       8.57122609       3.92090533      -0.00055975       0.00036766      -0.00580562
C        7.45517352       0.00499364       3.88535262      -0.00218853       0.00402175      -0.00377015
C        6.22423948       2.16546130       3.76867700      -0.00631609      -0.00152195       0.00297466
C        5.13079022       4.39380955       3.56140911      -0.00544264       0.00586915       0.01367699
N        3.88503173       6.44410810       3.70898685      -0.00479424      -0.00002796      -0.00460499
C        2.52623240       8.52189882       3.85608593       0.00646398       0.00312897       0.00205954
C        9.91164437       0.00363649       3.89100949      -0.00234484       0.00365359      -0.00593208
C        8.67941062       2.15474769       3.95798098      -0.00316804       0.00141864       0.00694776
C        7.46159601       4.30833353       4.08474619       0.00120502       0.00159954       0.00080224
C        6.26643033       6.48319270       4.07921531       0.00103183       0.00014836       0.00084026
C        4.99336990       8.56528770       3.96172203       0.00476581      -0.00023365       0.00090411
C        0.03591003       1.44793477       3.63489024      -0.00069392      -0.00039730       0.00183127
C       -1.24409040       3.58376385       3.76842412      -0.00504093      -0.00302587      -0.00639816
C       -2.44332333       5.73317973       4.10908960      -0.00641913       0.00363978      -0.00829842
C       -3.65063607       7.88755749       4.15103206       0.00010555       0.00574075       0.00221605
C       -4.88457128      10.02193296       3.93374458       0.00754699      -0.00784764       0.00071606
C        2.51492701       1.43894502       3.46413546       0.00324123      -0.00592844       0.00156627
S        1.16538553       3.66432372       2.54491810      -0.00916235      -0.00096135       0.00342733
C       -0.05306194       5.75534549       3.70060109      -0.00150549      -0.00057860      -0.00709029
C       -1.20212959       7.88874049       4.01763885      -0.00511566       0.00287207       0.01015917
C       -2.42092515      10.01952270       3.91841645       0.00615566      -0.00172388       0.00188683
C        4.98611657       1.45625454       3.64073681      -0.00518673      -0.00104777       0.00274019
S        3.86406567       3.71188631       2.58203876      -0.00037721      -0.01033110       0.00695603
C        1.27898478       7.82568388       3.82679654       0.00699064      -0.00172259      -0.00244848
C        0.04974240       9.99163651       3.89527325      -0.00103149       0.00248832      -0.00604360
C        7.44414129       1.44147710       3.88982686      -0.00365527       0.00216442       0.00514712
C        6.25196237       3.59551929       3.84055983      -0.00105867       0.00188176      -0.00823957
C        5.08175905       5.78882456       3.78495080      -0.00232964       0.00609109       0.00214496
C        3.77891180       7.80938922       3.85456499       0.00551323      -0.00028558       0.00412139
C        2.51855962       9.95670120       3.89223226      -0.00097040       0.00551248      -0.00035942
C        9.91504568       1.43937153       3.88165468      -0.00620997       0.00141286      -0.00116542
C        8.67699430       3.58048742       4.07044483       0.00105147       0.00083488      -0.00434843
C        7.46649423       5.73624537       4.16614241       0.00278340       0.00470300      -0.00317289
C        6.23381405       7.89564593       4.08296456       0.00358678      -0.00277224      -0.01186107
C        4.97903124       9.98704358       3.91299305       0.00154346       0.00243397       0.00026484
Os       2.49117671       4.97259275       3.88628582       0.00966497      -0.00512038      -0.00399529
O        2.59726444       4.96872232       5.76869218       0.00781788       0.00332868       0.00222302
O        1.82912493       3.79926387       6.24860874      -0.00140554      -0.01139536      -0.00302941
H        1.58325747       4.14431305       7.13538334      -0.00151526       0.00373393       0.01365564
