51
Lattice="12.336457 0.0 0.0 -6.168228499999997 10.683685154694365 0.0 0.0 0.0 15.0" Properties=species:S:1:pos:R:3:initial_magmoms:R:1:forces:R:3 energy=-446.35365566795537 free_energy=-446.35365566795537 stress="-0.0024668391358913886 -0.005451851128087527 -8.204774624770125e-06 -0.005451851128087527 -0.0027803597078774576 -1.6723297999903077e-05 -8.204774624770125e-06 -1.6723297999903077e-05 1.3163236089950982e-05" pbc="T T T"
C       -0.01402824       0.00050013       3.97514937       0.00000000       0.00574789      -0.00782617      -0.00104716
C       -1.29413196       2.09475497       4.07671328       0.00000000       0.00015457      -0.00052726       0.00512959
C       -2.51783681       4.26270330       4.06958826       0.00000000      -0.00477316       0.00639216       0.00085421
C       -3.67896217       6.41291068       3.94428951       0.00000000      -0.00129850       0.01170284       0.00218730
C       -4.90980692       8.56431255       3.93682788       0.00000000      -0.00516078      -0.00783633      -0.00017474
C        2.45836663       0.01450747       3.87781138       0.00000000      -0.00117060      -0.00197580      -0.00763761
C        1.16997862       2.15844367       3.86193731       0.00000000      -0.00071206       0.00207685       0.01136146
C       -0.10780812       4.16911555       4.02870849       0.00000000       0.00538084      -0.00172126      -0.01018495
C       -1.18693543       6.37556585       3.90493038       0.00000000       0.00213742      -0.00580296       0.00320478
C       -2.43840969       8.53797661       3.85511868       0.00000000       0.00215636      -0.00614949      -0.00090383
C        4.91277427       0.00726500       3.70995398       0.00000000      -0.00271058      -0.00309767      -0.00871669
C        3.63390964       2.10392796       3.47640200       0.00000000      -0.00253350      -0.00690338      -0.00723348
S        1.31189645       6.65911686       1.97189882       0.00000000      -0.00470341      -0.00337939       0.00065093
C        0.00309367       8.54100043       3.55889654       0.00000000       0.00244278       0.00304812       0.00342545
C        7.37111916       0.01120104       3.70945383       0.00000000       0.00072518       0.00743814      -0.00416565
C        6.12194096       2.15892461       3.63428031       0.00000000       0.00078639       0.00777541      -0.00320368
C        5.00539256       4.36632449       3.38538981       0.00000000      -0.00221163       0.00102392      -0.00534116
C        3.74504573       6.46186932       3.53001774       0.00000000       0.00406479      -0.00135663       0.00396460
C        2.47270200       8.57855723       3.52504781       0.00000000       0.00001607      -0.00405178      -0.00050109
C        9.84109901      -0.00809259       3.89362823       0.00000000      -0.00884595       0.00362434       0.00497021
C        8.58180933       2.13527756       3.92608446       0.00000000       0.00120459       0.00073937      -0.00918802
C        7.38150938       4.29030208       3.83772606       0.00000000       0.00769509       0.00111968      -0.00860152
C        6.20581763       6.45209518       3.77848248       0.00000000       0.00407195      -0.00581524       0.00983328
C        4.94872615       8.56464367       3.79855865       0.00000000      -0.00282413       0.00679313       0.00587602
C       -0.04171774       1.41733445       4.00073531       0.00000000       0.00122859      -0.00562628       0.00453038
C       -1.33353798       3.49705210       4.13031436       0.00000000       0.00058511       0.00392006      -0.00337761
C       -2.45780522       5.68565535       3.99598514       0.00000000      -0.00628785       0.00702860      -0.00535994
C       -3.67530740       7.83928270       3.92674235       0.00000000      -0.00285833       0.00524349       0.00252845
C       -4.93463273       9.98343729       3.95380071       0.00000000       0.00467238      -0.01064541      -0.00317240
C        2.42790978       1.43991657       3.75352487       0.00000000      -0.00485428       0.00205603       0.00627783
N        1.05244834       3.51287209       3.86611774       0.00000000       0.00674531       0.00203210      -0.01463237
C       -0.02273219       5.57657359       3.98323955       0.00000000       0.00626797      -0.00101631       0.00430229
C       -1.20032262       7.81342022       3.75757524       0.00000000       0.00557008      -0.00618696       0.00540753
C       -2.46943320       9.97424465       3.81606121       0.00000000      -0.00240953      -0.00655705      -0.00630838
C        4.88977693       1.44480969       3.59846417       0.00000000       0.00138343      -0.00117943      -0.00371577
S        3.54286294       3.69690562       2.81821124       0.00000000      -0.00597553      -0.00550316       0.01062664
C        1.25582037       7.91197863       3.19073745       0.00000000      -0.00140542      -0.00016485      -0.00420841
C       -0.01610710       9.97018125       3.65830870       0.00000000       0.00189047       0.00543487       0.00476849
C        7.34854922       1.43988814       3.76723480       0.00000000      -0.00077235       0.00714713       0.00661612
C        6.14986686       3.58737750       3.62164059       0.00000000       0.00362847       0.00824717      -0.01056190
C        4.96651181       5.76313815       3.56238589       0.00000000       0.00151901      -0.00226499       0.00806235
C        3.71229731       7.85123211       3.59840927       0.00000000       0.00222470      -0.00058863       0.00609541
C        2.44357409       9.98152256       3.73091537       0.00000000      -0.00465259      -0.00203266       0.00111519
C        9.81262914       1.40271277       3.99526119       0.00000000      -0.00297560       0.00211592      -0.00077758
C        8.58503541       3.55902029       3.97189913       0.00000000       0.00163658      -0.00217703      -0.00164498
C        7.41362434       5.71471263       3.86907208       0.00000000       0.00867598       0.00079013       0.00426054
C        6.19281248       7.86538887       3.86165800       0.00000000      -0.00601815      -0.00455843      -0.00112772
C        4.91984937       9.97436127       3.90815231       0.00000000      -0.00420334       0.00802007       0.00076598
Os       1.98314802       5.40757607       3.67569201       0.00000000      -0.00307407      -0.00765941       0.01261943
O        2.90872033       4.26433901       5.91400919       1.00000000       0.00763873       0.01272203      -0.00178703
O        2.33081789       5.40754650       5.65305840       1.00000000      -0.00781940      -0.00388761      -0.00586079
