51
Lattice="12.336457 0.0 0.0 -6.168228499999997 10.683685154694365 0.0 0.0 0.0 15.0" Properties=species:S:1:pos:R:3:initial_magmoms:R:1:forces:R:3 energy=-605967.2401087008 free_energy=-605967.2401087008 stress="-1179.7260845609524 -757.1511438538872 -1956.86012277877 -757.1511438538872 2022.7969576624232 -754.8131116096923 -1956.86012277877 -754.8131116096923 -709.2239713937365" pbc="T T T"
C        0.42096338       2.99271921       5.73779846       0.00000000   35990.53983943   71920.15920044  -24085.26409687
C        1.54208622       3.48090307       3.80542846       0.00000000  -10490.05160178   -1025.10586407   21811.99977436
C        0.66924252       4.27923891       4.31077761       0.00000000  156719.43174222 -268766.23118831  -23616.38126281
C        0.12497906       6.19814772       2.15497886       0.00000000   58975.04224109  105786.95935265   26402.67192704
C       -6.24032977       7.86498015       4.95383952       0.00000000   -2859.75773228      31.28334684   -2907.05092872
C        1.98600831       0.27346903       5.69034449       0.00000000   -2014.02493516    4013.74238686   -1586.30756622
C        1.21604147       4.09873055       3.95466295       0.00000000  -33809.64818865  604277.08221951 -114351.43233089
C        0.98816863       6.65590654       3.13675644       0.00000000  -25410.06557617 -453988.88102852  218313.74576295
C        1.12673767       6.64702833       3.66023538       0.00000000  423760.72936033 -651088.07580376 -122981.13111024
C       -5.32126446       9.53455007      -0.06991126       0.00000000     -47.63730024     -28.23001100     -88.36740748
C        3.73748973       3.62327666       3.37989167       0.00000000  -13865.80599357   28970.81885548   39459.53349132
C        5.67929784       0.64934885       3.31179763       0.00000000     253.17807164    -373.30819128     156.27829306
C        2.54532935       6.65419263       6.37954122       0.00000000  -66244.65953995 -930405.56104204 -225568.80553463
C        1.44650891       6.09987908       3.43634826       0.00000000  -65017.05944523 -649951.91926401   31026.60766079
C        2.37303373       0.84357945       9.41731577       0.00000000     -33.07147163    -107.29668828       2.43502358
C       -8.18993994       0.80755563       0.78010077       0.00000000    -344.50032802     622.27193485     552.87956756
C        2.68496304       4.18903970       6.47714549       0.00000000  -86327.59227281  757575.82481600 -286463.97361242
N        6.94449938       1.07537179      -7.01870430       0.00000000      43.68872784     -74.00894693     -66.18583528
C        2.09265356       8.65314694       4.21474660       0.00000000  188162.57374444 -116957.55521963  145196.34865385
C        2.66678595       4.06040629      -3.11008926       0.00000000       0.83115835       1.18479154     -62.60954767
C       10.76821732       0.59236030       8.35779498       0.00000000      58.87175886     111.33182238    -410.14464491
C       12.07097122       3.99998090       6.07805988       0.00000000   50637.15981320   25112.49820863  -49680.05772660
C        2.86121076       7.53859487       2.04284877       0.00000000  -35816.34303330  -21992.65268668    8339.92337685
C        3.43952545       8.17529521       4.22941432       0.00000000   25832.63952734  -25030.15994065   28943.53039281
C        4.02754568       1.55276013       1.02777859       0.00000000   -1052.89806466    1037.98446328    1328.18299133
C        0.80778813       4.91366940       3.34413919       0.00000000   93853.37303438  224561.46109240    4998.27225282
C        1.01604704       6.29652218       2.59683517       0.00000000  136961.86518395   52918.61029021  355303.15434029
C       -3.61609940       9.45967435       4.05173343       0.00000000     118.08710798     651.08559681      67.30106720
C       -5.02088139       9.71620736       0.76532020       0.00000000      54.91801131     106.14864713     141.40584193
C        1.44380379       4.31933616       3.94500961       0.00000000 -197408.24411689 -464377.22965511  230883.69217785
C        3.47058970       2.53225807       5.76434743       0.00000000  -22270.72028453   52753.98679304   16358.35948459
C       -0.29058114       4.71084523       5.65190517       0.00000000    1595.75539878  -22060.15097901  -39176.98937826
C        1.51164325       5.82768514       3.64164737       0.00000000 -531899.98927834 1389069.00455541   43074.16234502
C        0.41371061       8.99694389       2.62268854       0.00000000    4345.83778599   -8323.51429552     253.43747952
C        0.33422957      -1.13255048      16.29316646       0.00000000    -219.11709876      61.38266054     178.15672494
N        3.16586483       0.19599864      -2.12447222       0.00000000      -1.42698790      -0.97077901      -3.51887932
C        1.90040169       7.57212575       6.41674887       0.00000000   28623.94762868   68939.95485985   56130.21356147
C        2.35908220       8.82400878       4.85101416       0.00000000 -154728.78287628 -145586.73023010 -243899.47488890
C        8.58172161       8.78628126       4.88270616       0.00000000     183.04959455     173.66111236    -109.39051512
C       -0.76662137       0.03641139      -2.77927144       0.00000000       0.58105758       1.01566664      -0.97663555
C        3.52979579       5.03930755       4.68725785       0.00000000   87856.86419542  144617.82452668  654217.35789365
C        5.51870837       6.16372455       3.31378969       0.00000000  -12913.84685138   -4998.22799018   10936.12512747
C       -2.55060152      19.61391334      -0.84764177       0.00000000    -366.38807333    -497.48774128     994.16240297
C       13.64667312       2.42895430       5.20927736       0.00000000    9497.50166754   29904.82631340   50182.72337720
C       10.68316331       2.74211115       4.87195950       0.00000000     600.91608840    -185.64237749   -1941.89660813
C       11.65026521       7.52713287       2.93467185       0.00000000   38465.27609020  -25211.62010677  -22219.60591008
C        2.08275021       8.27978720       3.90308018       0.00000000  -46752.06321736  161159.19464443  143140.89113834
C        7.55322803      10.61549486       3.70423020       0.00000000    -155.32030598    3481.02188973     235.91006361
Os       2.28208353       5.44966202       5.77802913       0.00000000 -14328514.84367168 -4237847.31114389 -17048765.26324756
O        1.85583154     -10.93871970       8.48550011       1.00000000   -1449.36005927    8318.56961007    3630.81704475
O        2.50827029       5.52367258       6.07618679       1.00000000 14297420.55947567 4292698.98151633 16115724.54842852
