53
Lattice="12.336457 0.0 0.0 -6.168228499999997 10.683685154694365 0.0 0.0 0.0 15.0" Properties=species:S:1:pos:R:3:forces:R:3 energy=-472.65030442341214 free_energy=-472.65030442341214 stress="-0.0015321251150510501 8.227806034737767e-07 -2.4000365092780576e-05 8.227806034737767e-07 0.0007943816515713681 2.3668664621017907e-05 -2.4000365092780576e-05 2.3668664621017907e-05 6.5475657649744094e-06" pbc="T T T"
C        0.01689091      -0.04677917       3.69261686       0.00044254      -0.00598775       0.00030375
C       -1.21531276       2.09068412       3.74456117      -0.00032036      -0.00326446       0.00725560
C       -2.44719686       4.22546236       3.76523319       0.00146381       0.00343103       0.00197895
C       -3.68116139       6.36313475       3.72425958      -0.00374642       0.00140733       0.00163827
C       -4.91422625       8.50167983       3.69365245      -0.00502022      -0.00516592       0.00596298
C        2.48682885      -0.04550726       3.68015146       0.00468827       0.00919964       0.00024251
C        1.25127286       2.09014062       3.76202088      -0.00676730      -0.00106691       0.00410090
C        0.02072039       4.24531911       3.91235512       0.00481300       0.00025908       0.00108515
C       -1.22004638       6.37152543       3.79918378       0.00145254      -0.00243841       0.00113510
C       -2.44776686       8.50160084       3.68784872       0.00175662      -0.00010642       0.01329940
C        4.95667544      -0.04699502       3.69621993       0.00215875      -0.00066157      -0.00098878
C        3.72310383       2.08911982       3.77757622       0.00494098       0.00283965       0.00787667
C        2.48483329       4.16878383       4.18311222       0.00050555      -0.00293720      -0.00550692
N        1.14101239       6.42111843       4.23098190      -0.00146323       0.00865959      -0.00037846
C        0.01811145       8.49043431       3.76675098      -0.00315704       0.00531716       0.00604583
C        7.42486409      -0.06181866       3.73683627      -0.00197027      -0.00090334      -0.00279251
C        6.18864299       2.09133594       3.76229255       0.00229903      -0.00578524       0.00789805
C        4.95302084       4.24582718       3.94557669      -0.00114402      -0.00201205       0.00037892
N        3.83201682       6.42525135       4.23730562       0.00642449       0.00641265       0.00232354
C        2.48654037       8.45193578       3.86205614       0.00042587       0.00368837      -0.00080322
C        9.88581419      -0.06160438       3.73350475      -0.00368918      -0.00899968      -0.00795362
C        8.65473763       2.08352657       3.74217789       0.00412414       0.00246552       0.00521637
C        7.42070481       4.22564935       3.77941878      -0.00698198       0.00643877       0.00506344
C        6.19487506       6.37216651       3.81967838      -0.00816564      -0.00189047      -0.00701112
C        4.95636739       8.48993584       3.76843474       0.00075676       0.00295282      -0.00212912
C        0.01802445       1.37937391       3.72081995      -0.00320299      -0.00644789      -0.00603465
C       -1.21034816       3.52152577       3.79321182       0.00365585       0.00108353       0.00102865
C       -2.44839156       5.64958117       3.75348166      -0.00125523       0.00228163       0.00008762
C       -3.68101920       7.78760980       3.69414420      -0.00149361      -0.00093651       0.00112768
C       -4.91599728       9.92787496       3.67951486       0.00460331      -0.00190499      -0.01102001
C        2.48730822       1.37810209       3.73201235       0.00051566       0.01106204      -0.00660071
C        1.25190050       3.52166563       3.92439411      -0.00100989      -0.00412788       0.00395307
C        0.00592868       5.67817401       3.96950044       0.00399664       0.00153684       0.00183000
C       -1.21963204       7.78914131       3.74747038       0.00106935      -0.00246353       0.00169733
C       -2.44686175       9.92778606       3.67784871       0.00335872       0.00236790      -0.00144526
C        4.95574613       1.37916035       3.73386642       0.00244968      -0.00349707       0.00505388
C        3.72173514       3.52039394       3.95043324       0.00103933       0.00098249       0.00337218
C        1.22990326       7.76882353       3.92431399      -0.00287805       0.00940098       0.00291129
C        0.02296659       9.91920875       3.71976138      -0.00110719       0.00203828       0.00342542
C        7.42117461       1.36991507       3.74028319       0.00415881      -0.00153216      -0.01427241
C        6.18353513       3.52223231       3.81991018      -0.00320756      -0.00329101      -0.00301743
C        4.96474536       5.68085152       3.99362910      -0.00235052      -0.00137466      -0.00160533
C        3.74424075       7.76498357       3.92261134       0.00379859       0.00538125      -0.00786271
C        2.48711357       9.89008272       3.76328707      -0.00499048      -0.00279304      -0.00301038
C        9.88846580       1.36976025       3.73133175       0.00124876      -0.00686588      -0.00614989
C        8.65483690       3.51035293       3.75411916      -0.00317292       0.00780901      -0.00907462
C        7.42218974       5.65014007       3.76629139      -0.00657599       0.00598003       0.00311072
C        6.19428296       7.78864151       3.75713901      -0.00727450      -0.00493380       0.00074471
C        4.95112899       9.91901085       3.71757744      -0.00153760      -0.00190278       0.00430245
Os       2.46440193       5.61214824       5.52003019       0.01146791      -0.00605345      -0.00311472
O        2.18216367       4.45197983       6.76948386      -0.01116049      -0.00984273       0.00118291
O        2.69024932       7.38667183       6.46868320      -0.00081266       0.00123711      -0.00826316
H        2.31871568       7.27935092       7.36190149       0.01684039      -0.00504591       0.00340171
