52
Lattice="12.336457 0.0 0.0 -6.168228499999997 10.683685154694365 0.0 0.0 0.0 15.0" Properties=species:S:1:pos:R:3:forces:R:3 energy=-451.3798145103028 free_energy=-451.3798145103028 stress="-0.003743037383422107 0.000804210949329485 3.664187171106748e-07 0.000804210949329485 0.0006355791474654756 -2.091964016503952e-06 3.664187171106748e-07 -2.091964016503952e-06 2.9523201128610147e-05" pbc="T T T"
C        0.08011651      -0.02856135       3.86444781      -0.00189785       0.00644070      -0.00237694
C       -1.16594488       2.09355772       3.63563915       0.00159068       0.00442590      -0.00143031
C       -2.43067727       4.24469368       3.72960420       0.00151079       0.00137887      -0.00217962
C       -3.63940434       6.38875717       3.94321831      -0.00184451      -0.00521819      -0.00468000
C       -4.85371564       8.52959653       4.00838490       0.00417510      -0.00305427       0.00676435
C        2.55005013      -0.00482672       3.93639045      -0.00513990      -0.00266369      -0.00358720
C        1.33301370       2.05478145       3.48284346       0.00745293       0.00375548       0.01503208
C       -0.12862328       4.26761268       3.03737124       0.00902365      -0.00617486      -0.00638648
C       -1.23719613       6.41100878       3.48209249       0.00003427      -0.00009300      -0.00321397
C       -2.38843953       8.53055837       3.86175866      -0.00126822      -0.00155382       0.00155193
C        5.01145802      -0.01330958       3.94192963       0.00481885       0.00100539       0.00278910
C        3.80109000       2.16261897       3.93657939      -0.00514014       0.00515882       0.00100618
S        1.38793649       6.38191832       2.55683967       0.00325855       0.01431961       0.00775845
C        0.06935509       8.53082067       3.64576218       0.00012967      -0.00116662       0.00597230
C        7.48369764      -0.03940005       3.92849666       0.00029614       0.00356289      -0.00034655
C        6.26010784       2.09906874       4.05499929      -0.00459902       0.00155615      -0.00112881
C        5.03668963       4.21431927       4.10009405       0.00316969      -0.00459047      -0.00100058
C        3.81664223       6.34956018       3.99167325      -0.00137479      -0.00268509      -0.00698942
C        2.54416443       8.50396773       3.78278226      -0.00782991       0.00605246       0.00164748
C        9.95157820      -0.03995253       3.90491472       0.00312680      -0.00392719       0.00164964
C        8.71883538       2.10044824       3.93463588      -0.00627798      -0.00367064       0.00434454
C        7.48006188       4.24003863       4.06042142       0.00251805       0.00267066      -0.00702126
C        6.25585565       6.38358848       4.10157870       0.00254381      -0.00526663      -0.00596095
C        5.00780828       8.50239343       3.98338027       0.00593393      -0.00539278      -0.00301959
C        0.08147868       1.39250716       3.64802670       0.00416690       0.00714856       0.00542471
C       -1.23208669       3.50963539       3.47038406       0.00625288       0.00302583       0.00420738
C       -2.43456357       5.67409851       3.73449417       0.00070682       0.00080161       0.00362464
C       -3.62652555       7.81608109       3.95155611       0.00040097      -0.00836290      -0.00420527
C       -4.85247557       9.95734543       3.94563182      -0.00599939      -0.00030001       0.00201681
C        2.55523163       1.42979340       3.81724388       0.00182633      -0.00256916       0.00328781
S        1.40767010       3.55068519       2.55993426      -0.00393889      -0.00742719       0.01160761
C       -0.13231667       5.65528248       3.04914378      -0.00131305      -0.00481701      -0.00298431
C       -1.17561567       7.82665730       3.64678147       0.00074429       0.00267242       0.00099820
C       -2.38860725       9.96041229       3.93533233      -0.00007215       0.00142408      -0.00593869
C        5.01692648       1.41645930       4.00581084      -0.00474140       0.00518313      -0.01064655
N        3.86111993       3.53732009       4.00691880      -0.00461769       0.00477294      -0.00748529
C        1.31828349       7.87950239       3.45836622      -0.00504694      -0.00250696       0.00702326
C        0.07646331       9.94765476       3.86582383       0.00643275      -0.00023532      -0.00220724
C        7.49021135       1.38554151       3.99895492      -0.00795114      -0.00066293       0.00740324
C        6.26611068       3.51055000       4.10397369       0.00516703      -0.00025540      -0.00443433
C        5.02260078       5.65130992       4.09954055       0.00171256      -0.00426822       0.00352216
C        3.77310686       7.76066209       3.90808670      -0.00540994       0.00145654       0.00557862
C        2.54840179       9.93171156       3.90250257      -0.00179939       0.00382249      -0.00213673
C        9.95614260       1.38826687       3.84012017      -0.00100874      -0.00179127      -0.00021427
C        8.70401244       3.52598116       3.93561989      -0.00044993      -0.00051693      -0.00197726
C        7.47543595       5.66843965       4.06217880      -0.00008725      -0.00134470      -0.00514663
C        6.24964128       7.80844113       4.04825325       0.00778612      -0.00531857       0.00056760
C        5.01315896       9.93166323       3.92049704       0.00368153      -0.00324139       0.00144131
Os       2.36095752       4.96332889       4.06333647      -0.01436465      -0.00034328      -0.00500318
O        2.16685151       4.86639364       5.91529609       0.00177275       0.00876972       0.00982186
O        1.01296372       5.73439453       6.26153383      -0.00062286       0.00403002      -0.00349882
H        0.94073650       5.49461168       7.21281183       0.00256192      -0.00401579      -0.00984105
