52
Lattice="12.336457 0.0 0.0 -6.168228499999997 10.683685154694365 0.0 0.0 0.0 15.0" Properties=species:S:1:pos:R:3:initial_magmoms:R:1:forces:R:3 energy=-1051443.350016137 free_energy=-1051443.350016137 stress="1280.3554454798082 -374.28738683140057 681.941077841515 -374.28738683140057 1367.848246322628 -49.52774475756445 681.941077841515 -49.52774475756445 1387.651535739738" pbc="T T T"
C        0.13448656       1.24051165       6.66422923       0.00000000   -9590.03661780   -3509.59643321   -1574.13911238
C      -11.29254281      -6.79998650      -1.83080332       0.00000000      -2.39963266      -1.04916664      -0.42155094
C       -2.16270443       2.87259955       4.91268022       0.00000000   18202.44944608    3556.90106711   -4688.74209338
C       -5.98211388      -2.83224216       4.81092761       0.00000000   16314.03282299  -46298.56250532    6891.92147541
C      -11.19889973       5.75684624       3.83515869       0.00000000 -129994.27000701 -215051.67644076   52556.52201990
C        1.03958824       3.09177959       4.84788852       0.00000000 1233603.76779112  547874.13370029 -403208.35579869
C        0.37917567       3.19700194       5.40710356       0.00000000  428512.24514567  209243.81657143 -244467.03379069
C        1.15544759       3.52751003       4.39205180       0.00000000 -951264.61181524 -502710.32233071 1420918.06344563
C        2.97057447       5.90315398       3.04146810       0.00000000   90846.41411622   15979.23506765   85661.66916192
C       -1.41745721       5.95330761       3.84063719       0.00000000  -25886.95429145    2860.02856135  -15094.31933465
C        4.45841171       0.03690974       3.87384634       0.00000000      64.49180846   -2655.15885748    -458.91978026
C        3.98763135      10.52287768      -0.25436347       0.00000000      26.47289127      55.15153898      34.63625848
N        3.91916192       6.08793680       3.78857172       0.00000000  234221.12857016  265685.95816489 -246873.38464104
N        2.40627662       6.84339177     -11.29035223       0.00000000  217422.21636965  -48854.97766336   17653.90564702
C        0.86859962       4.96437413       2.90979036       0.00000000   64561.10220394   31041.60110330   98220.81352495
C        8.41580798       9.44698978       4.65906313       0.00000000    -926.06885461    3327.46902383      80.27191579
C        7.95517848      11.92391543       5.13511598       0.00000000   20871.96776838   57898.31665072    8357.73835704
C        4.95932938       4.03649830       3.33971168       0.00000000  -90224.89099987   69374.66705982   84853.45898381
P        1.03532662       5.42540732       1.83045261       0.00000000  -14464.07047395   -9506.39282033   56249.18641014
C        4.92287002      11.36687260       4.04399550       0.00000000    3376.70133479    6041.76091111    -342.30123381
C       13.65582895       3.02336147       5.03200208       0.00000000 -608027.36681059 1246713.89105054 -665462.75649207
C        8.60755572       1.55571705       0.97426705       0.00000000     312.90465184     120.17309119     195.56404493
C       12.32665049       5.12363677       4.35125640       0.00000000  199792.72470229   22423.01745670   49387.59003729
C        4.82045865       6.82713263       5.63251377       0.00000000  -85034.62826357  -62794.88466807  -94067.91854016
C        4.41763301       6.88530390       4.79465005       0.00000000  -15789.59883699  -71438.29191414  -50214.12827394
C       -0.49462745       2.48352901       3.87440765       0.00000000   31759.10653533  -27339.14811812   40130.62330548
C       -0.23601060       4.94153411       5.35658449       0.00000000  291851.32146195   43167.71777090   13064.57031702
C       -0.89459764       8.96745066       5.69153696       0.00000000   -2615.43402921    4599.64652371    -898.17933178
C        0.01908182       6.54510358       4.41329300       0.00000000   94944.29669006  -64832.65686975    7471.99835972
C       -1.20186688      11.64064443       3.38969875       0.00000000    1279.11043162   -2353.96830908   -1641.33277819
C        1.10227775       3.20938879       8.52556152       0.00000000   -9123.41107541  -18163.36066567   46035.01092039
C        0.26215242       3.35404955       4.42951191       0.00000000  771617.75795053  222493.69300733   13874.15680650
C        1.21275955       3.89144101       4.46095078       0.00000000 -702014.19853112 -995390.80993258 -365255.01957170
C       -2.38766783       3.12528311       7.77115471       0.00000000     676.46068764    -455.54938600   -1484.43028737
C       -1.62992098       6.48299907       3.22607013       0.00000000   -3385.50854734   -3708.44566573    4651.25660688
C        4.57102207      -0.70288572       4.99151394       0.00000000     931.37524884    -981.57873979    -223.37682590
C        3.98228074       9.02880931       2.31935880       0.00000000   -1728.27483860   -5807.02100049    4551.94382566
C       -0.27245757      -2.46586633      -7.47290893       0.00000000    1633.37069925    2247.90598081    1684.64206677
C        1.70209953      12.16256105       0.80878575       0.00000000     -86.92258840      24.40214262      36.93521140
C       -2.70098556      -3.50098884       3.38712628       0.00000000  -54405.52921736 -168515.92689633  149157.08299412
C        4.52250679       5.24284448       3.56669815       0.00000000  -77410.42326608   31252.50823629  138852.26105589
C        5.52634541       4.95734720       4.01524697       0.00000000 -196078.51484428   19845.05075033   64656.15562639
C        0.69645477       6.81399224       4.76194685       0.00000000  -15412.35573884  -82070.93318291   13431.59192974
C        4.55050852      18.51920863      12.85453335       0.00000000       0.13102707      -6.61137521       4.99419581
C       12.20569415       4.90696962       3.25084344       0.00000000  102572.90672438   19487.88628731   72278.96523570
C       12.21217888       4.78900921       1.39575487       0.00000000   -4075.83587647    -754.43269876   14745.80619169
C        6.04647534       3.00612899      -3.83422733       0.00000000       2.12383206       1.08596098       2.68969084
C        3.72403133       7.51873162       5.79316163       0.00000000   51152.07637723   -6973.06281529  -59966.00536118
C        8.99420345       5.96494025      15.60387811       0.00000000     404.92233107    -105.94205769     496.00255596
Os       2.82707418       5.06276546       5.39775562       0.00000000 10457025.57353659 9399310.42418633 -10474688.64344818
O        2.11581810       4.36607191       6.63716802       1.00000000 1301556.35606590 1548458.18833180 -2760809.16628224
O        2.60357665       4.88799733       5.60792483       1.00000000 -12637994.20406558 -11432804.26968390 12925230.54635030
