51
Lattice="12.336457 0.0 0.0 -6.168228499999997 10.683685154694365 0.0 0.0 0.0 15.0" Properties=species:S:1:pos:R:3:initial_magmoms:R:1:forces:R:3 energy=-566151.107308636 free_energy=-566151.107308636 stress="502.9642182761254 361.31955302446204 -722.3279605084232 361.31955302446204 470.59761824831713 -550.5667781058969 -722.3279605084232 -550.5667781058969 1100.422400685583" pbc="T T T"
C        1.26359292      -1.14668682       6.33060400       0.00000000     -23.46452791     -43.12899369     -17.09677351
C        0.84395602       0.42443261       7.20383877       0.00000000      16.35919369    -117.89894864     -57.98971321
C       -2.86482638       4.96744285      -0.28714202       0.00000000     -17.99528246     -20.88713149     -12.53853688
C       -5.25290304       3.60427759       1.64949023       0.00000000   -4162.10251611   -4218.72219509    3960.08485461
C       -7.39916121       6.81502818       4.51406524       0.00000000    1060.14562269   13781.50774168   -1407.61285943
C        4.05280625       3.13469689       3.21442651       0.00000000   52700.57663708   27624.36221354   28532.70786280
C        4.64688893       5.35923402      -1.79357272       0.00000000      -9.08643365      30.06821556      43.57167094
C        6.53560864       3.40066315       3.27074908       0.00000000  -26725.49980836   13247.73222554  -15892.37224444
C       -2.74783413       9.13049035       5.07797694       0.00000000       0.17839538      27.25594694     -23.63237368
C       -2.90466829       7.23153876       4.02460166       0.00000000     627.37483683     493.65839770     -87.34178196
C        6.00730307       4.19665256       4.20974193       0.00000000 -381919.09422931 -279904.17952017 -380252.36053775
C        5.15710507       3.29203591       5.00103839       0.00000000   12333.70536232   -2136.43417797 -147249.34755405
N        4.89547476       4.46198103      -1.87551324       0.00000000      34.99634911     -47.74853031      51.88183992
C       -1.13305810       1.93717028       9.19773453       0.00000000     -11.43919426       1.19794925      -0.96014936
C       13.25872889       1.34878882       7.50227354       0.00000000     135.47015690     199.75066271    -121.48324117
C        3.22780548       5.40659737      -3.26025182       0.00000000      -0.32654365      -0.84929618     -25.84562840
C        8.78695462       8.76886835       1.93713654       0.00000000       0.91870400       3.30008571       6.21216704
N       -2.46469923       9.37256199       6.26145746       0.00000000      63.49680083     215.10030222     -49.65221381
C       -1.92497262       6.62895872       7.91588780       0.00000000     -11.35075774      -4.83313164      -5.94722265
C        9.02508435      -4.32683031       6.36341449       0.00000000   -5188.40681094   14580.49490881   -5716.01586604
C        8.28339094       3.58003766       3.25969632       0.00000000    4635.14649931   -9675.23173747   -8805.51049526
C        9.44290205       0.75600181       9.22609102       0.00000000       6.06176051      -1.96715545       1.79871564
C        2.69024743       2.57166454      -0.07640579       0.00000000      -9.65019107     191.09335426     104.79021183
C        5.97153835       4.69342952       3.42868884       0.00000000     313.15839997   58189.55497792 -215028.85189461
C        3.88909549       1.60543415       6.50026384       0.00000000   -4603.48120361  -20476.84967623    2636.88331909
C        0.78998905       6.75215249       2.46711246       0.00000000      16.93050996     -13.91829257     -11.27939596
C       -6.72697541       5.18655516      -3.66115728       0.00000000     -37.39271214      -6.39055080    -179.59091592
C       -7.77539093      10.65382546       1.14779997       0.00000000     -24.22934158       9.27573432      17.69669075
C       -2.36903198      15.06847041       3.24356005       0.00000000   -5276.53996179  -28630.13598763   -8053.42770493
C        6.47828568       2.89724510       9.67306014       0.00000000    -304.55716091     293.39260027    -540.75013236
N        3.18753667       4.02252628       1.38363393       0.00000000    2523.16816662   -1095.42606217    -443.02241638
C       -0.79268010      13.26274279       3.04573981       0.00000000   -6577.94335497  -34731.24791278  -41613.99651584
C       -3.96152377       6.96502581       4.82395456       0.00000000    1830.03029357    2500.10953109     428.86554943
C       -9.05752411      10.11932030      11.66046794       0.00000000      -0.06330800       0.50026699      -1.01723308
C        5.75483157       1.36834687       1.96618771       0.00000000   -1533.51447750   -2679.04132070   -2865.82518471
P        1.49787039       3.62227026       1.70458277       0.00000000    -370.77186624    -184.59521814   -1569.63485142
C        0.65601811       9.80606977       3.78107433       0.00000000     -17.78230987    -407.98396681     -85.20447648
C       -1.61442667      13.09546452       3.46347426       0.00000000   37976.86773153   78978.50713987   28205.52645255
C        5.98933571       2.42540165       4.36448532       0.00000000  -15811.46715818   91553.14650177  -34407.60404805
C        0.47993984       5.63217123       0.11825414       0.00000000       5.92338417      24.97757165       0.82259276
C        5.85160832       4.11347580       4.09294210       0.00000000  216269.50208306  205488.08588667  892956.20051187
C        2.19000458       2.54803785       5.68931863       0.00000000  -11027.31204274   -8784.77504509   -1522.70672088
C        4.40624251       6.19209668       4.15509440       0.00000000  -15943.39297371    4354.61212058  -11669.16823452
C       12.72349640       3.25285255       2.23506416       0.00000000    -558.07025995    -163.54529728     200.42479169
C       10.20094681       3.27215373       7.85973361       0.00000000     105.50783054     -24.48533912      95.24211863
C        7.95271751       2.42709177       2.49409755       0.00000000   -4358.12825974    5256.85960136    1732.02254449
C        3.00991080       0.80506489       0.06788987       0.00000000      79.96110206       1.66217028     107.72560928
C        2.27767298       9.57442259       1.34521833       0.00000000       7.09295640      -2.94737146      -5.45413689
Os       4.53017353       4.57422994       5.85760462       0.00000000 -3306813.17949877 -3970832.05298731 5650595.75992234
O        5.39908251       4.39052526       6.61651798       1.00000000  165537.60398006  132958.86951398  -53052.05657661
O        4.28623395       4.37509735       6.20217588       1.00000000 3295056.06542859 3714200.20022550 -5678902.91979539
