53
Lattice="12.336457 0.0 0.0 -6.168228499999997 10.683685154694365 0.0 0.0 0.0 15.0" Properties=species:S:1:pos:R:3:forces:R:3 energy=-466.509124994696 free_energy=-466.509124994696 stress="-0.00015563981195670435 0.004129350074827298 4.447979021027861e-05 0.004129350074827298 -0.0049947448854423615 2.8898554911012384e-05 4.447979021027861e-05 2.8898554911012384e-05 1.5301562419041898e-06" pbc="T T T"
C       -0.01582956      -0.01570257       3.81618793       0.00062224       0.00160518       0.00045679
C       -1.21953940       2.14446108       3.87548632      -0.00250447      -0.00572283      -0.00597141
C       -2.44643428       4.26842963       3.87227471       0.00186380       0.00845508      -0.00395002
C       -3.71519529       6.39108678       3.81307369       0.00542543       0.00515019       0.00047729
C       -4.96681821       8.51993406       3.77389738       0.00223425      -0.00651016       0.00502403
C        2.44097121      -0.03111636       3.78486403      -0.00705774       0.00130718      -0.00151359
C        1.24085845       2.12663317       3.84432139       0.00115733       0.00762851      -0.00303395
C        0.05431483       4.29594830       3.93457370       0.00913568      -0.00266252      -0.01145790
C       -1.23149525       6.40848074       3.86380958       0.00060945      -0.00356738      -0.00290242
C       -2.50020326       8.52681833       3.79704210      -0.00239635      -0.00746768      -0.00023005
C        4.90991343      -0.02279345       3.74560787       0.00448994       0.00218937      -0.00503120
C        3.68401911       2.07558722       3.71111996      -0.00248321       0.00326035      -0.00223599
N        2.52862286       4.18079307       3.83958472       0.00427583      -0.00113041      -0.00305976
N        1.19120987       6.49522761       3.87012137      -0.00118737       0.00604794      -0.00611202
C       -0.05386459       8.55015112       3.75389236      -0.00238351      -0.00417816      -0.00719656
C        7.37855950      -0.00153569       3.75357830       0.00386195       0.00109468       0.00493032
C        6.16288030       2.10438836       3.72696938       0.00345734      -0.00135399       0.00906905
C        4.93169432       4.17854132       3.61370899      -0.00651745      -0.00278518       0.00746586
P        3.63272711       6.37518532       2.45697198      -0.00981892      -0.00432151       0.00015454
C        2.39064660       8.57785618       3.66548982       0.00058490       0.00888469       0.00328756
C        9.85846187       0.00466721       3.79807183      -0.00384137       0.00067773      -0.00839023
C        8.63916773       2.13036078       3.81623024       0.00158044      -0.00495565      -0.00291761
C        7.40828679       4.24860130       3.76992477      -0.00181879      -0.00263130       0.00166881
C        6.14915275       6.38310722       3.68993031       0.00985094       0.00221653       0.00951852
C        4.90903727       8.53051728       3.70768689      -0.00107574       0.00871693       0.00954472
C        0.00049623       1.41810942       3.85372618       0.00173791       0.00104712      -0.00094827
C       -1.19404706       3.57545379       3.90380109       0.00341512       0.00008161       0.00133311
C       -2.46527597       5.68825795       3.85728554      -0.00008361       0.00892626      -0.00225643
C       -3.73305425       7.81092798       3.79987273       0.00072761      -0.00348196      -0.00554219
C       -4.96353597       9.94296049       3.79668380      -0.00435364      -0.00725852      -0.00246785
C        2.44949747       1.38669496       3.77863210      -0.00386570       0.00678247       0.00777993
C        1.28737257       3.55729744       3.89371242       0.01028050       0.00150076      -0.00124087
C        0.03082125       5.73326507       3.91217789       0.00163840      -0.00178736      -0.00445974
C       -1.26786593       7.82534489       3.80684180      -0.00173537      -0.00705489       0.00204688
C       -2.49398532       9.94736181       3.77223017      -0.00239477      -0.00224636      -0.00552817
C        4.92493400       1.39132345       3.71651330       0.00063756       0.00463698       0.00542414
C        3.70000699       3.47988978       3.67560087      -0.00358574      -0.00152442       0.00401111
C        1.17007042       7.86124263       3.72666451       0.00150226       0.00790624      -0.00384365
C       -0.02600425       9.96664614       3.74282884       0.00551319      -0.00279579       0.00707183
C        7.39797625       1.41387383       3.77041822       0.00445830      -0.00336293      -0.00293693
C        6.17444550       3.51991117       3.70383970      -0.00673982      -0.00342374       0.00386199
C        4.88911646       5.62181250       3.61157336       0.00255166       0.00032932       0.00599940
C        3.61904137       7.81902699       3.64255349      -0.00235090       0.00206395      -0.00583389
C        2.44185685       9.98381461       3.74580285       0.00062117       0.00630405       0.00011465
C        9.87572163       1.42664588       3.83860148      -0.00244024      -0.00799943      -0.00114496
C        8.64787773       3.55290553       3.82580760       0.00139486      -0.00013434       0.00180108
C        7.38096000       5.67864032       3.76747173       0.01105444       0.00287046       0.00062948
C        6.12601976       7.80144290       3.71429321       0.00167411       0.00469270       0.00676030
C        4.91517037       9.94965073       3.78630805      -0.00230102       0.00712296       0.00108829
Os       3.02795631       6.00226605       4.53608621       0.00543070      -0.00592528      -0.00161263
O        3.81951281       6.44077138       6.19945136      -0.00414966      -0.01033135       0.00100566
O        2.82881676       6.01118932       7.22525605      -0.01811835       0.00277265      -0.00069565
H        3.43252015       5.98771056       7.99821262      -0.00858356      -0.00965874       0.00198859
