52
Lattice="12.336457 0.0 0.0 -6.168228499999997 10.683685154694365 0.0 0.0 0.0 15.0" Properties=species:S:1:pos:R:3:initial_magmoms:R:1:forces:R:3 energy=-878402.6318627063 free_energy=-878402.6318627063 stress="-88.16215926840792 -488.2224572222077 -1446.511178585782 -488.2224572222077 631.8805925980677 -1486.3215232639845 -1446.511178585782 -1486.3215232639845 -534.5169519295492" pbc="T T T"
C        0.49288551       0.82012003       3.97834666       0.00000000   11111.00551325    6277.37636690  -12447.24249283
C        0.78169007       5.77746564       4.29696926       0.00000000  220306.57953107  326065.49001749   54805.87526739
C        2.85638290       5.82601196       8.72844705       0.00000000   -9659.52280802    9987.50871294  -65320.96572851
C       -6.01321064       4.68280311       5.88717814       0.00000000   -5803.81141379    3893.81348746   -1451.37522175
C       -7.10820772      11.71328138       3.60729979       0.00000000    8980.04550427   -3952.94387931    4077.92791238
C        1.04499711      -0.62017399       5.78795259       0.00000000     272.17509089    -370.04728163      24.93385279
C       -2.82924241       4.64727430       4.06926873       0.00000000    2503.60446552     708.45872683     278.21188331
C        1.36387760       6.02303148       4.75516650       0.00000000  176004.68786679    1022.95889706  203874.74964212
C       -5.11589699       5.79729158      10.23731201       0.00000000     442.36168582    1030.74155833   -1036.19041757
C       -1.62227595       8.26408719       3.68248901       0.00000000    2537.05835490   -1910.89997739   -4521.01357053
C        2.05579450       2.51018867       4.26824412       0.00000000   -2569.37805372     915.85895080   -1825.14315517
C        5.49876074       4.54252150       1.93489698       0.00000000    -823.62149287    -124.63268832     426.18923684
N        2.22664852       6.32108788       3.77200582       0.00000000 -199847.64199068  -91754.28928183 -480080.52670281
O        3.19154163      -3.53731950      -0.44449173       0.00000000       0.26866424      -2.45212917      -6.53862127
C       -4.91407328      -0.00698218      -5.67603183       0.00000000   -1825.47974680    2755.88250432    2374.12899727
C        8.40154094       1.07487784       3.87394328       0.00000000    -188.03963728    -546.32527663    -483.73242715
C        2.97291785       5.31346532       4.64821056       0.00000000 -115898.30229784  101317.17690479 -325436.58918090
C        0.28734871       0.34245321       4.52955668       0.00000000  -15293.94816505  -17419.39995551    3001.43627364
O        2.10970285       4.78387420       2.09157363       0.00000000   -4055.05919852  -19292.77930134  -49296.33061519
C        2.32277716       7.43547500       2.56542212       0.00000000   34286.26174530   29008.66598464  421601.87233689
C        8.06263051      -3.00689644       3.78760349       0.00000000 -287974.11493017  -42963.92425381 -535983.55116376
C        8.61919888      -2.04109472       3.54516933       0.00000000 -139730.34165979 -269293.63851655  -40083.58230197
C        9.06974574       6.17322116       6.95133215       0.00000000     533.94077002     -42.88206143    -251.57432544
C        7.08123722       5.39731964      -4.34374283       0.00000000    -635.77789247    -901.20748493     866.38012433
C        1.75012125      10.49227702       5.97295027       0.00000000   17578.50924201  -42492.42741202   -4855.08939078
C       -2.02657630       3.77381734       2.88694748       0.00000000    2144.78872996    1057.67622448    1228.17390948
C       -4.93292509      10.09801383      -7.74368754       0.00000000    3534.81786251    2397.36370684     625.21568436
C        0.34462530       6.50198886       4.79275008       0.00000000  148403.30877720  -68305.03581925   47678.91348535
C       -0.19764133      10.53582227       5.81816777       0.00000000      33.05829467   -3320.29670917    -569.54516895
C       -6.10778890      10.78477400       3.42290029       0.00000000    4604.36187792   16857.45955270   14187.32964898
C        5.48996451      -5.48167256       3.97988281       0.00000000  -32808.21210767  -34514.49836715  -18665.77463883
C        2.29333049       6.90172074       3.31913782       0.00000000  -16390.08399805   28555.91191091  844634.71272883
C        1.11262429       6.72494927       6.26690330       0.00000000  -50028.48789720  -43196.89858016   16560.36042153
C        1.28781215       6.43213374       4.64321014       0.00000000 -346798.16932626  -97009.60437754 -1061280.39737731
C       -1.02451148       7.64773508       4.41208798       0.00000000  -41305.41101214   16131.18927995    5046.22068466
C        2.61788488      -0.21443593       6.58899202       0.00000000    -608.31747735    -195.36338908    -117.93494629
C        2.44331489       5.84718167       4.04084536       0.00000000 -226747.76508858  391394.36663642  196063.64136962
C        3.79519362       8.53909190       4.73803148       0.00000000   98015.44932746    9954.20606578  622646.04251110
C        0.86502687       7.68834522       3.86404403       0.00000000  247902.56609135  -35899.06675731   98880.28825003
C       10.12848280       5.53159583       6.29738213       0.00000000    3863.87385665     513.15171372   -1114.79043378
C        3.12536570       3.35638829       1.39007065       0.00000000    -748.00516330     894.68225040    1587.06306836
C        3.02880583       8.23614299       3.39182628       0.00000000 -170707.35393645 -133274.01385096  -63378.64069767
C        2.70887745       5.44892387       4.09098421       0.00000000   65304.87846913  -94579.21411484   38942.28623907
C        1.66318603       8.23338296       3.91714389       0.00000000  293585.14753521 -240901.20247454  -24498.99950170
C       10.13702738      -1.88922002       3.55929407       0.00000000  -51289.84451451  -43953.79987558  -24866.78044821
C       10.70438025       6.60511686       2.63474964       0.00000000    4098.18456301    -112.26854546    2782.70713873
C       12.41500635       5.03315769       6.37767751       0.00000000   12849.54212865  -11181.56663467    9042.61385123
C        8.98383290       2.42192921       0.26235701       0.00000000      16.01414641     -25.43103839      37.56090337
C        6.14966909      11.45300235       4.09977313       0.00000000  -12669.95730128   -2355.86019353  -10827.41043943
Os       2.98657424       7.45452026       5.68746934       0.00000000 -6800098.94588180 -5253785.96317481 -15103883.68813215
O        3.30458454       7.48408334       7.25421605       1.00000000 -343371.41408962  200647.71265337 -2587986.71038657
O        3.10610666       7.53026519       6.03349647       1.00000000 7518964.51698698 5402290.28129624 17828995.28206487
