51
Lattice="12.336457 0.0 0.0 -6.168228499999997 10.683685154694365 0.0 0.0 0.0 15.0" Properties=species:S:1:pos:R:3:initial_magmoms:R:1:forces:R:3 energy=-772946.0022891284 free_energy=-772946.0022891284 stress="-131.6615594374151 241.07884228678725 -1616.3300857717134 241.07884228678725 567.9996504993233 253.40050272316952 -1616.3300857717134 253.40050272316952 -539.9933864008531" pbc="T T T"
C       -0.74865601       1.93889910       1.34532288       0.00000000    2437.47891431    4824.58453116    5736.13806944
C       -2.22581768       3.92869514       3.82522365       0.00000000    6066.99443275    2499.93284111    1764.67380692
C       -2.21735279       0.91890332       6.48126598       0.00000000    1161.57714854    1576.61731748    -705.05440680
C        0.29134085       8.21339401       3.03741439       0.00000000   -3000.84031520   -1118.52820695    1253.31014986
C       -8.59671410       6.34600941       3.87152365       0.00000000  -86260.71363791  -17252.83776864   63867.41097738
C        1.80797390       2.76775767       4.72812320       0.00000000   24578.05736517   -1808.95665336    9924.40508048
C        0.77216365       4.52272528       4.61041524       0.00000000  -67014.81040024  -81696.22603207  291560.34350778
C        0.77152434       4.94751711       5.17116033       0.00000000 -878399.90160960 -335814.82476409   22220.79730062
C        0.07563736       4.77846610       5.00003533       0.00000000 -314205.51476202   41954.19705909 -525364.05993856
C       -0.24778006       5.45139188       2.39034294       0.00000000    5738.47105658       5.70881841   16850.89432283
C        2.12992953       2.71377021       2.62627918       0.00000000   -6918.65113295     568.26680642  -11598.98193606
C        2.92611330       4.27284837       3.36409484       0.00000000   -4314.56083373   -7058.40517812   39507.10258642
N        0.88907629       5.49635230       5.00340708       0.00000000  858425.24224178  142684.93548769  440621.51032590
C        4.08010071       2.78948232       1.03314714       0.00000000     673.75179325     -12.37163221    -325.61593687
C        7.21867618      -2.94904776       3.79851139       0.00000000   31182.09978278  -31138.75803966   17078.55443860
C       14.25402527       1.64160191       0.81113978       0.00000000    -683.89494279    2224.27248648    5721.34645388
C        0.07820860       3.44717699       3.33898443       0.00000000   21694.71406208   12000.15437007   35420.73299244
O        4.14518182       5.15454316       5.66645665       0.00000000 -398247.61174563 -281253.14143564  956245.48526864
C        1.80508879       6.68140286       4.56461446       0.00000000  532747.08459885   37069.10263415  161603.60999627
C        9.62701026      -3.30904599       4.80374889       0.00000000  -66648.26830469  -70347.19871188   17216.18012868
C        6.13622073       5.00134571       2.05101681       0.00000000   -1659.95027093      86.15460467     648.50790837
C        5.93584948       2.18373564       3.48243768       0.00000000     768.78019839    -935.44214486   -1411.55857269
C        2.54220995       1.74985311       3.30003010       0.00000000   -2613.75574345  -24842.89880478  -18081.77284313
C        1.35657801       6.74407836       4.95242748       0.00000000  216025.76234793 -293623.33995745   10708.81528535
C       -1.56475332       4.01653135       5.07684187       0.00000000   37595.22905316   65720.65557752  -21776.10478018
C        0.60396110       4.72578043       5.36936830       0.00000000  889117.41329210 -307043.04322607  164799.81209066
C       -6.76605919       5.89417030       4.16863339       0.00000000  -26159.34853222  -17681.26929226    8575.89288188
C       -7.98765472       9.58981594       1.17873083       0.00000000    -277.74354269    -334.79957460     467.30492985
C       -1.81020468      10.48567330       3.50238846       0.00000000    -362.76407529     150.13934156     204.11481724
C        3.16849324       3.59369044       4.45220747       0.00000000  -22083.96639495  -30959.39907592 -117434.27399543
N        1.67442624       4.91075767       2.10692872       0.00000000  -11036.36264563    8661.68649828  -17792.57587711
C        0.84374023       4.27326606       5.57178373       0.00000000 -205592.00763985  343883.27792279 -291165.75057145
C       -5.68018091       5.81941440       3.03831033       0.00000000     519.89335884    1591.24208867   -1279.76897457
C       -1.59254651       4.28870245       1.40865726       0.00000000    7944.56944685    1106.30200615    8664.76059755
C        3.98855069       4.06289496       3.63796749       0.00000000  -61278.33572410   22848.76619449   68151.05026388
O        2.78726113       3.75716889       3.87669532       0.00000000   50151.27784062  212310.34201793  354299.45410329
C        2.20229726       6.50609535       4.68312858       0.00000000 -616624.87882344 -140039.53034874   21295.92948675
C       -0.40062852       7.41601329       4.53248496       0.00000000  -10343.73000838   17297.98588888   -1229.16652092
C        7.73622603       6.87717510       1.46618527       0.00000000    -142.62403995    -142.83792405     333.16637173
C        2.61475058       5.19411173       3.71583168       0.00000000  -27422.22790391   53547.08934974  260375.47721462
C        5.96333608      14.83333996       3.06952329       0.00000000    8473.68013616   34505.74423201   44164.74271501
C        4.27062903       5.32632106       4.72197970       0.00000000  183459.04544910   60680.24705719 -295632.38969833
C       -0.07377678       8.74678064       5.59068021       0.00000000    2287.55554216   -6145.27577437   -4527.75324058
C        9.92180951       2.69148075       5.00545162       0.00000000     266.76514982    2238.26243824   -1215.63169675
C        9.07074221       5.49979989       5.44161023       0.00000000    3036.66562293   -1177.85257460    -476.21632910
C       11.82393465       9.93170344       0.09659889       0.00000000      23.24640193     -61.37223135     135.02784495
C       22.65915833       8.73545360      -3.11727007       0.00000000       0.42282756      -0.87014745      -0.57813813
C        3.72422043       7.25749983       5.53989033       0.00000000  -34659.75797741    -750.95832147  -46186.94101486
Os       2.80130017       4.91932752       6.44803125       0.00000000 -10302634.22440840 3305442.34989982 -14216540.09765605
O        0.28661109       4.42447477       8.84644955       1.00000000  -14879.31704092    3117.59566978  -10879.19035127
O        3.00444464       4.83261893       6.78326618       1.00000000 10279089.98439262 -2727355.47531917 12554206.93056155
