51
Lattice="12.336457 0.0 0.0 -6.168228499999997 10.683685154694365 0.0 0.0 0.0 15.0" Properties=species:S:1:pos:R:3:initial_magmoms:R:1:forces:R:3 energy=-446.24798740653813 free_energy=-446.24798740653813 stress="-0.0002338654890968173 0.000986423566944387 -3.9157250555614604e-06 0.000986423566944387 0.0014944217847782844 1.545480017511238e-05 -3.9157250555614604e-06 1.545480017511238e-05 3.356499153427947e-06" pbc="T T T"
C        0.01213913       0.02420607       3.56939758       0.00000000       0.00388068      -0.00349170       0.00421671
C       -1.23585651       2.15448027       3.47899770       0.00000000      -0.00494063       0.00342870       0.00842944
C       -2.49386093       4.30370608       3.71642778       0.00000000      -0.00231613      -0.00658081       0.00257846
C       -3.71987189       6.44259006       3.86146570       0.00000000       0.00400536      -0.00169351       0.00566623
C       -4.93277786       8.57542513       3.77782980       0.00000000       0.00262862       0.00244325      -0.00488693
C        2.48650551       0.04409620       3.67150677       0.00000000      -0.00009997       0.00179447       0.00049699
C        1.27138461       2.12874370       3.26278416       0.00000000      -0.00521983      -0.01137422       0.00131066
C       -0.09244107       4.34086061       3.45078795       0.00000000      -0.00135172       0.00341759      -0.00800382
C       -1.25765498       6.46327163       3.88148565       0.00000000      -0.00228750      -0.00305636      -0.00864265
C       -2.46050156       8.58339378       3.90479061       0.00000000       0.00443698      -0.00157513       0.00172266
C        4.94323047       0.02662494       3.83070197       0.00000000      -0.00940064      -0.00676666       0.00136296
C        3.76498997       2.15341668       3.56307083       0.00000000       0.00619145       0.00288490       0.00356722
O        1.37522041       7.10926012       5.40750423       0.00000000       0.00083870      -0.00394148       0.00264256
C        0.01020891       8.58856725       4.07500054       0.00000000      -0.00193656      -0.00094368       0.00690693
C        7.41734698       0.02060909       3.84100669       0.00000000      -0.00165175       0.00754456       0.00068837
C        6.18254188       2.16426718       3.80610250       0.00000000       0.00758212       0.00501662       0.00961155
C        4.95111450       4.28329379       3.79659562       0.00000000      -0.00359180      -0.00069297      -0.00202155
N        3.70070744       6.43601811       3.93336280       0.00000000       0.00128317       0.00111352      -0.00546439
C        2.49430487       8.57290295       3.94214155       0.00000000      -0.00527401      -0.00452181       0.00480306
C        9.88180778       0.01660476       3.65994214       0.00000000       0.00320556       0.00330100       0.00727872
C        8.64372412       2.16248001       3.71752443       0.00000000       0.00746711       0.00316279      -0.00014685
C        7.38884935       4.30646107       3.83628400       0.00000000       0.00638781      -0.00256501      -0.00426529
C        6.13424670       6.42761562       3.83322752       0.00000000      -0.00125200      -0.00149717       0.00767883
C        4.93737005       8.55242715       3.74975435       0.00000000      -0.00321758       0.00519553      -0.00014194
C        0.02677338       1.45467985       3.40892511       0.00000000      -0.00646929      -0.00680846       0.01174643
C       -1.29145177       3.56807926       3.52643389       0.00000000      -0.00264386       0.00244962       0.00137740
C       -2.49171287       5.73471234       3.83231483       0.00000000      -0.00000379      -0.00759190      -0.00690652
C       -3.70105606       7.86810534       3.85781837       0.00000000       0.00548596       0.00117597       0.00487483
C       -4.92236006      10.00493920       3.67445799       0.00000000       0.00587480       0.00084553      -0.01202187
C        2.51044164       1.47264370       3.48905531       0.00000000       0.00525153      -0.00033958      -0.00210571
P        1.38785094       3.84635878       2.69259771       0.00000000      -0.00105149       0.01138383      -0.01168340
C       -0.08865690       5.71335533       3.71094070       0.00000000      -0.00283846       0.00464995      -0.00359880
C       -1.22747350       7.88138837       3.99731751       0.00000000       0.00295348      -0.00345704      -0.00579171
C       -2.45847989      10.01102102       3.82134758       0.00000000      -0.00860193      -0.00481666      -0.00549906
C        4.95095418       1.45709545       3.74539367       0.00000000       0.00857005      -0.00274666      -0.00879886
O        3.82788000       3.53824836       3.56507023       0.00000000      -0.01517657       0.00717075      -0.00843236
C        1.28548358       7.97023687       4.39049462       0.00000000      -0.00396357      -0.00114600       0.00809829
C        0.01356748       9.99469052       3.92568164       0.00000000      -0.00537004       0.00012353      -0.00404666
C        7.40798107       1.45224864       3.78955155       0.00000000       0.00878710       0.01062845       0.00675843
C        6.16086548       3.58975385       3.83756780       0.00000000       0.00179569       0.00406270      -0.00152145
C        4.87789525       5.71847259       3.85683014       0.00000000      -0.00130041      -0.00530471       0.00009724
C        3.71666830       7.80723090       3.86927515       0.00000000      -0.00141522       0.00042159       0.00424592
C        2.48384483       9.98661827       3.79544358       0.00000000      -0.00119932      -0.00071776      -0.00026540
C        9.87709163       1.44272409       3.61158857       0.00000000       0.00110284       0.00350602      -0.00332067
C        8.62084559       3.58928925       3.75969636       0.00000000       0.00291976      -0.00546371       0.00510440
C        7.37112305       5.72577770       3.84444160       0.00000000       0.00192436      -0.00206017       0.01087769
C        6.16442014       7.85124516       3.78434249       0.00000000      -0.00369117       0.00236746      -0.00033553
C        4.94231632       9.98397434       3.65103606       0.00000000       0.00349993       0.00432739       0.00352628
Os       1.71434413       5.43281709       4.45690678       0.00000000       0.00209971       0.00478114      -0.01007736
O        1.21112535       4.23724521       6.23872828       1.00000000       0.00586463      -0.00083386      -0.00813014
O        2.28865631       3.89848759       5.41392312       1.00000000      -0.00777216      -0.00720985       0.00044068
