52
Lattice="12.336457 0.0 0.0 -6.168228499999997 10.683685154694365 0.0 0.0 0.0 15.0" Properties=species:S:1:pos:R:3:forces:R:3 energy=-450.36761645111744 free_energy=-450.36761645111744 stress="-0.004121233191199553 -0.010000756947514738 3.212731632205222e-05 -0.010000756947514738 -0.002687482861907458 -3.8678936259223414e-05 3.212731632205222e-05 -3.8678936259223414e-05 1.2408206040144155e-06" pbc="T T T"
C        0.06162111      -0.04179407       3.62230218      -0.00784148      -0.00102402       0.00592360
C       -1.23902943       2.05625671       3.65752279      -0.00009320       0.00334306       0.00135252
C       -2.46431671       4.21041615       3.77526815      -0.00225608       0.00470597      -0.00038875
C       -3.62018697       6.36604981       3.75597194      -0.00136407       0.00208530      -0.00796387
C       -4.82890900       8.52124991       3.65837223       0.00273751       0.00072181      -0.00033412
C        2.52381707      -0.02706330       3.74632924       0.00772619      -0.00433645      -0.00346753
C        1.21045981       2.06158482       3.73069794      -0.00388834       0.00501796       0.00579391
C       -0.06169173       4.12089442       3.84164123      -0.00275062      -0.00457479      -0.00845080
C       -1.14298344       6.30091247       3.92468093       0.00337797       0.00040651       0.00093186
C       -2.36439239       8.48727060       3.79449727       0.00588873      -0.00060864      -0.01107619
C        4.98011342      -0.04081434       3.87748791       0.00999034       0.00370068       0.00091953
C        3.68041801       2.10444318       4.10561297      -0.00614649       0.00621197       0.00028598
O        1.50896810       6.78312081       2.55617060       0.00188818      -0.01068938      -0.00051278
C        0.08937055       8.47074050       3.75318431       0.00205413      -0.00270471      -0.00163319
C        7.43236326      -0.03841832       3.80233839      -0.00384031      -0.00949422      -0.00596234
C        6.16785089       2.12310339       3.94685989       0.00060732       0.00075616       0.00426170
C        4.99273932       4.35567261       4.07245149      -0.00320058      -0.00765718       0.00304569
N        3.86582479       6.49641258       3.91949667       0.00652995      -0.00122713       0.00371021
C        2.57676659       8.53407984       3.74899830       0.00018384       0.00189013      -0.00317523
C        9.91249105      -0.04417726       3.69137245      -0.00248973      -0.00315830      -0.00367569
C        8.63425318       2.09103894       3.75936527       0.00057312      -0.00310452      -0.00169989
C        7.42147971       4.24945486       3.80519367      -0.00597106       0.00752419       0.00447909
C        6.26424087       6.42291464       3.72300104      -0.00116743      -0.00121838      -0.00296185
C        5.04883645       8.53834122       3.65733395       0.00382191      -0.00473848       0.00703973
C        0.01464629       1.36970318       3.64251206      -0.00376394       0.00270394       0.00237303
C       -1.26467099       3.45643583       3.73768643      -0.00470601       0.00073718      -0.00729581
C       -2.40501391       5.62795959       3.82428326       0.00092098       0.00655666      -0.00006259
C       -3.59973679       7.79161522       3.73340397       0.00238964       0.00005195      -0.00517655
C       -4.85910366       9.94478023       3.65159613      -0.00126479       0.00077552       0.00774869
C        2.47442525       1.40245189       3.84411675      -0.00154423       0.00228754      -0.00328343
O        1.13614671       3.43731882       3.64766426       0.00274435       0.00892286      -0.01458669
C        0.00137502       5.48768045       4.09160840      -0.00153751      -0.00930440      -0.01304120
C       -1.12316567       7.74955338       3.84190393       0.00137503       0.00027836       0.01006549
C       -2.40124155       9.92532185       3.80415833       0.01380587      -0.00032065      -0.00343366
C        4.93666684       1.40599654       3.99412981      -0.00066192       0.00450799      -0.00344015
P        3.50017172       3.76708846       4.73699868       0.00050556       0.00550533      -0.00427199
C        1.37826474       7.78347923       3.49567996       0.00461773      -0.00537734      -0.00432862
C        0.05338126       9.90686917       3.81502195       0.00311203      -0.00651759       0.01416126
C        7.40129124       1.39211054       3.83394101      -0.00096205      -0.00682170       0.00688055
C        6.17640950       3.56111956       3.93863970      -0.00402501       0.00082600       0.00206504
C        5.02193407       5.76889699       3.88580613       0.00566263      -0.00604553       0.00610771
C        3.83321092       7.84299478       3.75728141       0.00381328       0.00277101       0.00859361
C        2.51411011       9.93956154       3.75734279      -0.00447965       0.00090022      -0.00908842
C        9.87681419       1.37016179       3.68762860       0.00572181      -0.00339346       0.00498454
C        8.63412500       3.51537748       3.76738302      -0.00464967       0.00451286       0.00252981
C        7.46878132       5.67384999       3.74603535      -0.00287951       0.00639002       0.01107070
C        6.27956324       7.82764868       3.65354463       0.00271299      -0.00107457       0.00211580
C        4.99742897       9.94605712       3.63512914      -0.00381478      -0.00504246       0.00742485
Os       1.96109699       5.80638763       4.22963016      -0.00154400      -0.00710998      -0.01057981
O        2.15409213       6.13076635       6.07928187      -0.00285759       0.01076146       0.00337213
O        1.13598290       5.37842239       6.88679351       0.00126049       0.00498817       0.01223984
H        1.60044391       5.38896969       7.75260828      -0.01432152       0.00570308      -0.00958574
