51
Lattice="12.336457 0.0 0.0 -6.168228499999997 10.683685154694365 0.0 0.0 0.0 15.0" Properties=species:S:1:pos:R:3:initial_magmoms:R:1:forces:R:3 energy=-440.3915215723889 free_energy=-440.3915215723889 stress="-0.00780352118450317 0.0068436922154915675 -1.6065761952564942e-06 0.0068436922154915675 -0.004162902702789403 1.4277188822772199e-05 -1.6065761952564942e-06 1.4277188822772199e-05 1.3776023783300026e-05" pbc="T T T"
C        0.01021315       0.05439843       3.61832911       0.00000000      -0.00599861      -0.00865366      -0.00337148
C       -1.18847536       2.19106227       3.64474614       0.00000000       0.00134542      -0.00643899       0.00096811
C       -2.46041995       4.32444936       3.70701503       0.00000000      -0.00089003       0.00036740       0.00564263
C       -3.72711156       6.45620304       3.67068322       0.00000000      -0.00038445      -0.00467887       0.00216814
C       -4.96769555       8.57848104       3.62714429       0.00000000      -0.00037533       0.00276387      -0.00486521
C        2.46129574       0.02908295       3.83193486       0.00000000       0.00003208      -0.00115099      -0.00273925
C        1.33317240       2.15774441       3.42385923       0.00000000      -0.00275639      -0.00548505      -0.00051483
C       -0.08557647       4.42839513       3.88144880       0.00000000      -0.00842934       0.00277595      -0.00907196
C       -1.32267493       6.51648224       3.73137234       0.00000000      -0.00258837      -0.00216401       0.00959011
C       -2.50298958       8.60532137       3.77088444       0.00000000      -0.00079770      -0.00768161       0.00437863
C        4.94076351       0.02265919       3.95618418       0.00000000      -0.00189268       0.00804740      -0.00012745
C        3.72256565       2.09697586       4.21445273       0.00000000      -0.00120861       0.00119740      -0.00635079
N        1.06142326       6.49480204       3.93137725       0.00000000       0.00976079       0.00233581       0.01010696
C       -0.02437548       8.59035132       3.81691029       0.00000000       0.00584739       0.00192461       0.00625957
C        7.42013191       0.02356342       3.88178152       0.00000000       0.00362489      -0.00024418       0.00217229
C        6.21455703       2.14696149       4.06678028       0.00000000       0.00180512       0.00926156      -0.00151979
C        5.05078863       4.29298549       4.04722359       0.00000000       0.00030196      -0.00654789       0.00578631
S        3.53268116       6.22518557       3.01901634       0.00000000      -0.00006228       0.00373923      -0.00918249
C        2.44592439       8.56649219       3.70112136       0.00000000      -0.00177333       0.00522233       0.00370625
C        9.88558587       0.03367122       3.70146651       0.00000000       0.00055321      -0.00843620      -0.00430090
C        8.67555564       2.16534339       3.80624355       0.00000000       0.00237284       0.00121559       0.00605808
C        7.44178555       4.29528295       3.78172563       0.00000000       0.00145637       0.00595373      -0.00009019
C        6.17398446       6.42821726       3.58349103       0.00000000       0.00254355      -0.00262277      -0.01083758
C        4.90949155       8.56592281       3.52974958       0.00000000      -0.00116084       0.00266781       0.00367446
C        0.04669291       1.49151005       3.56588347       0.00000000      -0.00138151      -0.00644193       0.00627555
C       -1.21670507       3.62431589       3.71467276       0.00000000      -0.00197827      -0.00343580       0.00272842
C       -2.50281527       5.74781646       3.69859976       0.00000000      -0.00299928      -0.00255064       0.00481133
C       -3.73223477       7.87969104       3.68204750       0.00000000      -0.00350484      -0.00549975       0.00375443
C       -4.94466841      10.00725413       3.67679474       0.00000000      -0.00346107       0.00391167      -0.00240141
C        2.49762117       1.44637272       3.88951762       0.00000000      -0.00072909       0.00112974      -0.00357868
S        1.69907727       3.36626587       2.16671192       0.00000000      -0.00547646       0.01155836       0.00048846
C       -0.11232042       5.84170109       3.84193513       0.00000000      -0.00324339      -0.00211887       0.00118696
C       -1.27574469       7.91582857       3.77416434       0.00000000       0.00348548      -0.00282387       0.00189513
C       -2.47433883      10.01301230       3.87350996       0.00000000      -0.00178681      -0.00424662       0.00590640
C        4.96591175       1.44056316       4.10551830       0.00000000       0.00207695       0.01022540      -0.00978269
S        3.79420140       3.65488438       5.02212028       0.00000000      -0.00343692      -0.00992201      -0.01560474
C        1.18875296       7.85388667       3.79001124       0.00000000       0.00524438      -0.00200613       0.01110284
C        0.00664808      10.00522726       3.88823868       0.00000000       0.00100228       0.00611912       0.00365096
C        7.43802273       1.44704743       3.92407123       0.00000000      -0.00038256       0.00159192       0.00162280
C        6.24318942       3.55804911       3.97640505       0.00000000       0.00544114       0.00547490      -0.00209590
C        5.01222404       5.63763381       3.61645456       0.00000000       0.00264446      -0.00620965       0.00616973
C        3.65612936       7.89163619       3.48024969       0.00000000      -0.00188359       0.01259702       0.00645699
C        2.47574828       9.99653274       3.77448883       0.00000000       0.00132413       0.00022959      -0.00515008
C        9.91116049       1.46671250       3.71728932       0.00000000       0.00252255      -0.00948074      -0.00211335
C        8.66942010       3.58931368       3.75654331       0.00000000      -0.00029861       0.00455805       0.00144710
C        7.40787379       5.71967757       3.67663543       0.00000000       0.00312266       0.00029691      -0.00814694
C        6.14130094       7.85499083       3.53483728       0.00000000       0.00136866       0.00249705      -0.00694947
C        4.93665384      10.00964715       3.61406663       0.00000000      -0.00049208      -0.00708576      -0.00007430
Os       1.79494144       4.62535558       3.99497040       0.00000000       0.00334748       0.01141193      -0.00632921
O        2.31518098       3.25834543       6.40786575       1.00000000      -0.00700215      -0.00688789      -0.00543989
O        1.36276072       4.07811795       5.94027263       1.00000000       0.00515081       0.00373952       0.00262996
