53
Lattice="12.336457 0.0 0.0 -6.168228499999997 10.683685154694365 0.0 0.0 0.0 15.0" Properties=species:S:1:pos:R:3:forces:R:3 energy=-465.02215306550374 free_energy=-465.02215306550374 stress="-0.0004890267570110888 -0.005094000388857353 -7.749159685416028e-06 -0.005094000388857353 -0.002822441958694878 1.520789249209822e-06 -7.749159685416028e-06 1.520789249209822e-06 -1.678564578428343e-05" pbc="T T T"
C       -0.03091601      -0.04306549       3.81901698      -0.00675260      -0.00428818      -0.00679026
C       -1.29387930       2.07761690       3.95333333       0.00464330       0.00088367       0.00442280
C       -2.54623584       4.21415258       4.01011361       0.00244966       0.00847369       0.02042802
C       -3.74353295       6.36109714       3.89679479      -0.00937520       0.00316266       0.00229707
C       -4.95399941       8.50018491       3.78943988      -0.01344810      -0.00840337      -0.02610431
C        2.44105777      -0.05373752       3.86479806      -0.00631175      -0.00470402      -0.00278197
C        1.18745919       2.05077146       4.00247025      -0.00818310       0.01131691       0.01308568
C       -0.07589771       4.16772753       4.20830057      -0.00089882      -0.00578516       0.00394566
C       -1.27978649       6.34299283       4.08428434       0.01290993      -0.01203125      -0.01562083
C       -2.47513949       8.48738358       3.86208553      -0.00105012       0.00583041      -0.00224283
C        4.89741551      -0.04327575       3.78196667       0.01801086      -0.00100542      -0.00497013
C        3.63680241       2.10824730       3.87212804      -0.01096881       0.00013869       0.00480485
N        2.34395646       4.13144566       4.03808366       0.00057792       0.01226602       0.00166158
O        1.27511888       6.72497969       2.45827454      -0.00240980      -0.00080949      -0.00075014
C       -0.02111941       8.48967907       3.64601456       0.00707810       0.00042254       0.00489424
C        7.35700652      -0.02895527       3.65448657       0.00163838       0.01149858       0.00027559
C        6.09385798       2.12188755       3.78904635      -0.00847089      -0.00824009      -0.00116865
C        4.81620786       4.29703477       3.78876592       0.01679910       0.01157454      -0.00136390
O        3.77291243       6.47168934       3.41410458       0.00144329       0.00314214      -0.00167676
C        2.49754153       8.55096311       3.40030861       0.00643296      -0.00787874       0.00177489
C        9.83871018      -0.02598960       3.68369799      -0.01833611      -0.00431180      -0.00242117
C        8.56820175       2.09814255       3.82733072       0.00580438       0.00188430      -0.00650236
C        7.31543145       4.24237084       3.84577782       0.00595278      -0.01286461       0.01754018
C        6.12484018       6.38563190       3.72024602       0.00418773       0.00148454      -0.02212530
C        4.94075223       8.53285456       3.56070052      -0.00168757       0.00437245       0.01072621
C       -0.05073099       1.36833234       3.93954952       0.00355990       0.00240095      -0.01556316
C       -1.32005766       3.48327818       4.07386156       0.00016300       0.00134688       0.01316225
C       -2.52431997       5.64089749       4.01365599      -0.00247061       0.00591665       0.00132366
C       -3.71632448       7.78382070       3.86144617      -0.01057578       0.00570560      -0.00535643
C       -4.95947839       9.92644624       3.82447065      -0.00897141      -0.01457300       0.00852895
C        2.42599109       1.36625596       3.91665323      -0.01691044       0.00247355      -0.00564098
C        1.16727801       3.45552029       4.11523198      -0.00225591       0.01206994       0.01408966
C       -0.13153278       5.55998665       4.32982859       0.01002287      -0.01020504      -0.01172379
C       -1.23552945       7.76888526       3.87190372       0.00465521      -0.00451804      -0.00059408
C       -2.48886580       9.91597445       3.83141028       0.01052806       0.00866041      -0.00557833
C        4.87611332       1.39360521       3.80326902      -0.00749043      -0.00847039       0.01108656
C        3.58636160       3.53114158       3.88645609       0.00796029       0.01057380      -0.00193688
C        1.23237083       7.83331868       3.27131377       0.00705347      -0.00754941       0.00127928
C       -0.03467624       9.92014385       3.68349578       0.01573261       0.00220892      -0.00696083
C        7.33481281       1.39649071       3.75265474      -0.00118523       0.00889458      -0.00518247
C        6.06329798       3.55632726       3.81006403       0.00584047      -0.00964723      -0.02040177
C        4.91237431       5.70301741       3.66370195       0.00511555       0.01383020      -0.00158193
C        3.74084981       7.88372073       3.38673979       0.00904514       0.00027217      -0.00817876
C        2.44155553       9.95818322       3.56954897      -0.01478922      -0.00674825       0.00880349
C        9.81189642       1.38537801       3.82444348       0.00157597      -0.00196708      -0.00277872
C        8.55353931       3.51814252       3.90157278       0.01116338       0.00039966      -0.01105256
C        7.34809688       5.65968781       3.82988784      -0.00447377      -0.01041771       0.01116526
C        6.16048207       7.80639749       3.67835740      -0.01396231      -0.00285572       0.01661628
C        4.90996219       9.95139357       3.68170670      -0.01309683       0.00424010      -0.00357643
Os       1.73375779       5.99414889       4.24945496      -0.00187158       0.00011811       0.00297194
O        2.07379567       6.36964535       6.02962257      -0.00586272      -0.00889897       0.00775900
O        3.55063407       6.63309163       6.24663843       0.01306192      -0.00927334       0.05205872
H        3.53191060       6.65295995       7.22991411      -0.00159715       0.00988363      -0.03407609
