51
Lattice="12.336457 0.0 0.0 -6.168228499999997 10.683685154694365 0.0 0.0 0.0 15.0" Properties=species:S:1:pos:R:3:initial_magmoms:R:1:forces:R:3 energy=-580179.0555148142 free_energy=-580179.0555148142 stress="598.6666693121839 -829.1741958603568 -727.1688677876297 -829.1741958603568 293.1936809160497 -1290.6875524562556 -727.1688677876297 -1290.6875524562556 -663.9321730328531" pbc="T T T"
C        0.54048096       2.63173797       4.35397286       0.00000000  -34486.40181815   68204.65809950   91192.80570219
C       -4.35882876       6.68873867       3.70738164       0.00000000    3385.42162500   -1739.69362561    1089.16562933
C       -0.85897346       4.46079510       4.47239659       0.00000000  -21364.30065199  -61545.97525117  -53042.84479181
C       -7.93982291       0.80973126       4.48991657       0.00000000  -11053.57995220   16867.92108739    5555.97190089
C       -6.88275436      12.52472825       2.94753817       0.00000000    -608.90334672  -24096.63602737   -2965.27312331
C        2.59862453      -0.38837232       2.72455589       0.00000000    2734.12552792    9750.05865820    7261.26794790
C        0.21963616       4.20215754       3.45245637       0.00000000    1678.76398553  -57649.87988127 -217641.05182350
C       -1.46224817       3.65604734       4.61594552       0.00000000   86709.19816611   54165.58166688   35825.26115977
C        4.76023720       3.33712483      -0.59344399       0.00000000    -250.70269777    -112.47083776     507.27907068
C        1.78440594       7.37885270       5.83383881       0.00000000     272.37867129  -83503.00300183   27590.56730934
C        8.69291171       0.01882511       6.17201376       0.00000000     -29.00500259    -256.79389999    -126.69488408
C        2.62221037       1.88102480       4.38884057       0.00000000   79714.78522669  155968.35816437   64000.15387503
N        3.17181514       9.82127052       2.63006871       0.00000000      27.78848404      95.04221852     -39.59746705
C        1.82650095       5.62367242       3.17632912       0.00000000  -25502.14736885  -35588.58888982   64534.36567067
C        4.94112235       0.62788800       3.88226228       0.00000000   -6153.05032977    -683.83926251      -2.82775823
C        2.79271597       2.42395059       4.13404264       0.00000000 -540909.10791125  224778.16409047  129499.41817852
C        0.27907288       0.75043766       2.14320825       0.00000000   -6266.70030285    2547.93672399   -3115.22719033
O        4.87597311       3.91464695       7.94241642       0.00000000   25131.37178512   -8914.19209439   10087.43241040
C        1.58145510       6.86696059       2.99725148       0.00000000   -1576.42104062  -18046.24021925   29149.42029399
C        4.42461399       2.04923573       3.90144179       0.00000000    4154.02139713   -6013.25259956   -6993.76842007
C        3.77061539      -3.63322062       2.97307773       0.00000000    1300.88186178   -2045.09946524     -91.54063860
C        3.51349891       4.32692157       7.61204979       0.00000000 -149435.01023167    2888.59033254  -98760.41052458
C        2.91612818       2.56621170       3.06166758       0.00000000  -72101.34940849    3740.39420049   90662.73231118
C        2.45994174       5.23393335       4.53725386       0.00000000   37300.84536230  201305.61586618  360184.60786645
C        0.73089083       3.08846431       3.89089209       0.00000000   78256.96371445   65113.00643917  -57292.78291823
C       -0.68400563       6.39771660       4.28648105       0.00000000   15188.80676807  -10312.47279580   11325.30525769
C        0.89813692       6.31197566       3.54433336       0.00000000    9673.10293554  -33499.11685915   11663.91062587
C       -1.67338691       7.06575497       0.87534080       0.00000000     614.16426435    -546.70770629    1074.02640766
C       -3.41010433      11.82363131       2.88643793       0.00000000   -1336.11599468    6571.71660076   25145.19303217
C        1.47373942       2.82387796       3.92623573       0.00000000  160358.00935737  -27199.63720735   33605.16562649
O        0.30139534       4.17780850       3.73811284       0.00000000  277237.65942419   18748.31888622  552896.80455751
C        3.17508580       6.69593758       1.41070526       0.00000000   -1896.76298941    -897.08608782    2265.97039619
C        1.73042289      12.51649191       5.64481160       0.00000000     123.79444096     148.06323822    -330.55794006
C       -3.42349101      10.60132204       3.85237425       0.00000000   -4647.53494594   42837.44489372    4347.42817331
C        2.31280014       2.88198206       3.95557419       0.00000000   48156.87380029 -200675.32860965  216422.84364145
N        2.32531260       1.45365613       3.84591526       0.00000000  -57553.08866718   82166.20509106  -77276.72862685
C        2.06812111       5.65587060       5.73764744       0.00000000 -304173.31224325 -252485.64056235  228855.76325701
C       -2.34798064      11.21461519       4.04615329       0.00000000  -15072.09619700  -11740.96284977  -17094.30570843
C        5.92595996       1.00989318       3.69900473       0.00000000   -7764.58568870    1560.47683500    1978.28246171
C        2.33359879       2.67222757       4.61696324       0.00000000  130267.49837048   18111.20093997 -358044.15925477
C        2.49280347       0.08028958       0.09151377       0.00000000     174.46158482    1320.28295762    2683.25601484
C        1.79842953       4.09362346       6.86241459       0.00000000 -281297.52371037  365530.30099284 -397641.52865248
C        2.46834246       9.32065652       3.03984726       0.00000000    -815.31217620   -2162.34329732    -511.31246031
C       10.36189759       5.53356144       1.42321424       0.00000000    1629.74076499    -820.51554546    3104.11386270
C        9.60390904       5.77682782       4.36193929       0.00000000   -1164.44651091   -1367.55182447     991.43715423
C       14.41864072       7.23779666      -0.35658705       0.00000000     -13.17179644    -493.11605891     969.40167166
C       17.87497736       3.83320550       3.61235943       0.00000000    -256.77682091   -1613.99207305   -1764.37562619
C        7.07704230      13.84900941      -0.42576591       0.00000000     459.22187251    -242.87731241    2129.36664836
Os       1.30442794       4.58668619       5.72917357       0.00000000 -5958155.51068197 -8741516.39346056 -12454283.23204888
O        8.69513781      10.72885377       9.41215508       1.00000000       4.75933098    -362.28943122     114.36732166
O        1.41832235       4.76327255       6.05191150       1.00000000 6539328.27976393 8243712.35875424 11730305.13442089
