52
Lattice="12.336457 0.0 0.0 -6.168228499999997 10.683685154694365 0.0 0.0 0.0 15.0" Properties=species:S:1:pos:R:3:forces:R:3 energy=-450.2792590239902 free_energy=-450.2792590239902 stress="-0.004779665821862879 0.008051875135939572 -4.358778836419546e-05 0.008051875135939572 -0.00040235748149227286 1.5809799716383895e-05 -4.358778836419546e-05 1.5809799716383895e-05 -2.6585556528294226e-06" pbc="T T T"
C        0.03928488       0.03659223       3.77496067      -0.00225113       0.00769534       0.00229139
C       -1.15910731       2.18318928       3.90679679       0.01193026      -0.00836914      -0.00097551
C       -2.44137835       4.30464968       3.85898526      -0.00358223       0.00218260       0.00911817
C       -3.71786500       6.43117012       3.66971809       0.00717013      -0.00561367       0.00079481
C       -4.94462486       8.55734905       3.70791910      -0.01092738       0.00628536      -0.00587561
C        2.49899867       0.02816503       3.60128686       0.00781342       0.00537463       0.00455819
C        1.32231906       2.15540831       3.49530591      -0.00107231      -0.00422699      -0.00683928
C       -0.11993100       4.44136168       4.42090191      -0.00601833       0.01024120      -0.00439016
C       -1.31623251       6.50108280       3.91260547      -0.00736787      -0.00247567       0.00027567
C       -2.48140311       8.58425596       3.65623563       0.00317890      -0.00544589      -0.00480715
C        4.97478357      -0.00011640       3.55651255       0.00734554       0.00357052      -0.01483424
C        3.81447301       2.10968695       3.47995315      -0.00541896      -0.00086805      -0.00082019
N        1.04609439       6.48372569       4.25713033      -0.00183619       0.00106273      -0.00095298
C       -0.00586243       8.56820456       3.82307600       0.00193896      -0.00353311       0.01007614
C        7.45634272      -0.00959912       3.69581835      -0.00443170      -0.00985163       0.01606818
C        6.26140451       2.10616120       3.44881763      -0.00873743       0.00514870      -0.00670376
C        5.05401630       4.18330124       3.54599002      -0.00454337      -0.00015623      -0.00011079
P        3.58418206       6.15248395       4.63766484      -0.00749431       0.01547820       0.00651841
C        2.46815527       8.54769192       4.03643282       0.00486298       0.00453988      -0.00716477
C        9.91807085       0.01143149       3.85754268      -0.00232085      -0.00901481       0.00252678
C        8.71116548       2.14197799       3.68931521      -0.00009853       0.00880301       0.00921009
C        7.46243662       4.26906119       3.54081497      -0.01088686       0.00506291       0.00727382
C        6.17036529       6.37950429       3.72274450       0.00879509      -0.00736773       0.00818850
C        4.94359595       8.54216662       3.96743757      -0.00459611       0.00320228      -0.00119133
C        0.07435725       1.47751948       3.75680899       0.00882596       0.00221087      -0.00963092
C       -1.20622837       3.61609578       4.07700684      -0.00241430      -0.00835393      -0.00554150
C       -2.49355408       5.73177635       3.80583035       0.00401875      -0.00181728      -0.00557410
C       -3.71468579       7.85760096       3.66276875      -0.00639445      -0.00346601      -0.00473602
C       -4.91330494       9.99612339       3.68967313      -0.00431433       0.01387704       0.00101143
C        2.55840410       1.45197398       3.55073489      -0.00182154       0.00052791       0.00274844
O        1.40239124       3.39117384       3.01492628      -0.00565065      -0.01284599       0.00298009
C       -0.12875413       5.83371551       4.20514975      -0.00932475      -0.00181236       0.00179048
C       -1.25884737       7.89660015       3.77821972       0.00115239      -0.00871106       0.00674636
C       -2.44617487       9.99964789       3.59114533       0.01114358       0.00155575      -0.00666984
C        5.01116330       1.41457348       3.45757721      -0.00619158       0.00663671      -0.00013987
O        3.87229234       3.48520745       3.49691459       0.00529595      -0.00753493      -0.01250304
C        1.19537154       7.83926512       4.04153060       0.00739812       0.00740803      -0.00269909
C        0.03731780       9.97521590       3.67437851       0.00026859      -0.00540518      -0.00195495
C        7.47951561       1.41255778       3.58592925      -0.00863435      -0.00187921       0.00747183
C        6.25984630       3.51771343       3.42977511      -0.00385734       0.00127571      -0.00037445
C        4.99871887       5.56023994       3.80122341       0.00315541       0.00062312      -0.00192019
C        3.69331280       7.85797304       4.17162367      -0.00003849       0.00555204      -0.00428280
C        2.50432709       9.96923524       3.85936338       0.00014524      -0.00469887       0.00197305
C        9.94783115       1.44853573       3.82160642       0.00768520      -0.00749563       0.00837333
C        8.69448663       3.56925478       3.67065036      -0.00673342       0.01691828      -0.00061151
C        7.41140801       5.69253521       3.60858507       0.00899471      -0.00134298       0.00460818
C        6.16199396       7.81907736       3.81587457      -0.00715334      -0.00057361      -0.00138474
C        4.97175811       9.98517858       3.88394719      -0.00099871       0.00053250      -0.00920755
Os       1.83558562       4.64533125       4.52805263       0.01296614       0.00262847       0.00200445
O        2.13162114       4.12042317       6.31684195       0.00422513      -0.00545054       0.01396610
O        1.51004483       5.11052297       7.24037079       0.00549276       0.00185866      -0.00463285
H        1.82606409       4.74163518       8.09396580       0.01130759      -0.01194194      -0.00404473
