52
Lattice="12.336457 0.0 0.0 -6.168228499999997 10.683685154694365 0.0 0.0 0.0 15.0" Properties=species:S:1:pos:R:3:forces:R:3 energy=-442.5882069033055 free_energy=-442.5882069033055 stress="0.002045176895371213 0.005539490887425634 7.493911969783249e-05 0.005539490887425634 -0.000921112350038686 2.458884571628724e-05 7.493911969783249e-05 2.458884571628724e-05 0.0007116079890056331" pbc="T T T"
C        0.02670967      -0.01626202       3.89600150      -0.05268241      -0.00418748       0.01250991
C       -1.15670244       2.15284247       3.71121711       0.02601284       0.04881589      -0.04511551
C       -2.42738888       4.26904042       3.54799003      -0.01219903       0.01340404      -0.02028849
C       -3.70566479       6.38254501       3.66732730       0.02277467      -0.00665564      -0.00808408
C       -4.95407054       8.49900368       3.86508122       0.01333581      -0.00739417      -0.04107335
C        2.48278966      -0.08157332       4.04509963      -0.01892629       0.03333029      -0.02774492
C        1.31219891       2.07569155       4.19488330       0.00970625      -0.01274265      -0.00670367
C        0.01725050       4.37621957       3.36951318       0.03916687       0.02588326       0.03680945
C       -1.28359779       6.44112793       3.25279351       0.02985190      -0.01949072       0.03259971
C       -2.47721017       8.52981672       3.62092702      -0.00865530      -0.05141097       0.02333336
C        4.96137044      -0.04349012       3.89853182       0.01670612      -0.02629934       0.00634723
C        3.76647938       1.91810101       4.60551802       0.02238224       0.02044845      -0.01938271
O        1.11152937       6.50377766       3.24219149      -0.00738952      -0.01021405       0.04365679
C       -0.01855322       8.55186344       3.43274431       0.00037120      -0.00067192       0.02421026
C        7.42681255      -0.02281676       3.67422771       0.03372330       0.03129010       0.02349549
C        6.24167233       2.07071781       4.16302161      -0.03994043       0.05639243       0.00444806
C        5.15358482       4.22878090       4.68435401      -0.05505355      -0.02607861      -0.00354216
S        3.50171317       6.28560768       4.67949020      -0.03635275      -0.00802018       0.00884296
C        2.44752972       8.51802504       3.60626958      -0.02248591      -0.00174505       0.02130322
C        9.90586517      -0.01202359       3.68877642      -0.01231526      -0.03401695       0.02880910
C        8.69399664       2.11874020       3.74813928       0.00058927      -0.04561083      -0.01098315
C        7.46750111       4.23158284       3.96806337       0.03179509       0.05846584      -0.00343777
C        6.20608264       6.36932482       4.10929851      -0.02587474      -0.00106845      -0.01151601
C        4.91891473       8.50841287       3.91814201      -0.00033308       0.01347201      -0.02285605
C        0.06659384       1.43464969       3.92334746       0.01345738       0.01461217      -0.00562279
C       -1.15934768       3.58498686       3.52429853       0.00390620       0.04707059       0.02906244
C       -2.47943523       5.68453647       3.46345174      -0.00595648       0.01637496       0.00622959
C       -3.71592633       7.80614096       3.70478278      -0.00113413      -0.04576006       0.01792133
C       -4.93222338       9.92505446       3.93066350      -0.04144989       0.00529186      -0.01756264
C        2.50410351       1.31433751       4.34151257       0.01554939       0.02427233       0.00686987
S        2.76258570       3.84648513       1.99210463      -0.00155519      -0.03646232       0.04359921
C       -0.07401891       5.77653742       3.17862821       0.02005587       0.01005478       0.03184000
C       -1.26554824       7.85129738       3.38988125       0.00861900      -0.02219610       0.00546370
C       -2.45209814       9.93263877       3.86152423      -0.01934775      -0.02362882      -0.01966466
C        5.00448271       1.33986001       4.24970252      -0.03113004       0.01528538      -0.03885875
S        3.73152847       3.45355148       5.38767961       0.02903110       0.00063133      -0.06656560
C        1.17962294       7.85198167       3.42983205      -0.00873665      -0.05705780       0.02911113
C        0.01426850       9.96133665       3.65175425       0.04595741       0.02331352      -0.00414858
C        7.44870279       1.39742968       3.84654435      -0.04165323       0.01339388       0.03715574
C        6.28096160       3.49036484       4.29391500       0.00676378       0.04293475      -0.01609752
C        5.08664395       5.61155218       4.50051137      -0.00081920      -0.05989909      -0.03037730
C        3.66212859       7.84826624       3.94052672       0.00291984       0.02259593      -0.00875756
C        2.48874319       9.94854146       3.61021923       0.00598430       0.00053199      -0.02192986
C        9.93445722       1.42388424       3.68730896       0.04064335      -0.02790388       0.03264415
C        8.69390401       3.53987426       3.74440611       0.01823800      -0.01627473       0.02409861
C        7.43360970       5.65320677       3.91543925       0.01249087       0.06062139      -0.02229521
C        6.15170029       7.78757681       3.97509953       0.00632150       0.02054880       0.00107659
C        4.95683909       9.95555195       3.79994387      -0.03525999      -0.01433359       0.02395317
Os       1.88449332       3.94807358       3.89711105      -0.06549332      -0.00819851       0.15175676
O        1.24076302       4.97646509       5.50408856      -0.05997735      -0.09157190       0.23972449
O        1.10851712       4.16027733       6.73165940       0.75661708       0.29131571      -0.34878528
H        1.90381296       4.49106775       7.24288131      -0.62824915      -0.25145786      -0.12547872
