51
Lattice="12.336457 0.0 0.0 -6.168228499999997 10.683685154694365 0.0 0.0 0.0 15.0" Properties=species:S:1:pos:R:3:initial_magmoms:R:1:forces:R:3 energy=-435.92307909652425 free_energy=-435.92307909652425 stress="-0.006346723570914457 4.322621115649887e-05 -6.838325148838352e-06 4.322621115649887e-05 -0.005797545620042615 4.305612938458626e-06 -6.838325148838352e-06 4.305612938458626e-06 -1.622707601393618e-05" pbc="T T T"
C       -0.00258878      -0.01194951       3.96136709       0.00000000      -0.00886172       0.01572881       0.00363227
C       -1.25317443       2.11251790       3.86512971       0.00000000      -0.00844876      -0.01032471       0.00398148
C       -2.49121852       4.25933535       4.10959317       0.00000000       0.00728110      -0.00652056       0.00453776
C       -3.70220887       6.40632418       4.24476221       0.00000000       0.00472366       0.00141268      -0.00157851
C       -4.94284773       8.53999751       4.10881740       0.00000000       0.00911321       0.00427248       0.00486658
C        2.46250783      -0.01665154       3.93020647       0.00000000      -0.01059046      -0.01016676       0.00461575
C        1.20657767       2.02887597       3.38194710       0.00000000      -0.00149039      -0.00276211      -0.00367279
C       -0.27063217       4.28257303       3.21793134       0.00000000       0.00197143      -0.00183473      -0.00579209
C       -1.31451189       6.41483064       3.76978208       0.00000000      -0.00151932       0.01268930       0.00715491
C       -2.46574213       8.53453994       4.06696320       0.00000000      -0.00057058      -0.00145885      -0.00754208
C        4.92948499      -0.02204716       3.97490010       0.00000000       0.00099581      -0.00671069      -0.00099571
C        3.72087951       2.02454637       3.44984866       0.00000000      -0.00275206       0.01047506       0.01153721
S        1.05194873       6.46148004       2.36998419       0.00000000       0.00744215       0.01231151      -0.00580909
C       -0.00895813       8.53583968       3.74190048       0.00000000      -0.00601727      -0.00209412      -0.00246307
C        7.39758139      -0.02404282       4.01792771       0.00000000      -0.00016299      -0.00021865       0.00168701
C        6.17355923       2.10758035       3.96475691       0.00000000       0.01033343      -0.00113261      -0.00115300
C        5.14371949       4.28415783       3.48314560       0.00000000      -0.00633667      -0.00163827       0.01007436
S        3.86748615       6.42803006       2.55915156       0.00000000       0.00600534      -0.00908314      -0.01152640
C        2.45990010       8.55778558       3.57223549       0.00000000      -0.01367999       0.01223207      -0.00038204
C        9.86252926      -0.01936967       4.01318124       0.00000000       0.00215789      -0.00246364      -0.00372297
C        8.63205776       2.11498198       4.17028846       0.00000000       0.00234398      -0.00311915       0.00182037
C        7.41577545       4.25838065       4.22530453       0.00000000      -0.00069439       0.00725780      -0.01307916
C        6.22086835       6.41689625       3.96553428       0.00000000       0.00061741      -0.00232537       0.00391086
C        4.93289215       8.54119980       3.82844239       0.00000000       0.00695666      -0.00175687      -0.01565699
C       -0.00995281       1.40632562       3.75217957       0.00000000      -0.00535843       0.00664821       0.00756186
C       -1.31334068       3.52989192       3.78255803       0.00000000       0.00757789      -0.01361312      -0.00309961
C       -2.49057781       5.68562625       4.10561140       0.00000000       0.00336638       0.00155308       0.00646134
C       -3.70399292       7.82832150       4.17153378       0.00000000       0.00727640      -0.00291799      -0.00089441
C       -4.93825475       9.96624012       4.02048835       0.00000000      -0.01309267       0.00373840       0.00453320
C        2.46129559       1.38485219       3.58331482       0.00000000      -0.00511449      -0.01149950      -0.01066038
S        1.05588495       3.48327898       2.39510466       0.00000000       0.00134086      -0.00221936       0.00093005
C       -0.27250457       5.66438621       3.20370495       0.00000000      -0.00639057       0.00365442       0.01768631
C       -1.25280390       7.83102225       3.85917868       0.00000000      -0.00346666       0.01149119      -0.00791252
C       -2.47252017       9.96195487       4.01397830       0.00000000      -0.00408977      -0.00720894       0.00101985
C        4.93433563       1.40097088       3.82386581       0.00000000       0.00361321       0.00333346      -0.00560867
S        3.86106539       3.52076940       2.56895707       0.00000000       0.01399801       0.00436245      -0.00711045
C        1.20537404       7.91855974       3.35540143       0.00000000      -0.01085335      -0.00138658       0.01383680
C       -0.00244312       9.95262128       3.95887920       0.00000000       0.00192513      -0.00549528      -0.01207876
C        7.39345689       1.40251785       4.10726559       0.00000000       0.00828440      -0.00482378      -0.00106023
C        6.22110987       3.52677597       3.96283431       0.00000000      -0.00025501      -0.00036819       0.00620671
C        5.14263070       5.66119303       3.48502779       0.00000000       0.00269248      -0.00184833      -0.00986595
C        3.72061824       7.91800882       3.44969513       0.00000000      -0.01160022       0.00058967       0.00163020
C        2.46137798       9.95834252       3.92504839       0.00000000      -0.00181042       0.00854792       0.00505677
C        9.86948599       1.40834331       4.06664614       0.00000000      -0.00514166      -0.00715802       0.00085380
C        8.63413323       3.53712864       4.24465545       0.00000000       0.00056695       0.00110112       0.00613741
C        7.41573135       5.68456266       4.22533167       0.00000000      -0.00066932       0.00627121      -0.00331960
C        6.17310041       7.83560227       3.96766553       0.00000000       0.01195894       0.00038048       0.00471255
C        4.92839678       9.96410571       3.97683838       0.00000000       0.00137457       0.00370327      -0.00312992
Os       2.36767634       4.98652511       3.55458972       0.00000000      -0.00451173      -0.00861494      -0.00507240
O        1.41094170       5.47739774       5.84263721       1.00000000       0.01225735       0.00773664       0.00240258
O        2.53681582       4.93009483       5.49476595       1.00000000      -0.00269577      -0.00872698       0.00633881
