53
Lattice="12.336457 0.0 0.0 -6.168228499999997 10.683685154694365 0.0 0.0 0.0 15.0" Properties=species:S:1:pos:R:3:forces:R:3 energy=-455.31970916663494 free_energy=-455.31970916663494 stress="-0.0044740396817895016 -0.0015676660926379257 -1.6416213856021914e-05 -0.0015676660926379257 -0.007367975340568304 -3.803531359921021e-05 -1.6416213856021914e-05 -3.803531359921021e-05 -1.2112886700430433e-05" pbc="T T T"
C       -0.00588744       0.00285519       3.64296614      -0.00431477      -0.00419768       0.00299360
C       -1.25621354       2.12561869       3.74209005       0.00084240      -0.00206957       0.00420996
C       -2.49409608       4.27264256       3.77450781      -0.00931716       0.00762272       0.00424317
C       -3.70880739       6.41188387       3.70424918      -0.00642455       0.00010445       0.00755639
C       -4.93760002       8.54823371       3.59482625       0.00443119      -0.00403951       0.00366466
C        2.46294334      -0.00259791       3.79601504       0.00339897       0.00155316       0.00575865
C        1.21359618       2.11568357       3.90745874      -0.00065340       0.00165230      -0.00294382
C       -0.05615133       4.21960433       3.97290402      -0.00351385       0.00669850       0.00120194
C       -1.23862651       6.40354145       3.88593055      -0.00693672      -0.00372270      -0.00282570
C       -2.46355637       8.54306326       3.79682657       0.00890059      -0.00612328       0.00099728
C        4.92907979       0.00428041       3.83386433       0.00732949       0.00027774       0.00418518
C        3.69100234       2.14448273       3.91337890      -0.00493606       0.01034665       0.00327104
B        2.42709958       4.33757356       4.27967978       0.00807626      -0.00845031       0.00163993
P        1.58164300       6.23032926       4.18916789       0.00427993       0.00499114      -0.00092951
C        0.00910786       8.55298916       3.83897325      -0.00041794      -0.00214243       0.00442184
C        7.38854545       0.02434607       3.73117667       0.00682302       0.00059189      -0.01281178
C        6.15729352       2.14319089       3.80366024      -0.00536951       0.00511556       0.00671586
C        4.93102913       4.27261496       3.72641015       0.00626116      -0.00150899      -0.00358161
P        3.47807580       6.28869959       2.60969565      -0.01381437      -0.00784910      -0.00882349
C        2.47670539       8.62445834       3.52425522       0.00047154      -0.00183549      -0.00876908
C        9.86801937       0.02749271       3.58096993      -0.00562456      -0.00612979      -0.00152228
C        8.61835378       2.14739895       3.71754906       0.00637923      -0.00209171      -0.00576860
C        7.38912250       4.28151579       3.70511945       0.00115157      -0.00002691       0.00575981
C        6.15812006       6.41216411       3.47326809      -0.00396825      -0.00594061       0.00006231
C        4.93804523       8.57220140       3.36729007       0.00136755       0.00773237       0.00686115
C       -0.01999449       1.41250056       3.76112961       0.00093094      -0.00511141       0.00689570
C       -1.28442807       3.53544639       3.82331966      -0.00667781       0.00547863      -0.00057848
C       -2.48137484       5.69785215       3.79542417      -0.00892882       0.00372399      -0.01523749
C       -3.70222554       7.83678486       3.70120448       0.00869761      -0.00381163      -0.01327886
C       -4.93721240       9.97164850       3.67372895       0.00056204      -0.00237868      -0.00258968
C        2.45962611       1.41371839       3.89249979      -0.00093329       0.00473207      -0.00250360
C        1.15888811       3.51489104       4.04591344      -0.00060597       0.00318886      -0.00041690
C       -0.05614821       5.63004864       3.99719961      -0.00144103       0.00761939      -0.00240539
C       -1.22712296       7.83327959       3.86202449       0.00260336      -0.00833691      -0.01142979
C       -2.46960271       9.96871157       3.81504513       0.00803080      -0.00193416      -0.00934539
C        4.92783458       1.42642504       3.84974236      -0.00770111       0.00602929       0.00845012
C        3.71628987       3.56858958       3.94012013       0.00721187       0.00550372      -0.00360762
C        1.27960671       7.90896804       3.78035107      -0.00262799       0.00524775      -0.00532722
C       -0.00483321       9.98204137       3.80159327       0.00856585      -0.00141116       0.00271284
C        7.38720080       1.43913204       3.75260340       0.00150256       0.00351518      -0.00187526
C        6.16695574       3.56276052       3.75674737       0.00227607       0.00282403      -0.00309403
C        4.95065998       5.66366449       3.41122405      -0.00882278      -0.00311852       0.01503293
C        3.68532047       7.93044602       3.23935315       0.00438196      -0.00288718       0.00935529
C        2.46159130      10.02914641       3.60170198       0.00113633      -0.00567113       0.00341999
C        9.85217667       1.43529489       3.67241707       0.00398282      -0.00876744       0.00629360
C        8.61507153       3.56722962       3.73158052      -0.00245905       0.00061792       0.00325658
C        7.39334699       5.70364261       3.63317079      -0.00297578      -0.00301703      -0.00356191
C        6.17072688       7.84412968       3.43632476       0.00146177      -0.00005478      -0.01183408
C        4.93267856       9.99259503       3.51885886      -0.00732450       0.00404526       0.00894382
Pd       2.55593029       5.50470681       5.93579617       0.00443174      -0.01322780       0.00102453
O        3.42195202       5.30521028       7.82613708      -0.00194743       0.00043257       0.00784477
O        2.40384603       5.56458665       8.79466921       0.00605333       0.01500111      -0.00089234
H        2.91118934       5.47844710       9.62739740      -0.00380523       0.00120965      -0.00081905
