51
Lattice="12.336457 0.0 0.0 -6.168228499999997 10.683685154694365 0.0 0.0 0.0 15.0" Properties=species:S:1:pos:R:3:initial_magmoms:R:1:forces:R:3 energy=-436.70288003875737 free_energy=-436.70288003875737 stress="-0.005726643855190538 -0.00010715148698182222 5.289649410341821e-06 -0.00010715148698182222 -0.004766104820759513 5.598387783155417e-06 5.289649410341821e-06 5.598387783155417e-06 1.1635872647909753e-05" pbc="T T T"
C       -0.03835569       0.01334124       3.84135125       0.00000000      -0.00669997      -0.00031217       0.00041312
C       -1.27726853       2.14986476       3.83396289       0.00000000       0.00429423       0.00087127       0.00686450
C       -2.51387710       4.29070361       3.97365245       0.00000000       0.00580462       0.00430280      -0.00590793
C       -3.73289334       6.43680289       4.02310581       0.00000000       0.00067455      -0.00315923      -0.00042371
C       -4.97224582       8.56517010       3.88644307       0.00000000      -0.00808247       0.00001451      -0.00070376
C        2.43327150       0.00749887       3.82714456       0.00000000       0.00302986       0.00283988       0.00060043
C        1.19131361       2.10604154       3.53665483       0.00000000       0.00693849       0.00677870      -0.00223697
C       -0.15516564       4.31010632       3.34876913       0.00000000       0.00258318      -0.00110773       0.01350835
C       -1.32300570       6.44407097       3.62453288       0.00000000       0.00195499       0.00120310      -0.00292566
C       -2.49408917       8.56469490       3.87074202       0.00000000      -0.00750849      -0.00765352      -0.00329723
C        4.90570757       0.01278906       3.83917180       0.00000000      -0.00505718       0.00465768       0.01367433
C        3.67154321       2.10764961       3.56285524       0.00000000       0.00562290       0.00889899      -0.01021482
S        0.90915748       6.54150805       2.14743057       0.00000000      -0.00193478      -0.00946880       0.00815060
C       -0.04109496       8.57378213       3.54842925       0.00000000       0.00000047       0.00096221       0.00617177
C        7.37268082       0.01047542       3.82978893       0.00000000      -0.00531962      -0.00703656       0.00287999
C        6.14032252       2.15056149       3.86795636       0.00000000       0.00362271      -0.00539150       0.00607507
C        5.01121786       4.31324755       3.42179834       0.00000000      -0.00138934      -0.00237950      -0.01348020
S        3.97047913       6.53299937       2.18571374       0.00000000      -0.00362362       0.00667611       0.00927205
C        2.43399022       8.59078469       3.30080226       0.00000000       0.00357829      -0.00078493      -0.01005833
C        9.83041870       0.01020686       3.83097562       0.00000000      -0.00732530      -0.00211956       0.00598962
C        8.60072925       2.14609872       4.01563518       0.00000000       0.00378832      -0.00212942      -0.01260271
C        7.37933572       4.29148250       4.00760043       0.00000000       0.00151137      -0.00124615      -0.00617108
C        6.18744121       6.44519739       3.67713007       0.00000000       0.00027381       0.00417953       0.00059656
C        4.90819737       8.57272182       3.57753221       0.00000000      -0.00231493       0.00030773       0.00237332
C       -0.04492771       1.43517030       3.74797352       0.00000000       0.00538424       0.00293450       0.01550138
C       -1.30278528       3.57408848       3.76383845       0.00000000       0.00160529       0.00029730      -0.00035959
C       -2.51597536       5.71672185       3.93962281       0.00000000       0.00540658       0.00276690      -0.00520921
C       -3.73268014       7.85672641       3.95047862       0.00000000      -0.00955797      -0.00584659      -0.00275348
C       -4.97063119       9.98954685       3.86649361       0.00000000      -0.00250079       0.00068265      -0.00722672
C        2.43165169       1.42094257       3.63512488       0.00000000       0.00857575       0.00750734      -0.00345165
B        1.11695199       3.54442920       3.13508014       0.00000000       0.00165100       0.00913766       0.01111135
C       -0.23493053       5.70046217       3.15085320       0.00000000      -0.00390805      -0.00452332       0.00380166
C       -1.27809620       7.86263351       3.66139736       0.00000000       0.00050013       0.00069542       0.00652555
C       -2.49798683       9.98933434       3.86013298       0.00000000      -0.00129090      -0.00454244      -0.00480834
C        4.90847501       1.43625927       3.77259716       0.00000000       0.00173486       0.00430621      -0.00153405
B        3.74190081       3.55181183       3.18280606       0.00000000      -0.01149097       0.00359895      -0.01534724
C        1.16479742       7.95189488       3.12940944       0.00000000       0.00455170      -0.00648862       0.01011613
C       -0.03011408       9.98906867       3.77675455       0.00000000      -0.00826504       0.00016922       0.01341656
C        7.36919974       1.43482941       3.95391559       0.00000000       0.00418557      -0.00800848      -0.00803998
C        6.16392564       3.57557373       3.81905682       0.00000000      -0.00032543      -0.00452868      -0.00710264
C        5.09294199       5.70166311       3.21980602       0.00000000       0.01039771      -0.00116575      -0.01090126
C        3.70422449       7.94946789       3.15370572       0.00000000       0.00597640      -0.00369141       0.00144555
C        2.43341002       9.98541880       3.69872702       0.00000000      -0.00472336      -0.00440819      -0.00393151
C        9.83194118       1.43505209       3.94125888       0.00000000       0.00218004      -0.00100636      -0.00738478
C        8.60143551       3.57258475       4.05983218       0.00000000       0.00551774       0.00159293       0.00361315
C        7.38401239       5.71746387       3.97260710       0.00000000       0.00024065       0.00056297      -0.00307068
C        6.14567356       7.86303932       3.69589413       0.00000000      -0.00654993       0.00344599       0.00421093
C        4.89763359       9.98933698       3.78962949       0.00000000      -0.00949530      -0.00106584       0.00287393
Pd       2.43932613       4.73146363       2.28087892       0.00000000       0.00590938       0.00784876      -0.00196454
O        2.94477576       3.73784152       8.84209229       1.00000000       0.00285965       0.00479013       0.00456734
O        3.59927997       4.60923943       9.42671809       1.00000000      -0.00299103      -0.00396466      -0.00264520
