52
Lattice="12.336457 0.0 0.0 -6.168228499999997 10.683685154694365 0.0 0.0 0.0 15.0" Properties=species:S:1:pos:R:3:forces:R:3 energy=-448.19509347597113 free_energy=-448.19509347597113 stress="-0.006779157384818406 0.0004058074983606723 8.217889257399895e-06 0.0004058074983606723 -0.0007287607344394864 1.8755214670232934e-05 8.217889257399895e-06 1.8755214670232934e-05 4.620216898070014e-08" pbc="T T T"
C       -0.08656898      -0.01141284       3.85575135       0.00031741      -0.00161503      -0.00433300
C       -1.33608784       2.09426509       3.89762863       0.00133676       0.00326125      -0.00581035
C       -2.57628136       4.24050467       3.78495567      -0.00148151      -0.00052246      -0.00821770
C       -3.79483533       6.39032072       3.68533051       0.00034201      -0.00254663      -0.00545352
C       -5.02943383       8.53456931       3.68567680       0.00199875      -0.00625353      -0.00283115
C        2.37856029       0.01303504       3.89981687      -0.00020262      -0.00262497      -0.00059164
C        1.13821843       2.15560923       4.06841503       0.00250509       0.00655197       0.00751451
C       -0.15409832       4.22070427       4.02530207      -0.00157223       0.00624500       0.00569380
C       -1.35206415       6.38744152       3.88545812      -0.00106359      -0.00272086      -0.00299003
C       -2.56231632       8.53546341       3.83039362      -0.00877191       0.00227642       0.00491752
C        4.84762063      -0.01737256       3.87956927       0.00658206       0.00013932       0.01004131
C        3.62721886       2.16246200       3.91970479      -0.00169693      -0.00319836      -0.00362930
B        1.14111807       6.32222334       4.15938674       0.01507713      -0.00505502      -0.00467506
C       -0.08572781       8.51146475       3.93701409      -0.00806076       0.00074597      -0.00086996
C        7.31391801      -0.03344181       3.88816367       0.00320985       0.00355742      -0.00596224
C        6.09490927       2.09362401       3.75409497      -0.00349557      -0.00334545      -0.00295896
C        4.88829211       4.21815733       3.53090707       0.00194974      -0.00192705      -0.00758155
S        3.46653517       6.35231294       2.68633105      -0.00111463       0.00386250       0.00811091
C        2.38385417       8.52198129       3.81901162      -0.00048747       0.00209776       0.00130678
C        9.78329929      -0.03398525       3.84658199      -0.00329499      -0.00177207      -0.00130970
C        8.54748079       2.09772320       3.79677612      -0.00069422      -0.00339615      -0.00873726
C        7.33017445       4.23932245       3.61057662       0.00178344      -0.00071277      -0.01428530
C        6.09316191       6.38725133       3.41677221       0.00053970       0.00524759       0.00045356
C        4.84946491       8.52413483       3.59272273       0.00403718       0.00359206      -0.01436821
C       -0.09877741       1.40861840       3.95363520       0.00342752       0.00310037       0.00079914
C       -1.36689719       3.50593797       3.88512486      -0.00018070       0.00436418       0.00413160
C       -2.57946610       5.67025043       3.77861623      -0.00146470      -0.00271098       0.00293191
C       -3.79354148       7.82067505       3.72622820      -0.00231669      -0.00537371       0.00689452
C       -5.02045823       9.96666743       3.81940838       0.00001984      -0.00742928      -0.00303355
C        2.38303884       1.44515372       4.00165513      -0.00102832      -0.00048095       0.00093280
C        1.05145800       3.54294240       4.22104264      -0.00381510       0.00553352      -0.00008037
C       -0.16889302       5.63344549       4.00626931       0.00358868       0.00413363       0.00343659
C       -1.33161542       7.81451326       3.89170105      -0.01244039      -0.00113279       0.00432676
C       -2.56156208       9.96521368       3.87069348       0.00297190       0.00345690       0.01148504
C        4.86230159       1.40443575       3.84152941      -0.00209388      -0.00218471       0.00609567
C        3.72639308       3.55210729       3.88548061       0.00832717      -0.00281356       0.01300730
C        1.16014733       7.81362831       3.95441704      -0.00391042       0.00249111      -0.00285494
C       -0.08952724       9.94461407       3.90147838       0.00528662       0.00265516       0.00387800
C        7.32318494       1.38281807       3.81441110      -0.00239352       0.00094664      -0.00074505
C        6.11858759       3.50465470       3.60167262       0.00153365      -0.00324030       0.00625441
C        4.92445255       5.62442886       3.25326984       0.00568726       0.00281811      -0.00650549
C        3.59855588       7.86885547       3.49592291       0.00510978       0.00323877       0.00160303
C        2.38349264       9.94639116       3.87393636      -0.00143052       0.00149378       0.00800977
C        9.77212796       1.38386177       3.85220068      -0.00036047      -0.00256431       0.00001684
C        8.54534680       3.52314998       3.72677472       0.00013373      -0.00274452      -0.00531512
C        7.32473208       5.66888537       3.56590463      -0.00068750       0.00247292       0.00139593
C        6.08190228       7.81750763       3.52385457       0.00247913       0.00244109       0.00369977
C        4.85110353       9.94760308       3.78282283      -0.00226317       0.00048697      -0.00525661
Pd       2.45521592       4.85309180       4.75535809      -0.00988828      -0.00135604      -0.00465265
O        3.72186969       5.97960946       6.01238401       0.00007075      -0.00434568       0.00661203
O        4.77494278       5.14038532       6.49171447      -0.00322960       0.00648751       0.01552117
H        4.39799455       4.85592244       7.35217937       0.00112456      -0.01163072      -0.01602198
