52
Lattice="12.336457 0.0 0.0 -6.168228499999997 10.683685154694365 0.0 0.0 0.0 15.0" Properties=species:S:1:pos:R:3:forces:R:3 energy=-452.4889299405619 free_energy=-452.4889299405619 stress="-0.007692872855562797 0.0021975748553073 -7.4918539621720365e-06 0.0021975748553073 0.0030511850366169418 -9.743612078916725e-06 -7.4918539621720365e-06 -9.743612078916725e-06 -6.755712344522617e-07" pbc="T T T"
C       -0.02367406       0.03548273       3.80135811      -0.00613338      -0.00559281       0.00100093
C       -1.26380940       2.14558071       3.71318896      -0.00612830      -0.00423904      -0.00757128
C       -2.49482475       4.28999921       3.56587099      -0.00248370      -0.00069146      -0.00532799
C       -3.72778345       6.44201946       3.56495720      -0.00081617       0.00329588      -0.00621351
C       -4.96311414       8.58976007       3.71158656       0.00639744      -0.00524300      -0.00051702
C        2.44543589       0.08268805       3.81392734      -0.01256058      -0.00887939      -0.00481628
C        1.20633806       2.22780381       3.93838305       0.00425053       0.00196646      -0.00630078
C       -0.06360941       4.29985504       3.84409985       0.00034364      -0.00744760      -0.01014786
C       -1.29384396       6.45531039       3.67779685       0.00216067      -0.00014502       0.00849361
C       -2.50944210       8.59592700       3.69786947      -0.00329110       0.00617712      -0.00080792
C        4.91445813       0.02739173       3.74637107      -0.00329221      -0.00225939       0.00019990
C        3.72269084       2.21303624       3.84909233       0.00416440       0.00222687       0.00398155
N        1.06151119       6.43639279       4.07468717       0.00531917      -0.00483613      -0.00971785
C       -0.04206735       8.55171787       3.80859047      -0.00568574       0.00194689      -0.00545312
C        7.38781961      -0.01819154       3.73611173       0.00046808       0.01049334      -0.00400478
C        6.17679371       2.12335016       3.60804961       0.00225528      -0.00048350      -0.00458413
C        4.98953004       4.23278801       3.67818981       0.00553574      -0.00051712      -0.00288265
B        3.73763339       6.34789254       4.11313093      -0.00093246       0.00732912       0.00829063
C        2.43208037       8.51218030       3.93346487       0.00016064       0.00702085      -0.00060308
C        9.84194435      -0.01123745       3.76798681       0.00111690       0.00234538      -0.00758038
C        8.62486961       2.12890733       3.59051453      -0.00270359      -0.00331809       0.00087830
C        7.40884389       4.27915846       3.49880455       0.00804361      -0.00346354      -0.00593533
C        6.16893908       6.42469089       3.64690253      -0.00462184      -0.00026221       0.00150586
C        4.90941378       8.55070755       3.83587864       0.01073480      -0.00037363       0.01244304
C       -0.02955106       1.46201759       3.82026116      -0.00258824      -0.00138819      -0.00411785
C       -1.28451370       3.56878624       3.67044638      -0.00642796      -0.00341656       0.00456293
C       -2.50260961       5.72409345       3.57844882       0.00089771       0.00171096      -0.00609723
C       -3.73499894       7.87485878       3.64620910       0.00507024       0.00162495       0.01178203
C       -4.95446023      10.02399063       3.78543502      -0.00920083      -0.01085008       0.00498460
C        2.45869707       1.51256587       3.89868717       0.00172601      -0.00665226       0.00378747
C        1.08431801       3.60448500       4.06936915       0.00761327       0.00543073       0.01204347
C       -0.07561851       5.75037915       3.84330877       0.00274578      -0.00791013       0.00164875
C       -1.28052284       7.87224219       3.71985891      -0.00632926       0.00397305       0.00048483
C       -2.49968018      10.02539842       3.75969316      -0.00885822       0.00094120      -0.00148907
C        4.93758850       1.44473613       3.72079407       0.00298189      -0.00269263      -0.00066507
N        3.85451362       3.55852510       3.94061246      -0.00109439       0.00666706      -0.00574925
C        1.17336506       7.78947781       3.94845104      -0.00312932       0.00070666       0.00405324
C       -0.02157954       9.97176908       3.76072056       0.00089113       0.00363307       0.00228786
C        7.40040643       1.40471367       3.62685368      -0.00115135       0.00577576       0.00132127
C        6.20566339       3.53421263       3.52804289       0.00828647      -0.00088102       0.00160538
C        4.99172464       5.65804723       3.73697464      -0.00360117      -0.00169304       0.01447255
C        3.66983093       7.84066776       3.95824466       0.00346348       0.00666075      -0.00113512
C        2.43976806       9.94290138       3.81065816       0.00062611       0.01004824      -0.00376554
C        9.84427733       1.41395881       3.67638284      -0.00628772      -0.00099758       0.00998278
C        8.62793950       3.56081234       3.52303033       0.00317008      -0.00785571       0.00139357
C        7.39841465       5.71280512       3.53667351      -0.00249270       0.00001212      -0.00398860
C        6.14562210       7.85551243       3.73482164       0.00835606      -0.00127436      -0.00451637
C        4.91247664       9.98208519       3.80023985      -0.00083880      -0.00328514       0.01110340
Pd       2.47111994       4.95352016       4.71203180      -0.00505388       0.00142832      -0.00707347
O        3.16953808       4.02403211       6.42899988       0.01096244       0.00574812      -0.00720595
O        2.61497616       4.68226045       7.56613676       0.01011312       0.00640211       0.00769875
H        3.37022862       5.23486148       7.85652070      -0.01215178      -0.00691639      -0.00173922
