52
Lattice="12.336457 0.0 0.0 -6.168228499999997 10.683685154694365 0.0 0.0 0.0 15.0" Properties=species:S:1:pos:R:3:forces:R:3 energy=-452.9338433633737 free_energy=-452.9338433633737 stress="-0.005657918713204079 -0.0005105623621066471 3.848773991406804e-05 -0.0005105623621066471 0.0034101153901426053 1.0115073056623557e-06 3.848773991406804e-05 1.0115073056623557e-06 5.477487720625381e-06" pbc="T T T"
C       -0.00767095       0.04226839       3.77312663       0.00588614      -0.00500973       0.01393600
C       -1.26064635       2.14874284       3.67793273       0.00124674      -0.01120324       0.00750686
C       -2.49586677       4.29907945       3.56821076       0.00553253      -0.00529115       0.00696881
C       -3.71007891       6.45313667       3.59895616       0.00152594       0.00341632       0.00389982
C       -4.92994446       8.60546164       3.71127068      -0.00090097       0.00135647       0.00773203
C        2.46034020       0.09779332       3.80295360       0.00471491      -0.00379813       0.00549905
C        1.19743026       2.23109547       3.89115523       0.00216647       0.00049318      -0.00009280
C       -0.07141070       4.26105339       3.78804349      -0.00330941       0.00338365      -0.00406653
C       -1.25988667       6.43995344       3.72026824      -0.00205989       0.00654069       0.00210817
C       -2.47681478       8.60144391       3.73246748      -0.00062028       0.00217839       0.00334640
C        4.92482217       0.04760315       3.76248255      -0.00055112      -0.00062620       0.00248912
C        3.71705507       2.23472508       3.82235973       0.00157470      -0.00588774       0.00335719
B        1.22035306       6.37922876       4.11954898      -0.00408878      -0.00098668       0.00222538
C       -0.01428905       8.57470197       3.84769371      -0.00014034       0.00255291       0.00261440
C        7.39853164       0.00931790       3.74925374       0.00299796       0.00676272       0.00699615
C        6.17216728       2.15588764       3.63488059       0.00156106       0.00218192      -0.00369303
C        4.96891010       4.27741682       3.68011691      -0.00673223       0.00039246      -0.00415547
C        3.76406364       6.39627834       3.99274465      -0.00534340       0.00075911       0.00271584
C        2.46015970       8.54236200       3.92612476      -0.00118712      -0.00584415      -0.00095072
C        9.85728003       0.00348620       3.75118572       0.00134423       0.00512525       0.00720716
C        8.62550176       2.14839302       3.60510229       0.00316793       0.00465157      -0.00448946
C        7.40288491       4.30327555       3.53890789       0.00428208      -0.00019777       0.00285548
C        6.17826411       6.45387146       3.64727284      -0.00504462      -0.00167250      -0.00626172
C        4.93700449       8.55994934       3.80758836       0.00028103       0.00063269      -0.00221544
C       -0.01778346       1.46795578       3.77688712       0.00447871      -0.00750882      -0.00549400
C       -1.28769084       3.56069569       3.62885454       0.00234571      -0.00987156       0.00290231
C       -2.49229005       5.72966942       3.60419368       0.00232601      -0.00106532      -0.00524204
C       -3.70635332       7.88578957       3.67324714      -0.00034236       0.00460909      -0.00095262
C       -4.93394468      10.03619580       3.77209652       0.00695090      -0.00250131       0.00144929
C        2.45893520       1.53335415       3.86249386       0.00121669      -0.00482653      -0.00835628
N        1.08058588       3.59095209       4.02048615      -0.00395958       0.00269087       0.00423211
C       -0.07237550       5.68379109       3.82794836      -0.00180397       0.00554627      -0.00406591
C       -1.24944067       7.87365088       3.77021986      -0.00008136       0.00667577      -0.00168022
C       -2.48132924      10.03646614       3.77335392       0.00137551      -0.00238701       0.00294245
C        4.93231263       1.47298977       3.72840441       0.00283182      -0.00353106       0.00125464
N        3.83608548       3.59228057       3.88565544      -0.00280248      -0.00310452       0.00164989
C        1.22559563       7.87272367       3.96435676      -0.00252928      -0.00405002       0.00329632
C       -0.01089397      10.00022911       3.78415876       0.00063837       0.00288804       0.00306863
C        7.39931086       1.43317176       3.64975549       0.00466766       0.00661278      -0.00238964
C        6.19067243       3.57333524       3.56968941      -0.00145286       0.00460045      -0.00963754
C        4.94859978       5.72332978       3.73847685      -0.00771358       0.00040940      -0.00731863
C        3.69832902       7.80471777       3.92135463      -0.00044514      -0.00306257      -0.00165531
C        2.46214380       9.97210609       3.80660075       0.00266780      -0.00069660      -0.00156407
C        9.85129868       1.42777668       3.66525092      -0.00243556       0.00343467      -0.00739406
C        8.62164858       3.57919685       3.54632565       0.00593344      -0.00095577      -0.00562291
C        7.39812061       5.73587579       3.57029251      -0.00098984       0.00002892       0.00034843
C        6.17351871       7.87619214       3.71675100      -0.00226717      -0.00110355      -0.00087731
C        4.92808910       9.98503728       3.77813461       0.00102563       0.00202253      -0.00044524
Pd       2.48895224       4.99956585       4.66073966      -0.00070625       0.00192863      -0.00924625
O        3.00584047       3.88898383       6.31726328       0.00430908       0.01094350      -0.00673101
O        2.39472859       4.45892506       7.46035348      -0.00223939      -0.00630166      -0.00308374
H        3.14010798       4.95955613       7.85316155      -0.01730205      -0.00133467       0.00508000
