52
Lattice="12.336457 0.0 0.0 -6.168228499999997 10.683685154694365 0.0 0.0 0.0 15.0" Properties=species:S:1:pos:R:3:forces:R:3 energy=-440.78309911246765 free_energy=-440.78309911246765 stress="-0.0018987033765928967 0.0022935385712954024 -1.8925756164604117e-05 0.0022935385712954024 -0.0017901151164769536 -8.811358420953594e-06 -1.8925756164604117e-05 -8.811358420953594e-06 -8.731351018221425e-06" pbc="T T T"
C       -0.00023132       0.14590796       3.88863252       0.00089893      -0.00419360       0.00107796
C       -1.23672330       2.27297947       3.63400006      -0.00922995      -0.01201743       0.00376307
C       -2.50792900       4.41297091       3.73030758      -0.00402151       0.00261255      -0.00577666
C       -3.73309439       6.54643075       3.94573182      -0.00747940       0.00758145      -0.01217915
C       -4.95511245       8.68089103       4.03234444       0.01229687      -0.00608368      -0.00710313
C        2.46628491       0.15685492       3.91341307      -0.02229115      -0.00278530       0.00861404
C        1.24787173       2.21967009       3.42900515      -0.00912092      -0.00688330       0.00235472
C       -0.17866233       4.42952258       3.05878360      -0.00537737       0.01185949       0.00244267
C       -1.30090066       6.56607007       3.54155790       0.00071547       0.00460865      -0.00228874
C       -2.48224711       8.68067469       3.89228742       0.01010837       0.00308814       0.00599109
C        4.92566956       0.13064000       3.94322985      -0.01212579       0.00800183       0.00818161
C        3.74082982       2.26099165       3.85271475      -0.00443329       0.01191990       0.00998538
S        1.33995511       6.58039090       2.64899454       0.01510207       0.00474687      -0.00140417
C       -0.01811262       8.68594353       3.73036064      -0.00300725       0.00108132      -0.00575299
C        7.39424833       0.14217268       3.94708188       0.01010838      -0.00804796       0.00324564
C        6.17102199       2.26105054       4.02154921       0.00845515       0.00369380      -0.00669438
C        4.95083981       4.34713340       4.07766616      -0.00428148       0.00408406       0.01401161
B        3.65563172       6.53246734       4.29717140      -0.00803677      -0.01916869      -0.00248071
C        2.46131301       8.70785252       3.89701774      -0.00197543      -0.00248458       0.00743141
C        9.87342622       0.15254056       3.94147199       0.01278648       0.00747746       0.00158143
C        8.63524251       2.27751440       3.92217755      -0.00351057      -0.01026462      -0.00581079
C        7.38763500       4.40619647       4.02784996       0.00707026      -0.01046628      -0.00500240
C        6.13280852       6.52039397       4.11662706       0.00454922      -0.00244751       0.00154544
C        4.91871518       8.68597325       4.07057338       0.00457714       0.00690563       0.00777227
C        0.00769906       1.56741653       3.64667493      -0.00940104      -0.01041318       0.01005688
C       -1.29673903       3.68553471       3.47344291      -0.00602955      -0.00280012      -0.00216091
C       -2.51603080       5.83657492       3.75312670      -0.01021329       0.00884646      -0.00940154
C       -3.72391696       7.97063807       3.96880720       0.01402872       0.00526314      -0.01160980
C       -4.93994620      10.11550354       3.95728748      -0.00985190      -0.01228397      -0.00621148
C        2.48686385       1.58658441       3.75710651      -0.00660907       0.00435363       0.01138318
S        1.29756741       3.68655084       2.52524056      -0.00341003      -0.01517165       0.00009132
C       -0.17621957       5.82654189       3.12434401       0.01228467       0.01407945       0.00302862
C       -1.25822617       7.97819487       3.71655608       0.00275550       0.00129882      -0.02326102
C       -2.47631988      10.11257095       3.93768963      -0.01689799       0.00321647       0.01550335
C        4.93357562       1.55912915       3.96901321       0.00026020       0.01412100       0.00014077
O        3.77447494       3.63182315       3.98826879      -0.00702022       0.01625880      -0.00563267
C        1.23625936       8.03951793       3.58813265      -0.00981310      -0.00492806      -0.00047030
C       -0.00794666      10.10839807       3.90345587      -0.00498961       0.00303342       0.00028949
C        7.39802876       1.56501229       3.98590159       0.00395911      -0.01096826      -0.00539445
C        6.16746764       3.67027837       4.06510665      -0.00130016       0.00396112      -0.01579368
C        4.92914061       5.75608105       4.16282213       0.00055467      -0.00061287       0.00644299
C        3.67462342       8.00695947       4.06031801      -0.00184841      -0.00303726       0.02065347
C        2.46197428      10.13473546       3.94770895       0.01682493       0.00158506       0.00032038
C        9.87932889       1.57435591       3.84628602      -0.00724942      -0.00312584       0.00568863
C        8.61779794       3.69792653       3.91376400       0.00585147      -0.01245856      -0.00257585
C        7.37635988       5.82493820       4.04391154       0.00033416      -0.00847508      -0.00200412
C        6.14298084       7.95637278       4.09426340       0.01045676       0.00212806      -0.00092700
C        4.93365503      10.12174515       3.97640835       0.00837284       0.00923858      -0.00406524
Pd       1.99499284       5.55752228       4.65300546       0.01277686       0.00079782      -0.00935226
O        1.65407737       3.87505241       5.79646679       0.00940931      -0.00975619      -0.00450740
O        2.85260382       3.52103709       6.47894090       0.01169790       0.00458221      -0.01283947
H        2.48684665       3.19842370       7.33070782      -0.00671077       0.00844879       0.01910292
