51
Lattice="12.336457 0.0 0.0 -6.168228499999997 10.683685154694365 0.0 0.0 0.0 15.0" Properties=species:S:1:pos:R:3:initial_magmoms:R:1:forces:R:3 energy=-441.21000994919234 free_energy=-441.21000994919234 stress="-0.006200575420595855 -0.006060965768739913 7.891996491209987e-06 -0.006060965768739913 -0.0002613102003761681 7.85748710004158e-06 7.891996491209987e-06 7.85748710004158e-06 7.404775633585613e-06" pbc="T T T"
C       -0.01226196       0.05593508       3.70292877       0.00000000       0.00157779      -0.00102963      -0.00062834
C       -1.28167921       2.17395788       3.66977611       0.00000000       0.00626759       0.00322616       0.01059034
C       -2.48272084       4.33235033       3.66171832       0.00000000       0.00220007       0.00032734       0.00113196
C       -3.66466369       6.48911257       3.65955933       0.00000000      -0.00195040       0.00283184       0.00499077
C       -4.90169473       8.63704713       3.69964910       0.00000000      -0.00592548       0.00213783       0.00752398
C        2.45827377       0.09417607       3.77320680       0.00000000      -0.00332180       0.00427039       0.00668774
C        1.15290000       2.17594407       3.72761158       0.00000000       0.00338289      -0.00105207      -0.00511355
C       -0.08086510       4.26604776       3.88057080       0.00000000      -0.00099603      -0.00319501       0.00450399
C       -1.21916627       6.44888604       3.87942285       0.00000000       0.00321234      -0.00956760      -0.00231670
C       -2.44509956       8.61848622       3.82225043       0.00000000       0.00208811      -0.00223617      -0.00220915
C        4.92374936       0.08186752       3.76835067       0.00000000      -0.00463772      -0.00057231      -0.01066288
C        3.64877059       2.19490562       3.52252180       0.00000000       0.00047140       0.00258135       0.00504735
B        1.19777630       6.42933978       4.36633565       0.00000000      -0.00616038       0.00577442      -0.00653761
C        0.00905503       8.60690358       3.96319072       0.00000000      -0.00089068       0.00426004       0.00238009
C        7.38606537       0.05846854       3.75698750       0.00000000       0.00320488      -0.00406371       0.00565786
C        6.13753784       2.21934075       3.54833617       0.00000000      -0.00313872       0.00258349       0.00059612
C        5.02010912       4.44219827       3.38574700       0.00000000      -0.00230599       0.00253606      -0.00081772
N        3.86535703       6.50585458       3.85994142       0.00000000       0.00092783      -0.00140851      -0.00811976
C        2.47745053       8.57800440       3.92502854       0.00000000       0.00459884      -0.01180051       0.00048315
C        9.84552400       0.04147541       3.70972487       0.00000000      -0.00352311       0.00455055      -0.00243826
C        8.60429129       2.19469503       3.62224064       0.00000000      -0.00138771       0.00337237      -0.00330483
C        7.41687863       4.35857472       3.53586213       0.00000000       0.00594569      -0.00306101       0.00391789
C        6.24443083       6.53417301       3.54078716       0.00000000       0.00201578      -0.00169759      -0.00888242
C        4.95736977       8.61253872       3.69819388       0.00000000       0.00059902       0.00878215       0.00190076
C       -0.03889284       1.47798212       3.68980459       0.00000000       0.00482528      -0.00206335       0.00544663
C       -1.27856258       3.58587787       3.70532623       0.00000000       0.00089197       0.00272895      -0.00073673
C       -2.45240999       5.75493817       3.71878180       0.00000000      -0.00162724      -0.00195276       0.00103574
C       -3.67000758       7.91472396       3.72573075       0.00000000      -0.00334009       0.00417454       0.01093511
C       -4.93191086      10.05719240       3.74317648       0.00000000      -0.00125208       0.00100322       0.00205466
C        2.41747823       1.52453768       3.71411877       0.00000000       0.00151727       0.00353059      -0.00478798
O        1.06887244       3.52453615       4.02241602       0.00000000      -0.00398654      -0.00540737      -0.00146689
C       -0.03909220       5.67062956       4.01148983       0.00000000       0.00546062      -0.00426415      -0.00253818
C       -1.21389254       7.88589852       3.90786895       0.00000000       0.00464184      -0.00721059       0.00040330
C       -2.46682952      10.05314952       3.80700843       0.00000000      -0.00520005       0.00016529      -0.00647617
C        4.89661874       1.52174999       3.60480184       0.00000000      -0.00126620      -0.00007765       0.00862581
S        3.49963376       3.81915574       2.96294292       0.00000000      -0.00636681      -0.00439904       0.00352968
C        1.25025947       7.90538336       4.08560151       0.00000000      -0.00381850       0.00226017      -0.00277956
C       -0.00984733      10.04180735       3.83517670       0.00000000      -0.00163839       0.00356815      -0.00326369
C        7.36589766       1.49124286       3.63712116       0.00000000      -0.00229696      -0.00008158      -0.00297298
C        6.17164646       3.65169917       3.47255195       0.00000000      -0.00026610       0.00466971      -0.00059119
C        5.02100288       5.84851854       3.53239804       0.00000000       0.00242605      -0.00005176       0.00011291
C        3.74315281       7.86097932       3.82697901       0.00000000       0.00683133      -0.00002710      -0.00292772
C        2.45639016      10.01143234       3.78982680       0.00000000       0.00331606      -0.01186987       0.00355353
C        9.83530992       1.46927352       3.65984601       0.00000000       0.00067356       0.00813797      -0.00609762
C        8.62345156       3.62333782       3.59418439       0.00000000       0.00574711      -0.00072934       0.00419564
C        7.44667642       5.78344628       3.55523161       0.00000000       0.00334269      -0.00398537       0.00217656
C        6.20781400       7.94000465       3.63793072       0.00000000      -0.00418118       0.00062040      -0.00480620
C        4.92256634      10.02563111       3.70285381       0.00000000      -0.00138241       0.00838724       0.00236981
Pd       2.65986388       5.27289803       4.93426910       0.00000000       0.00245041      -0.00011561      -0.01672249
O        2.23988114       2.80936967       6.23352812       1.00000000      -0.00407072      -0.01145466      -0.00644410
O        3.17308775       3.65912439       6.16391432       1.00000000      -0.00368510       0.00689412       0.01379134
