52
Lattice="12.336457 0.0 0.0 -6.168228499999997 10.683685154694365 0.0 0.0 0.0 15.0" Properties=species:S:1:pos:R:3:forces:R:3 energy=-448.3615702693078 free_energy=-448.3615702693078 stress="-0.00494451814327159 -0.0002642347275295785 2.1784659370190304e-05 -0.0002642347275295785 0.0004330414957491459 -1.1011479909759842e-05 2.1784659370190304e-05 -1.1011479909759842e-05 2.6509384917127075e-05" pbc="T T T"
C       -0.02882367       0.11808605       3.90130248      -0.00249470      -0.00050416      -0.01026002
C       -1.27700691       2.22924087       3.87321582      -0.00236846      -0.00639737      -0.00231505
C       -2.50656278       4.37083184       3.77751884       0.00066338       0.00187538       0.00394415
C       -3.72449926       6.51759336       3.73944341       0.00069101      -0.00582932       0.01113643
C       -4.96409440       8.66056325       3.83149137      -0.00399820      -0.00379226       0.00281084
C        2.43663206       0.12188150       3.85274774       0.00748695      -0.00266794      -0.00636355
C        1.20983502       2.29688138       3.91818502       0.00380968      -0.00192469       0.00113696
C       -0.06067584       4.35856603       4.01432767      -0.00163640       0.00455750      -0.00365763
C       -1.28238997       6.52084455       3.91773083      -0.00574163      -0.00246953       0.00154023
C       -2.50603408       8.65723899       3.86316781      -0.00264699       0.00327555      -0.00011544
C        4.90688107       0.09222472       3.75214149       0.00364175       0.01220504       0.00906521
C        3.65736414       2.16706899       3.39516562      -0.01088464       0.00209734      -0.00456400
C        1.14086866       6.48200664       4.19512833      -0.00169314       0.00764315      -0.01102865
C       -0.03704078       8.62874252       3.96225193      -0.00716554      -0.00431768       0.00083579
C        7.36648522       0.08526492       3.81013747       0.00461933       0.00439665      -0.01307999
C        6.14272083       2.21843010       3.47020195      -0.00711842      -0.00341597      -0.00250843
C        5.00459520       4.39693360       3.16651512       0.01726205       0.00034636      -0.00138252
B        3.70618991       6.46525985       3.90616706       0.00130862      -0.00000237       0.00007934
C        2.43333648       8.62833641       4.00430831       0.00731877      -0.00324379       0.00609176
C        9.83098468       0.09239188       3.87697508      -0.00845177      -0.00456727       0.00301477
C        8.59962730       2.22451974       3.70406120       0.00405858       0.01759238       0.00791395
C        7.39621033       4.37122765       3.53722230      -0.00225016      -0.00104889       0.00305318
C        6.16662017       6.52162339       3.62160772       0.00145008      -0.00609912      -0.00106252
C        4.91364837       8.65525733       3.87126919      -0.00063123      -0.00419651      -0.00079519
C       -0.03078287       1.54653913       3.91496407       0.00469351       0.00115464      -0.00698075
C       -1.29205179       3.64709501       3.87549261      -0.00403577      -0.00575449      -0.00263004
C       -2.50097132       5.80066347       3.80168701      -0.00181278      -0.00464466       0.00634916
C       -3.73202056       7.94509627       3.81235077      -0.00052710      -0.00261338       0.00245044
C       -4.96483876      10.08713090       3.88893564       0.00113925      -0.00044147      -0.00022316
C        2.44596310       1.54735212       3.76504086      -0.00105159      -0.00621127      -0.00028475
C        1.13106745       3.67218427       4.10444509      -0.00064968       0.00919385      -0.01251393
C       -0.05933019       5.79950298       4.04492699       0.00246208       0.01074291      -0.00289529
C       -1.27248753       7.93930089       3.91756008      -0.00973770      -0.00414819       0.00542861
C       -2.50051406      10.08043058       3.83275148       0.00962222       0.00550253      -0.00080100
C        4.90947513       1.50881381       3.52988185      -0.01177819       0.00956495       0.00972196
S        3.57678353       3.66101633       2.53372210       0.01053630      -0.00920411       0.00468106
C        1.20201165       7.88594907       4.06824395       0.00240194       0.00425578      -0.01736245
C       -0.03106692      10.05254268       3.84596410       0.00192709       0.00100413       0.00404743
C        7.36292144       1.51041096       3.65790428       0.00489814       0.01235518       0.00236043
C        6.17486471       3.64132518       3.35361655       0.00346148      -0.00654648      -0.00911177
C        4.97210135       5.77515448       3.47345280       0.00319977      -0.00319624       0.00761323
C        3.67052884       7.95923660       3.93856235       0.00634532      -0.00346152       0.01006377
C        2.42754791      10.05879307       3.90654619      -0.00169620      -0.00742246       0.00351857
C        9.82506369       1.51230032       3.81863477      -0.00613906      -0.00121491       0.00807572
C        8.60958140       3.65176721       3.66408823      -0.00018700       0.01468809       0.01324790
C        7.39711461       5.80094577       3.61317999       0.00092957      -0.00642662       0.00022814
C        6.14431121       7.94359408       3.78630314      -0.00289380      -0.00823206       0.00194015
C        4.90752568      10.08090931       3.89575510      -0.00654253      -0.00306057      -0.00533268
Pd       2.50524370       5.10583659       4.71810055       0.00252253      -0.00582059      -0.00068362
O        3.74774402       3.89420473       5.89196267       0.01196886       0.00555221      -0.01419741
O        2.92759634       2.93387203       6.56014209      -0.00132707       0.00356805       0.00038868
H        3.27363445       3.01611699       7.47464547      -0.01295852      -0.00269581      -0.00058800
