51
Lattice="12.336457 0.0 0.0 -6.168228499999997 10.683685154694365 0.0 0.0 0.0 15.0" Properties=species:S:1:pos:R:3:initial_magmoms:R:1:forces:R:3 energy=-448.4634870424194 free_energy=-448.4634870424194 stress="-0.007766658814290745 0.002302744581387347 -9.123248737738455e-06 0.002302744581387347 0.0030147500209828657 5.974723681741161e-07 -9.123248737738455e-06 5.974723681741161e-07 -1.5523683064495584e-07" pbc="T T T"
C       -0.05086461       0.06812736       3.78128506       0.00000000      -0.00142054       0.00508325       0.00048207
C       -1.29016230       2.17963791       3.71360925       0.00000000      -0.00135808      -0.00063114       0.00526577
C       -2.52103845       4.32344751       3.56013559       0.00000000      -0.00320821      -0.00294074      -0.00856320
C       -3.75641763       6.47460893       3.53386014       0.00000000       0.00059123       0.00277196      -0.00172658
C       -4.99179304       8.62151947       3.67546959       0.00000000       0.00645384      -0.00054953       0.00054191
C        2.41661048       0.11523189       3.75826402       0.00000000      -0.00162683       0.00041523       0.00257568
C        1.18159242       2.26469819       3.91647456       0.00000000      -0.00342527       0.00046055      -0.00310972
C       -0.08781875       4.33399655       3.85022696       0.00000000      -0.00159125      -0.01026297      -0.00805812
C       -1.32410162       6.48895831       3.65914570       0.00000000      -0.00101507       0.00268995       0.00203592
C       -2.53940485       8.62968867       3.65001469       0.00000000       0.01103431       0.00161517      -0.00403282
C        4.88768051       0.05996975       3.66557730       0.00000000      -0.00810519      -0.00373659       0.00220188
C        3.69650156       2.24271805       3.74222154       0.00000000      -0.00117476       0.00545162       0.00225814
N        1.03046380       6.47872151       4.03528435       0.00000000      -0.00375239      -0.00245319       0.00459376
C       -0.07193991       8.58740698       3.75064414       0.00000000       0.00673030       0.00695571       0.00605039
C        7.36149438       0.01570818       3.67639124       0.00000000      -0.00289791      -0.00084370       0.00702384
C        6.15262250       2.15584253       3.51938465       0.00000000      -0.00131816      -0.00277453      -0.00871270
C        4.96155180       4.26348679       3.57682919       0.00000000       0.00741404       0.00465037       0.00485365
B        3.70999875       6.37283038       4.07105069       0.00000000       0.00566964       0.00225725       0.00293719
C        2.40505406       8.54624739       3.88693450       0.00000000      -0.00498170       0.00069262       0.00652613
C        9.81580703       0.02274893       3.74332924       0.00000000      -0.00169655       0.00170576      -0.00055608
C        8.59996471       2.16247182       3.56142826       0.00000000       0.00292538      -0.00040797      -0.00724389
C        7.38486480       4.31159351       3.44335713       0.00000000      -0.00219868       0.00207216       0.00540564
C        6.13978069       6.45652805       3.59539426       0.00000000       0.00154329      -0.00400215      -0.00186349
C        4.88159145       8.58199103       3.80427211       0.00000000      -0.00419282      -0.00566952       0.00135843
C       -0.05458483       1.49650033       3.81003307       0.00000000      -0.00143105       0.00477873      -0.00865430
C       -1.31024980       3.60325639       3.67917414       0.00000000      -0.00431371      -0.00672039      -0.00842188
C       -2.53112755       5.75707571       3.56233902       0.00000000      -0.00219215      -0.00054147      -0.00490293
C       -3.76445638       7.90733087       3.61080958       0.00000000       0.01006830       0.00375623      -0.00579717
C       -4.98282805      10.05567287       3.75009398       0.00000000      -0.00006735       0.00277634       0.00551723
C        2.43265338       1.54595495       3.83660118       0.00000000      -0.00396940       0.00103540      -0.00063234
C        1.06228718       3.63982302       4.06543227       0.00000000       0.00330673       0.00113864       0.00096915
C       -0.10377836       5.78641394       3.83324030       0.00000000      -0.00222005      -0.00682958      -0.01094579
C       -1.31060613       7.90655521       3.67492174       0.00000000       0.00994694       0.00507635       0.01275593
C       -2.52811182      10.05891521       3.69460580       0.00000000      -0.00377320      -0.00274021       0.00496523
C        4.91193763       1.47591829       3.61881618       0.00000000      -0.00463183      -0.00280734      -0.00155282
N        3.82945590       3.58309523       3.81501850       0.00000000       0.00706026       0.00116165      -0.00296691
C        1.14343530       7.82590156       3.89904499       0.00000000      -0.00059421      -0.00039786       0.00173459
C       -0.04884146      10.00592670       3.69194405       0.00000000      -0.00448196       0.00403317      -0.00199581
C        7.37514687       1.43816204       3.56774393       0.00000000       0.00229822      -0.00107728       0.00495602
C        6.18074118       3.56741680       3.43699619       0.00000000       0.00012105       0.00152967      -0.00217520
C        4.96150172       5.68839986       3.66553073       0.00000000       0.00089547       0.00137799       0.00066285
C        3.64152793       7.86958216       3.91749513       0.00000000      -0.00682034      -0.00334656       0.01222203
C        2.41311240       9.97726059       3.76733840       0.00000000      -0.00233752      -0.00047408      -0.00079762
C        9.81796947       1.44809371       3.66452543       0.00000000       0.00267201       0.00032312      -0.00736965
C        8.60352748       3.59386586       3.49660543       0.00000000      -0.00315313      -0.00171082      -0.00340130
C        7.37126789       5.74515011       3.49145863       0.00000000      -0.00055384       0.00005186      -0.00578297
C        6.11737749       7.88692714       3.69657592       0.00000000       0.00224321      -0.00545930       0.00399497
C        4.88548990      10.01492127       3.77964819       0.00000000      -0.00197987      -0.00025761      -0.00059017
Pd       2.46393450       4.95916576       4.68257722       0.00000000      -0.00354273       0.00450816       0.01767503
O        4.22615666       3.60498827       6.45847631       1.00000000       0.00543226       0.00431027      -0.00013997
O        2.96929106       3.78501856       6.35967806       1.00000000       0.00361926      -0.00604467      -0.00956997
