52
Lattice="12.336457 0.0 0.0 -6.168228499999997 10.683685154694365 0.0 0.0 0.0 15.0" Properties=species:S:1:pos:R:3:initial_magmoms:R:1:forces:R:3 energy=-451.17077621512345 free_energy=-451.17077621512345 stress="-0.004229218060752749 -0.0017525242174276845 6.184203568341607e-06 -0.0017525242174276845 -0.00701744231300732 -2.9261876538103832e-05 6.184203568341607e-06 -2.9261876538103832e-05 -2.4869523315333076e-05" pbc="T T T"
C       -0.00833434      -0.02137935       3.59876757       0.00000000       0.00007703       0.00411430       0.00273522
C       -1.25947363       2.10079854       3.73028180       0.00000000       0.00320063      -0.00258545      -0.01316911
C       -2.49667581       4.24919030       3.74830867       0.00000000      -0.00799093       0.00078355      -0.00341175
C       -3.71100020       6.38821363       3.64435104       0.00000000       0.00415654       0.00343323      -0.00524515
C       -4.93869830       8.52486685       3.52549952       0.00000000       0.00629487      -0.00180665      -0.00338818
C        2.46188660      -0.02629407       3.73549359       0.00000000      -0.00075849       0.00028004       0.00171613
C        1.21078183       2.08969723       3.88404879       0.00000000      -0.00367688       0.00037413       0.00222158
C       -0.05797113       4.19632519       3.94928108       0.00000000      -0.00139349      -0.00275535       0.00326945
C       -1.23849522       6.37889789       3.81373049       0.00000000       0.00722807       0.00627455      -0.00400687
C       -2.46318773       8.51931919       3.70922132       0.00000000       0.00289028      -0.00714093       0.00838756
C        4.92815729      -0.01855077       3.75707335       0.00000000      -0.00121348      -0.00114519       0.00145751
C        3.68879078       2.12146758       3.86431019       0.00000000      -0.00674803       0.00828850       0.00367724
B        2.42627350       4.31085523       4.24547659       0.00000000       0.00139752      -0.00224318      -0.01253053
P        1.58643793       6.21204868       4.10111808       0.00000000      -0.00216076       0.00581653       0.00311356
C        0.00940563       8.52926125       3.73611325       0.00000000       0.00046607       0.00065130       0.00287308
C        7.38658606       0.00282061       3.64916996       0.00000000       0.00340212      -0.00343314      -0.00189315
C        6.15425165       2.12137758       3.75506253       0.00000000       0.00605193      -0.00182136      -0.00176795
C        4.92722154       4.25169932       3.67850591       0.00000000      -0.00266364      -0.00569971      -0.00141092
P        3.47991086       6.26034289       2.53374666       0.00000000       0.01099847      -0.01654903      -0.00108708
C        2.47525479       8.60480736       3.40955139       0.00000000      -0.01186663       0.00428927      -0.00146959
C        9.86631502       0.00582318       3.51667124       0.00000000       0.00051616      -0.00048973       0.01410357
C        8.61590474       2.12476635       3.68220449       0.00000000       0.00572456      -0.00566538      -0.00193463
C        7.38639565       4.25903836       3.66677524       0.00000000      -0.00574425       0.00729160       0.00131160
C        6.15536567       6.38892934       3.41127261       0.00000000      -0.00409210      -0.00392513       0.00573201
C        4.93787658       8.55107720       3.28799637       0.00000000       0.00045434       0.00538861      -0.00351991
C       -0.02324790       1.38657190       3.74063500       0.00000000       0.00049638       0.00135427      -0.00294379
C       -1.28760694       3.51138127       3.81230099       0.00000000      -0.00400103      -0.00293686      -0.00919916
C       -2.48327785       5.67419319       3.74225765       0.00000000       0.00316173       0.00564324      -0.00227091
C       -3.70276280       7.81305286       3.62538017       0.00000000       0.00500055      -0.00172879       0.00029454
C       -4.93863218       9.94796542       3.61448222       0.00000000      -0.00068453       0.00075863       0.00313596
C        2.45780799       1.38938075       3.84855085       0.00000000      -0.00570446       0.00356776      -0.00098230
C        1.15573789       3.48861677       4.02799162       0.00000000       0.00399892       0.00063397      -0.01358236
C       -0.05459731       5.60728946       3.93638048       0.00000000       0.00310587       0.00217396       0.00779298
C       -1.22660006       7.80853516       3.76803545       0.00000000       0.00451342       0.00303858       0.00972061
C       -2.46991639       9.94541828       3.73460830       0.00000000      -0.00087177      -0.00829901       0.00767201
C        4.92538787       1.40359691       3.79137169       0.00000000      -0.00223169       0.00414928       0.00569488
C        3.71369174       3.54622030       3.89386403       0.00000000      -0.00289137       0.00334220       0.00016355
C        1.27965412       7.88661694       3.66682084       0.00000000      -0.00718539      -0.00724065      -0.00770459
C       -0.00589455       9.95931221       3.71168616       0.00000000       0.00217550      -0.00093220      -0.00338931
C        7.38430771       1.41728874       3.69906805       0.00000000       0.00796082      -0.00582714      -0.00986527
C        6.16357502       3.54151409       3.71533015       0.00000000      -0.00173775       0.00051933      -0.00652344
C        4.94628652       5.64154104       3.35443181       0.00000000      -0.00407350      -0.00978754      -0.00146926
C        3.68745038       7.91251754       3.13608967       0.00000000      -0.00675317       0.00345918       0.01471463
C        2.45942975      10.00853750       3.50880348       0.00000000      -0.00065664       0.00237124       0.00467831
C        9.84973286       1.41172990       3.63940225       0.00000000       0.00593265      -0.00393255       0.00160206
C        8.61239980       3.54441423       3.70366144       0.00000000      -0.00858091      -0.00172873      -0.00463631
C        7.39025858       5.68055102       3.58168691       0.00000000      -0.00005456       0.00659373      -0.00246896
C        6.16956371       7.82109633       3.36513421       0.00000000       0.00406273      -0.00329714      -0.00061406
C        4.93103266       9.97033518       3.45768764       0.00000000       0.00060312       0.00636731      -0.00210089
Pd       2.54959521       5.49749299       5.89511391       0.00000000       0.00332797       0.00757221       0.00353990
O        2.21809577       6.23520247       8.65797413       1.00000000       0.00392904       0.01314161       0.00210373
O        3.19436322       5.79412066       7.96463152       1.00000000      -0.00739183      -0.01070127       0.01087377
