51
Lattice="12.336457 0.0 0.0 -6.168228499999997 10.683685154694365 0.0 0.0 0.0 15.0" Properties=species:S:1:pos:R:3:initial_magmoms:R:1:forces:R:3 energy=-435.97405924501004 free_energy=-435.97405924501004 stress="-0.006443119752477185 -0.004966914636495602 1.5227074055419239e-05 -0.004966914636495602 -0.0027144625060385816 -6.080797088450904e-06 1.5227074055419239e-05 -6.080797088450904e-06 -2.7921790847768057e-05" pbc="T T T"
C       -0.05547406      -0.07267991       3.69212010       0.00000000      -0.00007614      -0.00014177      -0.00230566
C       -1.32025781       2.04942495       3.47369126       0.00000000       0.00688652       0.00152450      -0.00046411
C       -2.54535400       4.20077302       3.70322767       0.00000000      -0.00476787       0.00338761      -0.00112051
C       -3.73078452       6.35078468       3.90040586       0.00000000      -0.00474974      -0.00457774      -0.00723430
C       -4.96251112       8.49304634       3.88750774       0.00000000       0.00373273       0.00287736      -0.00826598
C        2.41748495      -0.08850232       3.65825799       0.00000000       0.00353815       0.00717329       0.00106688
C        1.14123581       1.96810924       3.11599534       0.00000000      -0.00043226      -0.00519371      -0.00845694
C       -0.18875644       4.21575438       3.14614381       0.00000000       0.00368270       0.00147239      -0.00594822
C       -1.28760490       6.32741240       3.75908777       0.00000000       0.00227049       0.00244059      -0.00775953
C       -2.49271829       8.47482111       3.85639149       0.00000000      -0.00163093      -0.00205578       0.01151235
C        4.88416539      -0.06955938       3.75765860       0.00000000       0.00875534      -0.00077868       0.00244454
C        3.61414436       2.01245616       3.48314634       0.00000000      -0.00052554      -0.00306236      -0.00228411
B        1.10370756       6.27708606       4.09936594       0.00000000      -0.00586277       0.00031946      -0.00204837
C       -0.02570775       8.46516335       3.88511491       0.00000000      -0.00265949      -0.00096277       0.00631463
C        7.34910796      -0.07410120       3.81918253       0.00000000       0.00295978      -0.00423684       0.00992954
C        6.09233348       2.09084582       3.73748378       0.00000000      -0.00148240       0.00302952      -0.00154069
C        4.96497612       4.33268080       3.70120764       0.00000000       0.00955469       0.00452873       0.00314173
O        3.76802747       6.41560195       3.66905631       0.00000000      -0.00188175       0.00105572      -0.00248703
C        2.45242139       8.44357738       3.89265356       0.00000000      -0.00399098       0.00195927       0.00064800
C        9.81014086      -0.07944111       3.77848824       0.00000000      -0.00102297       0.00381919      -0.00849617
C        8.56413103       2.06692629       3.75695014       0.00000000      -0.00278814      -0.00234523      -0.00392427
C        7.35518117       4.22435155       3.85979060       0.00000000       0.00194385      -0.00245115      -0.00195637
C        6.17173034       6.39496202       3.91452423       0.00000000       0.00549296       0.00033845      -0.00624541
C        4.90524094       8.48858558       3.87940478       0.00000000      -0.00047954       0.00198858       0.00043279
C       -0.07893473       1.33706307       3.43181745       0.00000000       0.00379234      -0.00411548      -0.00052620
C       -1.34830074       3.46879379       3.43192313       0.00000000      -0.00329464       0.00240882      -0.00979602
C       -2.52166612       5.62347868       3.79267610       0.00000000      -0.00198570       0.00366324       0.00043905
C       -3.72606613       7.77462124       3.89580455       0.00000000      -0.00256348      -0.00405766       0.00596747
C       -4.98196834       9.90701809       3.75744666       0.00000000       0.00351041       0.00636309       0.00585576
C        2.38970265       1.31444361       3.39619011       0.00000000      -0.00055994       0.00261905      -0.01224020
S        0.99673027       3.42854321       2.16345351       0.00000000      -0.00242125      -0.00618736       0.00993449
C       -0.10697075       5.56786783       3.56130644       0.00000000       0.00168559      -0.00238542      -0.00061883
C       -1.25948067       7.75262774       3.86403647       0.00000000       0.00057363      -0.00018503      -0.00903867
C       -2.50730256       9.89881328       3.77411627       0.00000000       0.00568476       0.00060243      -0.00290994
C        4.86243240       1.37116850       3.66948413       0.00000000       0.00218295       0.00093532       0.00200120
S        3.46159646       3.69903384       3.28061080       0.00000000      -0.00699246      -0.00724473      -0.00045546
C        1.21245738       7.76172993       3.96006411       0.00000000      -0.00926493      -0.00167001      -0.00351348
C       -0.04729172       9.90127554       3.83073045       0.00000000       0.00574424      -0.00434977      -0.00072834
C        7.32610784       1.36316252       3.78410177       0.00000000      -0.00367223      -0.00364120       0.00282802
C        6.11693552       3.52399581       3.77257694       0.00000000       0.00548502       0.00316960       0.00587336
C        4.98121313       5.72463082       3.74887514       0.00000000       0.00054338       0.00468867       0.01644513
C        3.70464784       7.78141351       3.83903121       0.00000000      -0.00332744       0.00429728      -0.00798036
C        2.42206942       9.88265552       3.84122386       0.00000000       0.00126047      -0.00037470       0.00283843
C        9.80150441       1.34988861       3.68290664       0.00000000       0.00340391       0.00356892      -0.00264855
C        8.56979014       3.49013405       3.79259994       0.00000000      -0.00222843      -0.00185700       0.00411337
C        7.37922413       5.64382517       3.91730691       0.00000000       0.00008001      -0.00697181      -0.00031126
C        6.15157921       7.80460648       3.91580462       0.00000000       0.00315560       0.00095620       0.00792769
C        4.88138767       9.90706690       3.80439128       0.00000000      -0.00293097       0.00306480      -0.00297834
Pd       2.25668452       4.93637709       4.95542915       0.00000000      -0.00551338      -0.00573352       0.00589918
O        3.56064193       6.82711883       6.31451308       1.00000000      -0.00006181       0.01086816       0.01289917
O        3.76385549       5.57213634       6.26009312       1.00000000      -0.00875236      -0.00854050       0.00577055
