51
Lattice="12.336457 0.0 0.0 -6.168228499999997 10.683685154694365 0.0 0.0 0.0 15.0" Properties=species:S:1:pos:R:3:initial_magmoms:R:1:forces:R:3 energy=-436.4804692156279 free_energy=-436.4804692156279 stress="-0.0030657726246180917 0.000859262486594888 -9.41385972539335e-06 0.000859262486594888 -0.005667178976668576 3.688171523966425e-06 -9.41385972539335e-06 3.688171523966425e-06 2.9557984199086187e-05" pbc="T T T"
C       -0.03735830       0.02343907       3.65695204       0.00000000       0.00724952       0.00046902       0.00477814
C       -1.26200133       2.17146781       3.48401896       0.00000000      -0.00181951       0.00263469       0.00916003
C       -2.51171985       4.30703509       3.54987330       0.00000000       0.00622033      -0.00571560      -0.00836149
C       -3.73967528       6.44009812       3.64827306       0.00000000      -0.00484716       0.00310728      -0.00148537
C       -4.98472942       8.56057617       3.66373812       0.00000000       0.00097074       0.00076084       0.00352362
C        2.42203968      -0.00385187       3.86528519       0.00000000       0.00324730      -0.00282229      -0.00446104
C        1.22510631       2.09278987       3.50314061       0.00000000      -0.00536727      -0.00002985      -0.00970225
C       -0.09182511       4.34906040       3.29880367       0.00000000       0.00794207      -0.00972483       0.00385683
C       -1.28256211       6.44530303       3.71744268       0.00000000      -0.00163891       0.00540902       0.00991709
C       -2.50670026       8.56471130       3.86132843       0.00000000      -0.00869590       0.00069311      -0.00783107
C        4.89400728       0.02474367       3.98792567       0.00000000      -0.00297188      -0.00821258      -0.01572561
C        3.63990184       2.13806418       4.00671747       0.00000000      -0.00314570       0.00348327      -0.00507505
B        1.20592048       6.39631566       4.06355218       0.00000000      -0.00216072      -0.00641751      -0.00179174
C       -0.03561419       8.57665251       3.96636912       0.00000000       0.00483152       0.00528648      -0.00525810
C        7.36310590       0.05040951       3.92737391       0.00000000      -0.01124176      -0.00216786      -0.00045617
C        6.12879730       2.17194575       3.91223296       0.00000000       0.00809908      -0.00682195      -0.00847510
C        4.93783958       4.32846283       3.76036001       0.00000000       0.00000997       0.00421039      -0.01354513
S        3.46375738       6.35624829       2.84093237       0.00000000      -0.00578634       0.00293784       0.00469670
C        2.42770490       8.60774709       3.83586441       0.00000000      -0.00181019       0.00526606      -0.00464552
C        9.83693891       0.04734657       3.72508559       0.00000000      -0.00635062       0.00372804       0.00320307
C        8.60052633       2.17442583       3.71533058       0.00000000      -0.00256640      -0.00714855       0.00362177
C        7.37343852       4.30384883       3.66646423       0.00000000       0.01043862       0.00122390       0.00872143
C        6.13743214       6.44169006       3.46459073       0.00000000       0.00585419       0.00373380       0.00201474
C        4.88810788       8.57586903       3.56190646       0.00000000       0.00514751      -0.00507840       0.01012008
C       -0.03023728       1.45335709       3.53932069       0.00000000      -0.00406530       0.00393107       0.01529364
C       -1.27896807       3.58800875       3.40413378       0.00000000       0.00951467      -0.00388433       0.00354405
C       -2.51400356       5.72791861       3.63149324       0.00000000      -0.00366386      -0.00048059       0.00396665
C       -3.74240421       7.85838097       3.72457918       0.00000000      -0.00751686       0.00129944      -0.00616056
C       -4.97999212       9.98521312       3.73420904       0.00000000       0.00822841      -0.00240068      -0.00064794
C        2.42945352       1.42311991       3.83786347       0.00000000      -0.00585199       0.00063594      -0.00018125
S        1.40092268       3.64414564       2.77588676       0.00000000      -0.00903897       0.00495465       0.01073352
C       -0.07261811       5.71082259       3.61857228       0.00000000      -0.00281106      -0.00585181      -0.00388117
C       -1.27206005       7.85984591       3.88068224       0.00000000      -0.00107947       0.01243047       0.00147252
C       -2.50600333       9.98473789       3.93608864       0.00000000      -0.00322388      -0.00519242      -0.00311488
C        4.88595622       1.46081703       3.99089588       0.00000000       0.00216980      -0.00661243      -0.00180729
B        3.64869549       3.64063292       4.16884163       0.00000000      -0.00636172       0.00864148       0.00510513
C        1.20980156       7.89982996       3.95551608       0.00000000       0.00356138      -0.00051565       0.00036927
C       -0.03949155      10.01410103       3.98149316       0.00000000      -0.00377308      -0.00177417      -0.00698479
C        7.36371839       1.46939133       3.86293097       0.00000000       0.00220752      -0.00903047       0.00406765
C        6.14398951       3.58942356       3.78991466       0.00000000       0.00851885       0.00073558       0.00022825
C        4.95276238       5.67418592       3.39555765       0.00000000       0.00184453       0.00992173       0.00177312
C        3.63346743       7.93210537       3.53062203       0.00000000       0.00007331       0.00258630      -0.00452683
C        2.43559344      10.03867245       3.85801809       0.00000000      -0.01185918       0.00586609       0.00163681
C        9.84288132       1.47149658       3.64354710       0.00000000      -0.00451211       0.00300442       0.00342262
C        8.59952589       3.59212876       3.64479446       0.00000000       0.00595734      -0.00817906      -0.00362802
C        7.37031160       5.72436918       3.58572449       0.00000000       0.00207313       0.00269734       0.00110329
C        6.12041592       7.85843387       3.51980299       0.00000000       0.00654232      -0.00044554       0.00641677
C        4.89419376      10.00733401       3.65841095       0.00000000       0.00278008       0.00072633       0.00112068
Pd       2.42028668       5.13680810       5.03388109       0.00000000       0.00066323      -0.00314167       0.00459902
O        3.27608505       4.29893617       7.61989204       1.00000000      -0.00012096       0.00045454      -0.00077505
O        3.44898742       3.82594080       6.44817235       1.00000000       0.00813539       0.00081914      -0.00994508
