52
Lattice="12.336457 0.0 0.0 -6.168228499999997 10.683685154694365 0.0 0.0 0.0 15.0" Properties=species:S:1:pos:R:3:forces:R:3 energy=-440.167141229744 free_energy=-440.167141229744 stress="-0.004536945951241226 -0.004017821383852355 6.390802793303541e-05 -0.004017821383852355 -0.003601829121031801 -1.9034692264947302e-05 6.390802793303541e-05 -1.9034692264947302e-05 1.1515271599826052e-05" pbc="T T T"
C        0.05790727       0.09088092       3.96735124      -0.00173132      -0.00154903      -0.00409596
C       -1.21037644       2.20074381       3.85699089       0.00355822      -0.01207396      -0.00635140
C       -2.43211159       4.35497836       3.83267634       0.00110480      -0.00305110      -0.00098437
C       -3.62617521       6.50171701       3.90925414       0.00070999      -0.00177879      -0.00056824
C       -4.86025551       8.64170931       4.01191550       0.00079858       0.00936940       0.00349863
C        2.51571424       0.10459684       3.80154731      -0.00140187      -0.00214506      -0.00066194
C        1.22422542       2.19826896       3.62551758       0.00737941      -0.00301916      -0.00043459
C       -0.03108379       4.27557485       3.58014848      -0.00203491       0.00367354       0.01197429
C       -1.15991199       6.46633850       3.70269213      -0.00150956       0.00635156       0.00616209
C       -2.38760377       8.62367227       3.83530660      -0.00472445       0.00238251      -0.00256182
C        4.98317484       0.08857343       3.75994936      -0.00768720       0.00285436      -0.00444267
C        3.73569845       2.18323259       3.39989122      -0.00549963       0.00146427       0.00052543
S        1.54925129       6.35762431       3.18713631       0.00965512       0.00223250       0.00463208
C        0.07377671       8.62121782       3.79008502       0.00212794      -0.00362704      -0.00854154
C        7.44002862       0.10219664       3.91445410       0.00271272      -0.00149121      -0.00851278
C        6.20242835       2.23927440       3.67079197       0.00125991       0.00456242      -0.00119403
C        5.06097436       4.43022003       3.55079542       0.00781044      -0.00293689      -0.00206197
B        3.80148185       6.50945187       4.38543759       0.00004204       0.00468184       0.00168732
C        2.53303514       8.66639753       4.08321404      -0.00301588      -0.00496893      -0.00268961
C        9.91685617       0.10000265       4.05249707      -0.00014464      -0.00167902      -0.00241046
C        8.66510042       2.22785552       3.89080760       0.00175275       0.00748265       0.01086388
C        7.46212927       4.37321879       3.84749324       0.00403139      -0.00324932       0.00570102
C        6.25489640       6.51368934       4.02621581       0.00423967      -0.00826171      -0.00298603
C        5.00678420       8.65329888       4.17142158      -0.00154816      -0.00337139      -0.00947588
C        0.03639324       1.50877842       3.82375142       0.00705020      -0.00549548       0.00640154
C       -1.22644783       3.60718872       3.76146980      -0.00157855      -0.00955974       0.00321212
C       -2.40333267       5.77248345       3.81741295       0.00193246      -0.00119730       0.00584347
C       -3.62519900       7.92482747       3.92269089      -0.00251996       0.00291902       0.00844606
C       -4.87216878      10.07043171       3.94634004      -0.00185350       0.00814945      -0.00668282
C        2.48589386       1.52931123       3.61236406       0.00287354      -0.00715322       0.00488130
O        1.16586605       3.57322648       3.58463009       0.00197642       0.00293657       0.00352928
C        0.00767615       5.67393676       3.54545532      -0.00150206       0.00571997       0.00260199
C       -1.15280396       7.89928313       3.75713899      -0.00272404       0.00575672      -0.00239953
C       -2.41114009      10.06156201       3.80147438      -0.00617441      -0.00092935       0.00004887
C        4.96862017       1.52361723       3.61443051      -0.00456061       0.00705386       0.00204256
S        3.73533943       3.76466706       2.69078075       0.00563773       0.00395976       0.00764909
C        1.33451551       7.96940880       3.80311101       0.00316098      -0.00838895      -0.00897779
C        0.05210338      10.06174749       3.83958472      -0.00245670      -0.00106765      -0.01160655
C        7.42603327       1.52762404       3.83862973       0.00380222       0.00437412      -0.00208558
C        6.23533907       3.65760367       3.68008146       0.00491645       0.00056083       0.00623116
C        5.04693199       5.78092783       3.94352022      -0.00155178      -0.00199504      -0.00596544
C        3.76360409       7.98861717       4.21734095      -0.00303071       0.00110554       0.00488461
C        2.50849271      10.09568165       4.05177787       0.00138692      -0.00604288      -0.00143115
C        9.90423455       1.51387870       3.95025159      -0.00127582      -0.00081540      -0.00037865
C        8.67559750       3.64771415       3.87026287       0.00139317       0.00401798      -0.00087246
C        7.48215005       5.79510388       3.93433824       0.00672394      -0.00891937       0.00619170
C        6.24711539       7.93625874       4.11265697       0.00459817      -0.00268906      -0.00186732
C        4.99459605      10.07944843       4.08799100      -0.00137130      -0.00291311      -0.00186021
Pd       2.34772351       5.50224265       5.17712604       0.00219886       0.00791785      -0.00428003
O        1.38175409       3.85951481       6.10045467      -0.00931347       0.00013953      -0.00450126
O        1.47322649       4.01241604       7.48711863      -0.01285848       0.01317452      -0.00570900
H        1.96018187       4.86271406       7.59898482      -0.01276499      -0.00247162       0.00958259
