51
Lattice="12.336457 0.0 0.0 -6.168228499999997 10.683685154694365 0.0 0.0 0.0 15.0" Properties=species:S:1:pos:R:3:initial_magmoms:R:1:forces:R:3 energy=-448.979293473752 free_energy=-448.979293473752 stress="-0.005440847322673834 -0.0005179892614879911 -1.3403509914458971e-05 -0.0005179892614879911 0.003448292062367216 4.774425047446154e-06 -1.3403509914458971e-05 4.774425047446154e-06 1.8111610539886368e-05" pbc="T T T"
C       -0.02583103       0.06437660       3.73499649       0.00000000      -0.00738229      -0.00311412      -0.00124967
C       -1.27893015       2.17200020       3.63208084       0.00000000       0.00298797       0.00288094      -0.00255228
C       -2.51328601       4.32282615       3.52068957       0.00000000      -0.00137486      -0.00202519       0.00483834
C       -3.72953787       6.47653395       3.55991940       0.00000000       0.00132230       0.00022937       0.00028235
C       -4.94909988       8.62764394       3.67733064       0.00000000      -0.00090917       0.00248704      -0.00366870
C        2.44179819       0.12078367       3.74881411       0.00000000       0.00227938      -0.00321495       0.00211771
C        1.18049252       2.25211672       3.82293612       0.00000000      -0.00041943      -0.00048314       0.00700984
C       -0.08643042       4.28378466       3.72407043       0.00000000      -0.00087281       0.00319447      -0.00347884
C       -1.27780885       6.46438193       3.66260457       0.00000000       0.00200348       0.00208169       0.00365630
C       -2.49558304       8.62515505       3.68596748       0.00000000      -0.00261417      -0.00214957      -0.00164619
C        4.90612770       0.07175344       3.70946397       0.00000000       0.00040615       0.00294589       0.00499235
C        3.69753741       2.25872715       3.76877526       0.00000000       0.00090175       0.00518830      -0.00328087
B        1.19849754       6.40602444       4.06196759       0.00000000       0.00009892      -0.00489856      -0.00012785
C       -0.03400562       8.60017045       3.79920603       0.00000000      -0.00378395       0.00184539      -0.00380879
C        7.37999741       0.03530020       3.70969763       0.00000000      -0.00139725      -0.00074084       0.00726133
C        6.15493077       2.18180255       3.59213640       0.00000000      -0.00013736      -0.00216492      -0.00134608
C        4.94446696       4.29811882       3.65193047       0.00000000       0.00524138       0.00056700       0.00212846
C        3.74232984       6.41937416       3.95330739       0.00000000      -0.00105958       0.00183443       0.00148679
C        2.44055347       8.56792624       3.88840713       0.00000000       0.00083196      -0.00167336      -0.00353982
C        9.83917950       0.02824843       3.71895327       0.00000000      -0.00094019       0.00271590      -0.00394378
C        8.60784135       2.17343298       3.56549964       0.00000000      -0.00255528      -0.00225901       0.00121429
C        7.38354265       4.32704313       3.50494034       0.00000000      -0.00180652       0.00126471      -0.00280482
C        6.15734328       6.47696518       3.61588333       0.00000000      -0.00383402      -0.00191371      -0.00300318
C        4.91742085       8.58360171       3.77583575       0.00000000       0.00693382      -0.00333504      -0.00126152
C       -0.03499144       1.49069128       3.72446198       0.00000000      -0.00130966      -0.00243554       0.00055790
C       -1.30427924       3.58389436       3.57634050       0.00000000       0.00096060       0.00226116      -0.00328421
C       -2.51074425       5.75375380       3.55454189       0.00000000       0.00353864      -0.00012593       0.00074114
C       -3.72540626       7.90911801       3.63422707       0.00000000      -0.00263792       0.00055738      -0.00311831
C       -4.95226316      10.05809379       3.73079358       0.00000000      -0.00382635       0.00117779       0.00309778
C        2.44105210       1.55761764       3.79743550       0.00000000       0.00199426      -0.00105764       0.00212747
N        1.06467428       3.61274730       3.95567370       0.00000000      -0.00284031       0.00126110       0.00042473
C       -0.08875688       5.70799582       3.76253243       0.00000000      -0.00069399       0.00171568       0.00327668
C       -1.26791838       7.89816806       3.71742595       0.00000000      -0.00334013       0.00122968       0.00408093
C       -2.49954853      10.05968822       3.72306635       0.00000000       0.00339463      -0.00295370       0.00138994
C        4.91253660       1.49855884       3.67075824       0.00000000      -0.00113725       0.00329976      -0.00051239
N        3.81700336       3.61277799       3.87092110       0.00000000       0.00541493       0.00328615      -0.00046904
C        1.20519700       7.89852086       3.91789288       0.00000000      -0.00215785      -0.00242513      -0.00061897
C       -0.02995718      10.02570242       3.73831818       0.00000000      -0.00223712       0.00232863       0.00037455
C        7.38161857       1.45896542       3.61061301       0.00000000      -0.00208720      -0.00411496      -0.00234862
C        6.17031296       3.59825409       3.53460386       0.00000000       0.00176813      -0.00248965      -0.00177802
C        4.92566815       5.74668718       3.70576192       0.00000000      -0.00226776      -0.00089763       0.00639389
C        3.67773903       7.82782184       3.88503728       0.00000000       0.00604763       0.00056084      -0.00167648
C        2.44350605       9.99749888       3.77216668       0.00000000      -0.00012248       0.00111435      -0.00415726
C        9.83320937       1.45188890       3.62634709       0.00000000       0.00179653       0.00423579       0.00158387
C        8.60348487       3.60378923       3.50561205       0.00000000      -0.00331396      -0.00164750       0.00046169
C        7.37784110       5.75951405       3.53762816       0.00000000      -0.00209180       0.00190212      -0.00183621
C        6.15349417       7.89912246       3.68536313       0.00000000       0.00457740      -0.00259546      -0.00047861
C        4.90962086      10.00864316       3.74659871       0.00000000      -0.00426365      -0.00390411      -0.00560517
Pd       2.46248474       5.02976503       4.62181898       0.00000000       0.00247000       0.00588168       0.02297559
O        3.06403868       2.93950505       6.32775679       1.00000000       0.00012129      -0.00495556       0.01100663
O        3.13834839       4.20800478       6.41248661       1.00000000       0.00832313      -0.00047198      -0.03188484
