52
Lattice="12.336457 0.0 0.0 -6.168228499999997 10.683685154694365 0.0 0.0 0.0 15.0" Properties=species:S:1:pos:R:3:forces:R:3 energy=-440.7868047192268 free_energy=-440.7868047192268 stress="-0.003490040278134212 0.000503855078113328 2.4569238486302797e-05 0.000503855078113328 -0.005782758112061919 6.31506420549167e-06 2.4569238486302797e-05 6.31506420549167e-06 1.3594376073634742e-05" pbc="T T T"
C       -0.03745222      -0.12207712       3.83018246       0.00990243      -0.00120970      -0.00716941
C       -1.26304056       2.02613474       3.67053600       0.01023563       0.00641476       0.00810526
C       -2.51422802       4.16413386       3.71072546       0.00418590      -0.00646185      -0.00345708
C       -3.74309895       6.29702234       3.77133721      -0.00515743       0.00265684       0.00985511
C       -4.98520881       8.41603084       3.79647597      -0.00848455      -0.01422041      -0.00556389
C        2.42223817      -0.15517627       4.02731313      -0.00233493       0.00643926       0.00407296
C        1.22432568       1.94728262       3.69207645       0.00978764       0.01867399       0.01959260
C       -0.09846416       4.20110332       3.47280776       0.00841839      -0.00528108       0.00902763
C       -1.28761089       6.30350801       3.85791354       0.00519526      -0.01790042      -0.01061130
C       -2.50442869       8.41864343       3.98957255      -0.00782891       0.01602355       0.01268117
C        4.89875422      -0.12516808       4.11192499       0.00866613       0.00942587      -0.00712995
C        3.64738498       1.98636947       4.09503475       0.00001530       0.01067103      -0.00749194
B        1.20747029       6.25772962       4.13045072       0.00534724       0.00888955      -0.02036665
C       -0.02723303       8.43013915       4.05358805      -0.00217346       0.00212940      -0.00151199
C        7.36605488      -0.09690239       4.03858286      -0.00630762       0.00768619      -0.00062249
C        6.12904674       2.03086873       4.00852756      -0.01036619      -0.00264438       0.00683309
C        4.93230997       4.18596694       3.70515560       0.00523612       0.00159653      -0.02270619
S        3.50038244       6.26564072       2.75768728       0.00350023       0.00880355       0.00604657
C        2.43756581       8.46404687       3.87177466      -0.00239388      -0.00098924       0.01511494
C        9.83909081      -0.09613791       3.86171916      -0.00465124      -0.02171661      -0.00550008
C        8.60030794       2.03140208       3.86515558       0.00648424      -0.01047708      -0.00674226
C        7.37107572       4.16219910       3.76306017       0.00148322       0.00125839       0.00617719
C        6.13974336       6.30322160       3.50797121       0.00196557       0.00469500       0.01330253
C        4.89202378       8.43696932       3.64034694      -0.00330175      -0.00924642      -0.00276179
C       -0.03232107       1.30893831       3.73095555       0.01425625       0.00898784      -0.00079073
C       -1.28029339       3.44204301       3.58517091       0.00683915       0.00298047       0.00268276
C       -2.51761966       5.58479367       3.77841854      -0.00590662      -0.00789853       0.00299892
C       -3.74262952       7.71365447       3.85382418      -0.00471415       0.00254063      -0.00242542
C       -4.98108490       9.83802012       3.89899408       0.00422295      -0.01515823      -0.01672597
C        2.42901786       1.27218634       3.99561214       0.00076506       0.01102482       0.02375407
S        1.41025824       3.51052890       2.98204450      -0.04074584       0.00822789       0.01443840
C       -0.08173881       5.56786423       3.76096053       0.01631681      -0.00901927       0.00848570
C       -1.26712150       7.71751037       3.99740718      -0.00779836      -0.00670450      -0.00167945
C       -2.50321446       9.83568432       4.07283324       0.00386760       0.02381918      -0.00271132
C        4.89493202       1.31139428       4.10115155      -0.00539834       0.00167266      -0.00762779
B        3.66381072       3.48774734       4.14249583      -0.00989611       0.00844040      -0.03154780
C        1.22059985       7.75483346       4.00628329       0.00182134       0.00727895       0.02463222
C       -0.03467247       9.86507866       4.08654849       0.00395925       0.00581443      -0.00411745
C        7.36539815       1.32456355       3.98879239      -0.00666123       0.00432797      -0.00230058
C        6.13834530       3.44681889       3.83946497      -0.00253448      -0.00443351      -0.01899852
C        4.95763514       5.54640842       3.36181268       0.01359513       0.00660346       0.00953713
C        3.64020298       7.80126762       3.53209291      -0.00649360      -0.00210940      -0.00181362
C        2.43796790       9.88924039       3.95110480      -0.01355590      -0.00619926      -0.00089954
C        9.84236522       1.32775871       3.81094846       0.00926367      -0.01376807      -0.00464344
C        8.59720475       3.44993388       3.78947810       0.00654856      -0.00796528      -0.01705635
C        7.36815148       5.58338840       3.67425999      -0.00449890       0.00461973       0.00503782
C        6.12386891       7.71911361       3.60545922      -0.01029680      -0.00422907       0.00860824
C        4.89597074       9.86268531       3.79630348       0.00402828      -0.01046516      -0.00775101
Pd       2.45076119       4.89397032       5.02502405       0.02267434      -0.01797845      -0.00334781
O        3.77364910       6.03034793       6.18251188      -0.01391142       0.00133783       0.01297012
O        3.12103079       7.21082885       6.64837870       0.04508340      -0.02965777       0.01394577
H        2.94974519       6.96099952       7.58211616      -0.04825341       0.02269349      -0.01182836
