51
Lattice="12.336457 0.0 0.0 -6.168228499999997 10.683685154694365 0.0 0.0 0.0 15.0" Properties=species:S:1:pos:R:3:initial_magmoms:R:1:forces:R:3 energy=-444.20265126729294 free_energy=-444.20265126729294 stress="-0.00630927404820148 -0.000397618697141415 1.365324301815469e-06 -0.000397618697141415 -0.0006387724639142129 3.748613511954123e-06 1.365324301815469e-06 3.748613511954123e-06 1.8223107116312266e-06" pbc="T T T"
C       -0.03433819       0.08458601       3.82819307       0.00000000      -0.00274334      -0.00086191       0.00361782
C       -1.28268858       2.19624438       3.82367148       0.00000000      -0.00386151       0.00307045      -0.00238008
C       -2.51096803       4.33970837       3.74390865       0.00000000       0.00240463      -0.00254686       0.00602298
C       -3.72658350       6.48715170       3.69381957       0.00000000       0.00632241      -0.00265562       0.00637090
C       -4.96702847       8.62970109       3.76496426       0.00000000      -0.00143898       0.00692149      -0.00158488
C        2.43145290       0.08990710       3.78196000       0.00000000       0.00350993      -0.00258214      -0.00472725
C        1.20520880       2.26010437       3.85088164       0.00000000       0.00163011       0.00378711      -0.00137347
C       -0.06570741       4.32616418       3.95114740       0.00000000      -0.00517874       0.00177493       0.00907765
C       -1.28883186       6.49077235       3.86967545       0.00000000       0.00275848      -0.00012902      -0.00367157
C       -2.51001865       8.62679690       3.80779936       0.00000000      -0.00090352       0.00453205       0.00463987
C        4.90252559       0.06218910       3.69839431       0.00000000       0.00134229       0.01115047      -0.00174409
C        3.65413256       2.14282100       3.36395915       0.00000000       0.00115832       0.00189493      -0.00156507
C        1.13164906       6.45688686       4.10315701       0.00000000      -0.00697763      -0.00383775       0.00172201
C       -0.04249267       8.59960744       3.90020469       0.00000000      -0.00164999      -0.00203526      -0.00407356
C        7.36229218       0.05418172       3.75650089       0.00000000      -0.00159820       0.00403643       0.00031491
C        6.13957127       2.18729961       3.42872864       0.00000000       0.00395538      -0.00016026       0.00457183
C        5.01442847       4.36613784       3.10206770       0.00000000      -0.00280359      -0.00894292       0.00414674
B        3.71170588       6.43741297       3.80259979       0.00000000       0.00231405      -0.00233432      -0.00338961
C        2.43019686       8.59737101       3.92335051       0.00000000       0.00222815       0.00354686       0.00164778
C        9.82593559       0.06012456       3.81588548       0.00000000       0.00673111       0.00144474       0.00551976
C        8.59502711       2.19429624       3.67065831       0.00000000       0.00055931      -0.00164919      -0.00230162
C        7.39607464       4.34077905       3.49609074       0.00000000       0.00036119      -0.00644146      -0.00142278
C        6.17119803       6.49330604       3.55093345       0.00000000      -0.00416216       0.00278965      -0.00356005
C        4.91115805       8.62437487       3.79073381       0.00000000      -0.00382025      -0.00503620      -0.00166832
C       -0.03635321       1.51244576       3.84807579       0.00000000      -0.00375900       0.00189658      -0.00527498
C       -1.29791796       3.61436858       3.83285774       0.00000000      -0.00029508       0.00133559      -0.00391031
C       -2.50532272       5.76965676       3.76303865       0.00000000       0.00825529      -0.00343742       0.00609288
C       -3.73498243       7.91439800       3.75672128       0.00000000      -0.00078254       0.00253126       0.00414038
C       -4.97009019      10.05471156       3.81564376       0.00000000      -0.00016968       0.00446129      -0.00061290
C        2.44233400       1.51310915       3.70495891       0.00000000       0.00397176      -0.00233374       0.00286208
C        1.12410497       3.63351840       4.02875431       0.00000000      -0.00146439       0.00444333       0.00180175
C       -0.06312730       5.77014751       3.97806880       0.00000000      -0.00479602      -0.00306602       0.00065461
C       -1.27748120       7.90899651       3.86571787       0.00000000      -0.00203517       0.00020603      -0.00849231
C       -2.50398920      10.04870373       3.77128842       0.00000000       0.00477330       0.00527271       0.00145091
C        4.90459609       1.48117812       3.48783539       0.00000000       0.00314456       0.00860674      -0.00254386
S        3.57348847       3.62975884       2.49509427       0.00000000      -0.00265635       0.00382440      -0.00350857
C        1.19797340       7.85605049       3.98835253       0.00000000       0.00186386      -0.00523177      -0.00574128
C       -0.03569564      10.02265866       3.79029360       0.00000000      -0.00341736       0.00269689       0.00199417
C        7.35908784       1.48003496       3.61794322       0.00000000       0.00206032       0.00056523      -0.00457784
C        6.17657935       3.60984979       3.30685240       0.00000000       0.00046459      -0.00721635      -0.00580970
C        4.98157888       5.74708206       3.38887655       0.00000000      -0.00401245      -0.00711055       0.00243922
C        3.66808606       7.92827396       3.84876935       0.00000000      -0.00311684      -0.00426263       0.00639728
C        2.42315278      10.02647177       3.84237852       0.00000000       0.00354723       0.00747137      -0.00043368
C        9.81965286       1.48030089       3.77458385       0.00000000       0.00002139       0.00135289      -0.00176562
C        8.60607049       3.62119104       3.63446031       0.00000000       0.00288563      -0.00376782      -0.00329787
C        7.39800504       5.77011589       3.56123628       0.00000000      -0.00004439      -0.00122121       0.00493229
C        6.14258487       7.91386935       3.71277055       0.00000000      -0.00245873       0.00504712       0.00033549
C        4.90256406      10.04881076       3.82283288       0.00000000       0.00099304      -0.00745298      -0.00007902
Pd       2.52104028       5.04228221       4.55804615       0.00000000      -0.00255175      -0.00633429       0.00315393
O        3.04748007       2.68894919       6.22904857       1.00000000       0.00562460       0.00543352      -0.00218035
O        3.65949506       3.74539525       5.93780589       1.00000000      -0.00618328      -0.00944639      -0.00221657
