52
Lattice="12.336457 0.0 0.0 -6.168228499999997 10.683685154694365 0.0 0.0 0.0 15.0" Properties=species:S:1:pos:R:3:forces:R:3 energy=-445.84872644157326 free_energy=-445.84872644157326 stress="-0.00249093280448504 -0.000943961932221051 2.0253921924589774e-05 -0.000943961932221051 -0.002201111912347973 -7.951179585688765e-06 2.0253921924589774e-05 -7.951179585688765e-06 2.3545071212706685e-06" pbc="T T T"
C        0.05296251       0.03489654       4.04475674       0.00735442      -0.00196158       0.00333879
C       -1.18665515       2.17708945       4.25474589       0.00613080       0.00089529      -0.00936636
C       -2.42491043       4.31763008       4.17073821      -0.00301200       0.00261069       0.01327561
C       -3.64477217       6.45865781       4.00716296      -0.00608572      -0.00452351       0.00173868
C       -4.88368812       8.58221300       3.87703301      -0.00178194      -0.00070016      -0.00139405
C        2.51772283       0.01345118       4.02293558       0.00182980       0.00423396      -0.01416951
C        1.29257460       2.12380981       4.38537270       0.00136295       0.00989781       0.00052842
C        0.02383941       4.34281329       4.26086411       0.00220417       0.00808114       0.01200488
C       -1.19766064       6.44528755       3.89364485       0.00122924      -0.00025755      -0.00553907
C       -2.39881309       8.57474614       3.88524006       0.00185085      -0.00869217      -0.00139505
C        4.98418151       0.03489393       3.90228036       0.00106617       0.00290599       0.00409068
C        3.72754717       2.13917088       3.99712566      -0.00557033      -0.00466712      -0.00136822
S        1.11521439       6.34118817       2.66065126      -0.00987041      -0.00707137      -0.00219187
C        0.05816359       8.58996356       3.63982661       0.00635659       0.00600364       0.00685206
C        7.45165758       0.05266360       3.85590307       0.00420209      -0.00748676      -0.00053181
C        6.20857198       2.19117064       3.97547655       0.00034038       0.00286341      -0.00263059
C        5.02179344       4.37267253       3.74156256       0.00029789       0.00065507      -0.00455827
S        4.00906829       6.51187614       2.29765327      -0.00172197      -0.00627277       0.00193412
C        2.52876075       8.62939299       3.39613497       0.00356744      -0.00047690      -0.00410752
C        9.91889013       0.05245584       3.92466954       0.00385291      -0.00445560       0.00773926
C        8.68067155       2.18135510       4.09123716      -0.00889052      -0.00199875      -0.00492361
C        7.45606049       4.32317753       4.02352282      -0.00110379       0.00416999       0.00326132
C        6.26675960       6.47059707       3.69193117       0.00522645       0.00300801       0.00936575
C        4.99730111       8.61384583       3.60674016       0.00367745      -0.00478143      -0.00063946
C        0.06775173       1.46388417       4.24746203       0.00907213       0.00383991      -0.00504736
C       -1.18310691       3.60882570       4.26694075       0.00323182       0.00194957       0.00067511
C       -2.42210444       5.73982689       4.07043934      -0.00265978       0.00035101       0.00223247
C       -3.64141571       7.87365724       3.92737187      -0.00655368      -0.00581389      -0.00206140
C       -4.88518993      10.00390577       3.98133258       0.00505729       0.00010356       0.00555382
C        2.50249230       1.45063792       4.14012978      -0.00332941       0.00503476       0.00410029
B        1.34664409       3.63953166       4.95503039      -0.00731219       0.00193366      -0.00300474
C       -0.02489721       5.63766808       3.77472552      -0.00213002       0.00405408      -0.00888723
C       -1.16955868       7.86153247       3.77148481       0.00741361      -0.00133575      -0.00033035
C       -2.41114209      10.00197618       3.92180297       0.00277953      -0.00268021       0.00707676
C        4.96433083       1.47268744       3.94851300       0.00110013       0.00210533       0.00181152
B        3.64844580       3.67522324       3.97929114      -0.00419927      -0.00107410       0.00458289
C        1.27624356       7.94940608       3.31139720       0.00140704       0.00299570       0.01016506
C        0.05138705      10.02103784       3.80339173       0.00256493       0.00517425      -0.00028124
C        7.44274191       1.47755793       3.98846353      -0.00532981      -0.00914455       0.00504628
C        6.21451125       3.62107781       3.94659032       0.00230350       0.00250941       0.00748727
C        5.12174267       5.71249658       3.38408622       0.00830753       0.00780868      -0.00008577
C        3.79030639       7.98418031       3.22760622       0.00498653       0.00408206      -0.01289009
C        2.52084422      10.03424965       3.74827156       0.00523072      -0.00129199      -0.01244416
C        9.92119182       1.47236236       4.11092417      -0.00394428       0.00009345       0.00198281
C        8.68132971       3.60447862       4.12548983      -0.00497126       0.00256503       0.00096789
C        7.46922185       5.74492049       3.95228251      -0.00158941      -0.00063858       0.00519312
C        6.23231323       7.88930175       3.69124942       0.00128277      -0.00148428       0.00120598
C        4.98901102      10.02820679       3.87977278       0.00850362      -0.00272476      -0.00464440
Pd       2.63423540       4.42120296       2.25736764      -0.01554923      -0.00289000      -0.00402841
O        2.61010012       4.32988621       4.64587471       0.00548146      -0.00473094      -0.01075798
O        1.07633114       3.62887921       6.38298908      -0.01481578       0.00159619      -0.00952601
H        1.62952370       4.30989648       6.79006335      -0.00885140      -0.00436694       0.00459367
