53
Lattice="12.336457 0.0 0.0 -6.168228499999997 10.683685154694365 0.0 0.0 0.0 15.0" Properties=species:S:1:pos:R:3:forces:R:3 energy=-465.54807793642624 free_energy=-465.54807793642624 stress="0.0003181699682650776 -0.00015981380346686877 6.195007897690672e-05 -0.00015981380346686877 0.0003870970693765346 3.3778885112637264e-05 6.195007897690672e-05 3.3778885112637264e-05 -1.6688557083450554e-05" pbc="T T T"
C       -0.00608566      -0.00330313       3.63496436      -0.00060809       0.00151075      -0.00273941
C       -1.23795775       2.13406948       3.68054716      -0.00485163       0.00067925       0.00489136
C       -2.47160648       4.26969115       3.68201957       0.00277804      -0.00764897      -0.00314991
C       -3.70652726       6.40521661       3.63811921       0.00210467      -0.00967835      -0.01148042
C       -4.93717929       8.54418407       3.61714671      -0.00113921       0.00404684      -0.00140725
C        2.46200136      -0.00586880       3.62633003      -0.00169762      -0.00634208      -0.00153210
C        1.23377327       2.13358389       3.72553957       0.00674912      -0.00750739      -0.00342722
C        0.00233068       4.27374085       3.86840853       0.00664548       0.00642147      -0.00534047
C       -1.23543875       6.40983349       3.72693697       0.00339354       0.00689752      -0.00115682
C       -2.47360622       8.54279175       3.62774613      -0.00784379       0.00676475      -0.00646360
C        4.92969469      -0.00480660       3.64269582      -0.00393383       0.00229526      -0.00350699
C        3.68703013       2.13349800       3.72496386       0.00015925       0.00119516      -0.00150261
C        2.45825651       4.24380626       4.13363326      -0.00289990       0.00460683       0.01219012
C        1.20642845       6.41519343       4.13386817       0.01342423      -0.00692812       0.01118179
C       -0.00789817       8.53391350       3.71969863       0.00551499      -0.00481071       0.00694006
C        7.39630989      -0.00924035       3.67801032      -0.00352111       0.00660621      -0.00752166
C        6.15844335       2.13405706       3.67906781       0.00349568       0.00123048      -0.00451905
C        4.91735357       4.27527953       3.84682928       0.00206719      -0.00539897      -0.00754474
C        3.72165633       6.42250304       4.10348531      -0.00072491       0.00079485      -0.01045166
C        2.46153556       8.52912282       3.84497549      -0.00636443       0.00898661       0.00276171
C        9.86181020      -0.00848089       3.67357134       0.00777848      -0.00441515      -0.00550878
C        8.62844647       2.13134640       3.65947987      -0.00192311       0.00565269      -0.00678391
C        7.39128270       4.26980521       3.67191972      -0.00169157       0.00367410       0.00020312
C        6.15948127       6.41206633       3.70232451      -0.00086650       0.00296591       0.00406895
C        4.93331453       8.53783535       3.70283183      -0.00280799      -0.00682911      -0.00256402
C       -0.00277382       1.42274029       3.66913609      -0.00154196       0.00243969      -0.00055589
C       -1.23238419       3.56120521       3.72731531       0.00463979       0.00050092       0.00159948
C       -2.47002463       5.69497955       3.67140424       0.00679618      -0.00910526       0.00294587
C       -3.70576659       7.83110695       3.61921972      -0.00270697      -0.00367838       0.00071667
C       -4.93908784       9.96730544       3.61715269      -0.00261253       0.00280483       0.00076638
C        2.46059731       1.42250441       3.68562906       0.00669327      -0.01193676       0.00766314
C        1.23534292       3.56186291       3.88722038       0.00366854      -0.00281777       0.00440061
C        0.00169237       5.69707202       3.88922003       0.00988233       0.00824513      -0.00322519
C       -1.23729123       7.82763385       3.68544574      -0.00416367       0.00979923       0.00312359
C       -2.47316945       9.96622303       3.62355954      -0.00484605       0.00345115       0.00311902
C        4.92413540       1.42213359       3.67153839       0.00095433       0.00424539      -0.00372537
C        3.68384006       3.56182333       3.88039625      -0.00545700       0.00520334      -0.00625956
C        1.22744970       7.81755833       3.87636469       0.00814404      -0.01098417      -0.00179710
C       -0.00533180       9.96107583       3.66706613      -0.00271613      -0.00134951       0.00978586
C        7.39351144       1.41811451       3.66107073       0.00124531       0.00613355      -0.00084613
C        6.15136406       3.56213560       3.71474051       0.00536488      -0.00332309       0.00490746
C        4.91984433       5.70061375       3.85888512       0.00470484      -0.00358359       0.00695893
C        3.69706249       7.81984831       3.85857658      -0.00782816       0.00546672       0.00327503
C        2.46117096       9.95476115       3.71525262      -0.00167286       0.01006146      -0.00341327
C        9.86387165       1.41861599       3.66074172      -0.00376982      -0.00176403      -0.00626958
C        8.62832261       3.55772126       3.65934286      -0.00418072       0.00365852       0.00301579
C        7.39224895       5.69536088       3.65794263      -0.00331411       0.00053292       0.00448584
C        6.16233516       7.83032623       3.66600563       0.00002109       0.00176362       0.00153962
C        4.92862419       9.96371329       3.65727549       0.00658520      -0.00878590       0.00663765
Pd       2.47138584       5.70186076       5.44500695      -0.00130821       0.00864526       0.00335693
O        3.35589940       5.90404547       7.38725948      -0.00363966      -0.01697749      -0.00832114
O        2.31209249       5.57165845       8.29665884      -0.00544196       0.00182875       0.00623478
H        2.77744390       5.63639403       9.15462206      -0.01673697      -0.00524432       0.00424411
