52
Lattice="12.336457 0.0 0.0 -6.168228499999997 10.683685154694365 0.0 0.0 0.0 15.0" Properties=species:S:1:pos:R:3:forces:R:3 energy=-447.04892909382556 free_energy=-447.04892909382556 stress="-0.0060609699745880815 0.00019957243528598054 -4.115653688978937e-06 0.00019957243528598054 0.003241797596948604 -1.296260242877354e-05 -4.115653688978937e-06 -1.296260242877354e-05 2.6324963358195974e-05" pbc="T T T"
C       -0.02557889      -0.03839641       3.75802946      -0.00191861       0.00103264      -0.00602624
C       -1.26791219       2.08269465       3.54541413      -0.00019573      -0.00863553      -0.00761032
C       -2.53305643       4.22883443       3.61184340       0.00498354      -0.00144696      -0.00099053
C       -3.74999801       6.37364325       3.75627535      -0.00203629       0.00386799      -0.00195218
C       -4.96472928       8.51546828       3.83517642       0.00693153      -0.00080974      -0.00658664
C        2.44180579      -0.01964900       3.88099470      -0.00069597      -0.00772915       0.00216576
C        1.22575896       2.05167397       3.50369099       0.00139490       0.00534101       0.00420410
C       -0.13556861       4.28454219       3.32840033      -0.00140043      -0.00281064      -0.00420956
C       -1.32652505       6.39532193       3.67174354       0.00239729       0.00753603       0.00500536
C       -2.50855418       8.52324770       3.85707839       0.00005074       0.00004792       0.00762427
C        4.91541298      -0.04391508       3.91500943       0.00220154       0.00098020      -0.00346665
C        3.68783320       2.14914153       3.92647290      -0.00574266       0.00254412       0.00099569
C        1.07812594       6.31210757       3.97353444       0.00425468      -0.00481799      -0.00341808
C       -0.02784678       8.47267601       3.88824553      -0.00159957       0.00392956      -0.00369739
C        7.38940983      -0.08368910       3.86495901      -0.00181681      -0.00459936      -0.00013790
C        6.15544950       2.08298828       3.85816695       0.00198360      -0.00093986      -0.00089119
C        4.90514397       4.25274012       3.85486304      -0.00329895       0.00523641      -0.01450601
O        3.79470599       6.40159720       3.63258902      -0.00386012      -0.00645550       0.00421958
C        2.47010370       8.41944426       3.87916885      -0.00395565       0.00176702      -0.00364542
C        9.84062349      -0.07736080       3.76974327      -0.00125105       0.00032913      -0.00234620
C        8.60807246       2.07095549       3.72677023      -0.00387785      -0.00550093      -0.00503863
C        7.36483916       4.22265425       3.75081907       0.00122251       0.00779274       0.00678800
C        6.15118229       6.37676932       3.78150497      -0.00129515       0.00494216      -0.00981545
C        4.92001167       8.49420497       3.81092670       0.00607637      -0.00556042      -0.00138271
C       -0.03062230       1.38444189       3.59716245       0.00205377       0.00083929       0.00328198
C       -1.30004391       3.51156173       3.47357385       0.00417451      -0.00954180       0.00016412
C       -2.53574869       5.65761331       3.66570079       0.00121312       0.00497583       0.00123488
C       -3.73508999       7.80339250       3.82007573       0.00355886      -0.00072651       0.00572101
C       -4.95844573       9.94764035       3.83490307      -0.00135326      -0.00368193       0.00816218
C        2.44569758       1.41459428       3.82084566      -0.00348884      -0.00472255      -0.00038679
S        1.30399271       3.57469171       2.67390703       0.00113171       0.00434772       0.01009455
C       -0.10104672       5.68162119       3.60028582       0.00136276      -0.00215112       0.00455393
C       -1.28094720       7.80456017       3.81890484      -0.00022877       0.00878402       0.00555801
C       -2.49540333       9.94358320       3.91023242       0.00348185      -0.00267347      -0.00202553
C        4.92158189       1.38758736       3.91660442      -0.00118768       0.00276012      -0.00174484
C        3.74077838       3.53584692       4.07876357      -0.00731043       0.00510175       0.00137352
C        1.20615833       7.69504145       3.92628324      -0.00426903      -0.00072641      -0.00166195
C       -0.02015212       9.90190617       3.90108680      -0.00074475       0.00007928      -0.00282478
C        7.38916142       1.34917302       3.82200911      -0.00082002      -0.00917804       0.00048191
C        6.14672880       3.51020094       3.80776888       0.00169036       0.00546693       0.01203262
C        4.95728710       5.67699494       3.73980967      -0.00062937       0.00248727       0.00364701
C        3.71851535       7.77253949       3.78391171      -0.00066587      -0.00175257      -0.00326748
C        2.45300033       9.85935899       3.84418040      -0.00147504       0.00196543       0.00273116
C        9.84538529       1.36080067       3.68036509      -0.00306214      -0.00073497       0.00100409
C        8.59386420       3.50132665       3.69416483       0.00250539      -0.00012663       0.01595111
C        7.36937085       5.64870476       3.76550209      -0.00481370       0.00752273       0.00395024
C        6.15239440       7.80100491       3.80741206       0.00876253      -0.00016943      -0.00131660
C        4.90890564       9.91975149       3.78749223      -0.00186030      -0.00262752       0.00288441
Pd       2.24577501       4.78432276       4.63459813      -0.00469900      -0.00850881      -0.01177128
O        3.21064581       5.91852662       6.06187833       0.01182713      -0.00290586      -0.01453456
O        2.64744723       5.72862300       7.38635497      -0.01514402      -0.00064784       0.00001774
H        3.24224895       5.04000431       7.75125825       0.01143836       0.01050430       0.00140764
