52
Lattice="12.336457 0.0 0.0 -6.168228499999997 10.683685154694365 0.0 0.0 0.0 15.0" Properties=species:S:1:pos:R:3:forces:R:3 energy=-447.32190202779077 free_energy=-447.32190202779077 stress="-0.005281819563195546 0.003624810039536948 1.5380005188630584e-05 0.003624810039536948 0.0005676109355268598 -6.813083726363712e-06 1.5380005188630584e-05 -6.813083726363712e-06 -1.7366929743489506e-05" pbc="T T T"
C        0.04942632      -0.04403802       3.77671319       0.00118815       0.00411306       0.00517401
C       -1.17179339       2.08915103       3.80461960       0.00453915      -0.00027135       0.00087624
C       -2.39118035       4.22150939       3.73290977      -0.00637684      -0.00547938       0.01084991
C       -3.64335432       6.35779343       3.68380209      -0.00896828      -0.00417575       0.00666862
C       -4.90098287       8.49785857       3.67504065       0.01092992      -0.00551845      -0.01474323
C        2.50988771      -0.02334103       3.86189655       0.00258284       0.00287992      -0.00559322
C        1.28680288       2.13081811       3.99555734      -0.00098198      -0.00204337       0.00505262
C        0.07157530       4.25560061       3.88570793      -0.00360410      -0.00341284      -0.00760631
C       -1.19366213       6.37637421       3.73692486      -0.01151379      -0.00477726      -0.00495080
C       -2.43131584       8.50773003       3.75776763       0.01266642       0.00391025      -0.00376518
C        4.98407823      -0.04591758       3.83139806       0.00555300      -0.00909209       0.00633582
C        3.77412347       2.10339729       3.97097540      -0.01041323       0.00434966      -0.00187936
O        1.16361659       6.43017524       3.80228996       0.01749912       0.00776317       0.00538880
C        0.02833460       8.49640579       3.72626252      -0.00039688       0.00590560       0.00172419
C        7.45943873      -0.07542920       3.79263412       0.00224739       0.00201184      -0.01002916
C        6.25254628       2.05507545       3.81285967      -0.01142269       0.00295541      -0.00607137
C        5.05223521       4.17177818       3.67877737       0.00169904       0.00661280      -0.00841221
S        3.66150040       6.22933718       2.69706654       0.01449153      -0.00603653      -0.00188581
C        2.48481693       8.46101812       3.61029068      -0.00932756       0.00209563       0.00951472
C        9.92089083      -0.06980030       3.74557720      -0.00437980      -0.00683954       0.00220055
C        8.70884513       2.06795622       3.77134876       0.00493572       0.00637270      -0.00382919
C        7.49518064       4.20379735       3.68589867      -0.00074245       0.00594813      -0.01064712
C        6.24172606       6.34436939       3.50568300       0.00595061      -0.00465971      -0.00087529
C        4.97196785       8.47955744       3.53913638      -0.00712319      -0.00423778       0.00712770
C        0.04988929       1.38325223       3.85410496       0.00539255       0.00260290       0.01029632
C       -1.16332315       3.51638376       3.78818367      -0.00621635      -0.00476851       0.00058140
C       -2.41177551       5.64506806       3.72101735      -0.01756652      -0.00828717      -0.00058865
C       -3.66360560       7.78746501       3.70622047       0.01354198      -0.00367941      -0.01114512
C       -4.88852382       9.93179703       3.77307991       0.00179046       0.00028689       0.00228683
C        2.52057533       1.41032605       3.98329540      -0.00679183       0.00090045       0.00414770
C        1.23569841       3.52415413       4.15392082      -0.00154437      -0.00181467       0.01039149
C        0.01135165       5.68533506       3.78147773       0.00047706       0.00661264      -0.00925644
C       -1.20884862       7.79776205       3.73837825       0.00291460       0.00026858       0.00430265
C       -2.42975482       9.93853115       3.81871980       0.00671037       0.00256281       0.00578526
C        5.01253122       1.36885645       3.86707357      -0.01168495      -0.00385686      -0.00204563
C        3.85759694       3.49959160       4.02434788       0.00109462       0.00147374      -0.00124751
C        1.22251140       7.79726479       3.64966591      -0.00134671       0.00865014      -0.00404723
C        0.04790829       9.92001584       3.78290025       0.00750005       0.00086765       0.00712363
C        7.48073000       1.34681196       3.79813398      -0.00159201       0.00574225       0.00698858
C        6.27962928       3.46797813       3.72363073      -0.00220097       0.00554445      -0.00558585
C        5.07027292       5.57090876       3.40124478       0.00697660      -0.00268666       0.00544420
C        3.73039067       7.81090832       3.38696942      -0.00518036       0.00150761      -0.01151580
C        2.51398380       9.88709491       3.73588537      -0.00591734      -0.00503035       0.00293029
C        9.93064245       1.35919531       3.77749570       0.00647551      -0.00281341      -0.00664134
C        8.71907112       3.49491857       3.73184397      -0.00133784       0.00637859      -0.00140145
C        7.47927884       5.63021701       3.63312264      -0.00358886      -0.00112288       0.00005992
C        6.21073239       7.77424961       3.53778112       0.00344597      -0.00438408       0.00586134
C        4.98366819       9.91320208       3.69613915      -0.00212371      -0.00064519       0.00480066
Pd       2.65674822       4.60601820       5.00250464       0.00735831      -0.00566687      -0.00716654
O        1.66431752       5.99788197       6.21091212      -0.00369585       0.00034028       0.00106944
O        1.70272502       5.49739054       7.56100419       0.01224399       0.00209387       0.00232126
H        2.48927128       5.95815354       7.92210641      -0.01416649       0.00054906       0.00562567
