51
Lattice="12.336457 0.0 0.0 -6.168228499999997 10.683685154694365 0.0 0.0 0.0 15.0" Properties=species:S:1:pos:R:3:initial_magmoms:R:1:forces:R:3 energy=-447.11098025079895 free_energy=-447.11098025079895 stress="-0.004581837951525968 0.0027945392279992588 -6.888662464823431e-06 0.0027945392279992588 0.0037808539044134125 2.0632159811233377e-05 -6.888662464823431e-06 2.0632159811233377e-05 1.208120002618344e-06" pbc="T T T"
C        0.01897666       0.01583442       3.68396291       0.00000000       0.00174296      -0.00278491      -0.00571113
C       -1.21728843       2.13672409       3.41070299       0.00000000      -0.00171845       0.00491701       0.00586829
C       -2.48040888       4.28080787       3.49970686       0.00000000      -0.00223178       0.00070235       0.00367005
C       -3.71131736       6.42199664       3.74733084       0.00000000      -0.00175971      -0.00079914      -0.00262347
C       -4.92850379       8.56530009       3.86281541       0.00000000      -0.00203029      -0.00691409       0.00705715
C        2.48618174       0.03797566       3.81419257       0.00000000      -0.00183453       0.00060552      -0.00379492
C        1.28485629       2.11777536       3.36321073       0.00000000       0.00219150      -0.00096981       0.00211069
C       -0.11122002       4.35487341       3.01367818       0.00000000      -0.00097284       0.00507661       0.00570326
C       -1.30049260       6.46323948       3.44823747       0.00000000      -0.00676086       0.00291524      -0.00368008
C       -2.47333742       8.57261849       3.78214825       0.00000000      -0.00319740       0.00103314       0.00711280
C        4.95936670      -0.00091102       3.86283430       0.00000000      -0.00108918      -0.00099260      -0.00024960
C        3.75809960       2.17227045       3.90942127       0.00000000       0.00270170      -0.00040363       0.00706309
N        1.08332918       6.39393685       3.54325559       0.00000000       0.00233594       0.00673157      -0.00524662
C        0.00363244       8.52647081       3.73473591       0.00000000       0.00079831       0.00343039      -0.00196708
C        7.43254506      -0.03729210       3.79811821       0.00000000      -0.00101198       0.00034588       0.01191764
C        6.21289677       2.11613128       3.91181389       0.00000000       0.00328020       0.00140400       0.01475006
C        4.99702943       4.24287977       4.13538245       0.00000000       0.00108240      -0.00276061      -0.00040701
C        3.85542030       6.47419026       4.62536085       0.00000000       0.00216078       0.00564899       0.00879258
C        2.48041359       8.47168773       3.87916946       0.00000000       0.00235487       0.00015427      -0.01070832
C        9.88673276      -0.02447049       3.71004331       0.00000000      -0.00245388       0.00278217       0.00693736
C        8.66475462       2.12016186       3.69022322       0.00000000      -0.00467900       0.00139413      -0.00744494
C        7.42931991       4.26563496       3.84846953       0.00000000       0.01043058      -0.00115696       0.01211333
C        6.18695566       6.40406890       4.00560322       0.00000000       0.00078652      -0.01081378      -0.00236280
C        4.94606407       8.54493706       3.93278053       0.00000000       0.00289215      -0.00312499      -0.00736650
C        0.02880228       1.43585590       3.45992357       0.00000000       0.00065716       0.00049955      -0.00176942
C       -1.25502713       3.57408524       3.28178769       0.00000000      -0.00404564       0.00439455      -0.00919195
C       -2.50043324       5.71222374       3.55464985       0.00000000      -0.00691985      -0.00043794      -0.00581361
C       -3.70325211       7.85128105       3.80598310       0.00000000      -0.00229828      -0.00200508      -0.01065908
C       -4.91984393       9.99535858       3.79855527       0.00000000       0.00070302      -0.00538382      -0.00942445
C        2.49898602       1.46538426       3.70660890       0.00000000       0.00283923       0.00138104      -0.00141169
P        1.39225964       3.62799761       2.40932619       0.00000000      -0.00007259       0.00264515       0.01033622
C       -0.09059144       5.78413178       3.23099350       0.00000000      -0.00049571       0.00897064       0.00120896
C       -1.25317037       7.85984716       3.66202634       0.00000000      -0.00194259       0.00217538       0.00468727
C       -2.45712792       9.99529248       3.85032762       0.00000000      -0.00274932       0.00161596      -0.00810919
C        4.97657653       1.42211619       3.91543298       0.00000000       0.00294010      -0.00161638       0.00286505
N        3.83986801       3.51623988       4.11910581       0.00000000       0.00200203       0.00003395      -0.00961028
C        1.21400383       7.75334749       3.73760269       0.00000000       0.00199435       0.00352242       0.00624848
C        0.02327371       9.94812290       3.81860821       0.00000000      -0.00045392       0.00238866      -0.00823431
C        7.44105226       1.39694776       3.80659032       0.00000000      -0.00140614      -0.00001925       0.00237830
C        6.21921192       3.53867763       3.97655563       0.00000000       0.00787007       0.00115033       0.00519260
C        4.99869989       5.68160147       4.20236326       0.00000000      -0.00175308      -0.00316832       0.00606395
C        3.72764482       7.82938034       4.06919069       0.00000000       0.00138833      -0.00202570      -0.00979903
C        2.48866326       9.91219436       3.78505719       0.00000000      -0.00153133      -0.00059676       0.00115496
C        9.89816026       1.41232395       3.59269580       0.00000000      -0.00328988       0.00479336       0.00789926
C        8.65542834       3.55261738       3.68085088       0.00000000       0.00182536      -0.00123063      -0.00312954
C        7.41606404       5.69326636       3.86341662       0.00000000       0.00373176      -0.00402920      -0.01108410
C        6.18274293       7.84128298       3.95097422       0.00000000       0.00014502      -0.00973922       0.00442359
C        4.95545286       9.97297541       3.76069281       0.00000000      -0.00041266       0.00037167      -0.00322430
Pd       2.14428559       4.69862750       4.26756336       0.00000000      -0.00218415      -0.00109441      -0.00911956
O        1.16149156       3.85437504       5.60118706       1.00000000       0.00175113      -0.00008530      -0.00021215
O        3.09313045       6.08898787       5.59744073       1.00000000      -0.00131044      -0.00893135       0.00680020
