52
Lattice="12.336457 0.0 0.0 -6.168228499999997 10.683685154694365 0.0 0.0 0.0 15.0" Properties=species:S:1:pos:R:3:forces:R:3 energy=-449.96017615694404 free_energy=-449.96017615694404 stress="-0.007140945553593972 0.0026815096967025176 3.3355567454089437e-06 0.0026815096967025176 0.0022952016070499344 4.640779212042794e-06 3.3355567454089437e-06 4.640779212042794e-06 7.641939575830215e-05" pbc="T T T"
C        0.00230317      -0.08389564       3.82677525      -0.00122649       0.00577312       0.00567616
C       -1.23415874       2.03275109       3.89013256       0.01855646      -0.00381387       0.00720851
C       -2.46302869       4.17741893       3.81162389       0.00082127      -0.02015332       0.00854374
C       -3.70054574       6.32203748       3.70941312      -0.00207783       0.01559290       0.00011235
C       -4.94389204       8.46445559       3.68512911      -0.01914018       0.01034694      -0.01465925
C        2.46600770      -0.04922762       3.87948489       0.00405294       0.01054320      -0.00177035
C        1.23450270       2.09494575       3.99312810      -0.00019974       0.00019918       0.00843095
C       -0.02919522       4.18851466       3.97971431       0.01014595      -0.00079843       0.00957717
C       -1.26739311       6.34159739       3.87852057      -0.00884734      -0.00456419       0.00197251
C       -2.48433007       8.47608453       3.84299153      -0.00420804      -0.00090569      -0.00145170
C        4.94251569      -0.08894594       3.90777559      -0.00310288      -0.00974424      -0.00953405
C        3.73175581       2.08476209       3.89238537       0.00305790       0.00447480      -0.01357011
N        1.11892047       6.33266391       4.05191040      -0.00917469      -0.00422788      -0.01300754
C       -0.00948760       8.43771194       3.92362102      -0.00223947       0.00678604      -0.00011008
C        7.41491827      -0.12420390       3.92882961       0.00598970      -0.01016516      -0.03238380
C        6.20493917       2.01187870       3.78684570       0.00840174      -0.01359113       0.00692741
C        5.01914988       4.13171276       3.48087073       0.00315432      -0.00278948      -0.00543435
S        3.60957800       6.26465034       2.57671790       0.00149477       0.00935600       0.00793922
C        2.46429130       8.40602342       3.77414632      -0.00479299      -0.01655681       0.00779421
C        9.87343307      -0.12299211       3.85239507      -0.00922514       0.01005327       0.02038150
C        8.65381927       2.01867831       3.83110909       0.00219357      -0.00134184       0.01763806
C        7.44476800       4.16045563       3.63367878      -0.00389597       0.01121934       0.00966393
C        6.19894793       6.30937894       3.41752750       0.00155796      -0.00786283      -0.00628539
C        4.93279620       8.44113250       3.56810575      -0.00234895       0.01068297      -0.00195448
C       -0.00476678       1.34137014       3.91481815       0.01026718      -0.00361319      -0.00298534
C       -1.24815084       3.45766698       3.88763234       0.01410655      -0.00999279       0.01909115
C       -2.47618207       5.60859430       3.80420247      -0.00662709      -0.01225269      -0.02222474
C       -3.70937050       7.75265639       3.74033233      -0.01514309       0.01417652       0.00439379
C       -4.93240387       9.89876156       3.79727104      -0.00074736       0.01051924       0.01271275
C        2.47576822       1.38615487       3.95072733       0.00099216       0.00779551       0.01072278
C        1.15132862       3.49057340       4.10390403       0.00223730      -0.00145680      -0.01062033
C       -0.03599933       5.64360595       3.96367083      -0.00374093      -0.00237348      -0.00895789
C       -1.25659846       7.75646597       3.88865379      -0.00019848       0.00255175       0.01773479
C       -2.47401893       9.90375636       3.87999363      -0.00246511      -0.00475958       0.00504411
C        4.96847416       1.32850069       3.86170439       0.00102260      -0.01046050      -0.00516181
C        3.84113411       3.47259422       3.82336337       0.01365423       0.00626210       0.01508759
C        1.20786963       7.68552402       3.90209779      -0.01133888      -0.00390615      -0.00888647
C        0.00538751       9.86249666       3.93022458       0.00052252       0.00236139      -0.02001106
C        7.43024214       1.29678318       3.85968739       0.01195142      -0.01247784      -0.00450585
C        6.23879133       3.41970038       3.61322670       0.00357801      -0.00349497       0.00409701
C        5.04287777       5.53988718       3.21907454       0.00682518      -0.00520161      -0.01759138
C        3.68099623       7.77465524       3.43560234       0.00273245       0.00238818       0.00189009
C        2.47232592       9.83342637       3.88661986      -0.00298170      -0.01449418      -0.01840265
C        9.87386384       1.30439445       3.87002615       0.00735278       0.01134063      -0.00430696
C        8.66031860       3.44906548       3.76076131      -0.00903091      -0.00382214      -0.00020325
C        7.42972074       5.59199132       3.58435363      -0.00023425       0.01078970       0.01711498
C        6.17110805       7.74241600       3.51817707      -0.01353138      -0.00502063       0.00043405
C        4.93917673       9.86534585       3.76523572      -0.00930037       0.01637238       0.00833220
Pd       2.57850864       4.83991838       4.46957783       0.00635103       0.01698211       0.01362026
O        3.34280951       6.08219338       5.92189946       0.00426424      -0.00402022      -0.00547945
O        2.22574571       6.68616061       6.60861691       0.02742940      -0.01755221       0.09946434
H        2.58266752       6.69777317       7.52432042      -0.02689438       0.01484657      -0.11210731
