52
Lattice="12.336457 0.0 0.0 -6.168228499999997 10.683685154694365 0.0 0.0 0.0 15.0" Properties=species:S:1:pos:R:3:forces:R:3 energy=-447.4744101957566 free_energy=-447.4744101957566 stress="-0.004283319680573001 -0.0034248046900338244 -8.652582903072828e-08 -0.0034248046900338244 0.00467691195536333 -1.9377925956319623e-05 -8.652582903072828e-08 -1.9377925956319623e-05 -1.3476721833892864e-05" pbc="T T T"
C       -0.06501501      -0.04677239       3.89317952      -0.00379149       0.00293818      -0.00463151
C       -1.33131387       2.05590269       3.94620972      -0.00925301       0.00867890       0.00061662
C       -2.55791945       4.20277650       3.88778674      -0.00677855       0.00539975       0.00081025
C       -3.75085438       6.36251714       3.80127685       0.00208374      -0.00729171      -0.00024563
C       -4.97989805       8.51332990       3.81094884       0.00815309       0.00579823      -0.00782264
C        2.41133661      -0.03245688       3.90665886       0.00815744      -0.00347962       0.00344186
C        1.15119710       2.12168677       4.00955797      -0.00671977       0.00303170       0.01676878
C       -0.12830274       4.19676442       4.14596188      -0.00083998      -0.00453679      -0.00905884
C       -1.32360780       6.35640623       3.98973962       0.01062123       0.00931659      -0.00416142
C       -2.52182718       8.50307502       3.89477342      -0.00611881      -0.01081297      -0.00083948
C        4.88128330      -0.06426661       3.76793927       0.00749531      -0.00824282       0.00015892
C        3.61071341       2.04305657       3.52182362      -0.00050765      -0.00978208      -0.01188452
C        1.09837180       6.30059799       4.21780549      -0.01290321      -0.00564932      -0.00028299
C       -0.04015676       8.44629819       3.91039788       0.00124692      -0.00250746       0.01327063
C        7.34389480      -0.09921019       3.74040153      -0.00486475       0.00794569      -0.00591446
C        6.09634508       2.08101571       3.52593165      -0.00010390       0.00954508      -0.00591353
C        4.97556388       4.32217160       3.17409978      -0.00313195      -0.00509540      -0.00365934
O        3.78313977       6.42392846       3.25244215       0.00197021      -0.01195699      -0.00300657
C        2.44613974       8.39718213       3.77485197       0.00494829       0.00601642       0.00417898
C        9.79434084      -0.09569201       3.79261596       0.00395361       0.00979290      -0.00960197
C        8.55368593       2.05863130       3.74065006      -0.00130284      -0.01504219       0.00371586
C        7.34934800       4.22579263       3.59889265      -0.00012298      -0.00362142       0.00914109
C        6.16916899       6.40056733       3.50005421      -0.00775849       0.00693887       0.00090173
C        4.89745458       8.49074953       3.67084923       0.00174384       0.00043361       0.00513829
C       -0.08368438       1.37651244       3.97455006      -0.01350067       0.00443343       0.00164297
C       -1.34834938       3.47329996       3.99797721      -0.00730450       0.00701361       0.00319664
C       -2.54210957       5.63503072       3.90026497       0.01211944       0.00871950       0.00081670
C       -3.74668329       7.79280593       3.84391354      -0.00265922      -0.01113596       0.00239071
C       -4.98889402       9.93780204       3.89692286       0.00650326       0.00564158      -0.00555857
C        2.40083078       1.40207690       3.86751071      -0.00319676      -0.00168204       0.00700977
C        1.07210508       3.50373381       4.23266196       0.00894902       0.00841723       0.00108966
C       -0.10654604       5.63084152       4.12910356      -0.00573177      -0.01008635      -0.00324469
C       -1.29110191       7.77510888       3.93748748      -0.00014893       0.00653454       0.00893617
C       -2.52254748       9.92892801       3.86502655       0.00671756      -0.01244933       0.00677937
C        4.86983034       1.36632470       3.59196608       0.00547319      -0.00256861      -0.00944799
S        3.47744966       3.59081434       2.74995722       0.00558686      -0.00106100      -0.00963023
C        1.19870355       7.67763315       3.96455398       0.00031898      -0.00447948       0.00408469
C       -0.05218423       9.87888429       3.79780715       0.00374974      -0.00611701       0.00577729
C        7.32213728       1.34597339       3.66120246      -0.00644608       0.00275720      -0.00235603
C        6.11770094       3.52287903       3.41795306      -0.00198690       0.00647195       0.01174849
C        4.98993325       5.72784283       3.23898892       0.00040000      -0.00592633      -0.01336935
C        3.70065366       7.76670088       3.57372317       0.00323025      -0.00749570       0.00414523
C        2.41039342       9.83932873       3.76299494       0.00102468       0.01578308       0.00898489
C        9.77720623       1.33549425       3.83106705       0.00068811       0.00213774       0.00787404
C        8.55852535       3.49127246       3.74672729      -0.00057967      -0.01506638      -0.00498442
C        7.37072288       5.65088148       3.63534634      -0.00492023      -0.00023937      -0.01172207
C        6.14470069       7.81141380       3.65808504       0.00530277       0.01115091      -0.00457004
C        4.87323735       9.90793130       3.79908252      -0.00318510       0.00037962       0.00636340
Pd       2.43374331       4.83078973       4.70527457      -0.00367351       0.00584158      -0.01297081
O        3.80969613       5.98667858       5.76095833       0.00658516      -0.00079301       0.00752527
O        3.41106138       6.04875262       7.14207207       0.00369109       0.00234695      -0.00646337
H        4.07277961       5.45783485       7.56122317      -0.00318308       0.00365446       0.00483219
