51
Lattice="12.336457 0.0 0.0 -6.168228499999997 10.683685154694365 0.0 0.0 0.0 15.0" Properties=species:S:1:pos:R:3:initial_magmoms:R:1:forces:R:3 energy=-445.5466496455662 free_energy=-445.5466496455662 stress="-0.005890995316946497 -0.0006590275322876785 2.9947562436912025e-06 -0.0006590275322876785 0.004275631608490499 -3.0871784278239794e-05 2.9947562436912025e-06 -3.0871784278239794e-05 -1.2862211070770985e-05" pbc="T T T"
C       -0.00274309      -0.00216351       3.81212940       0.00000000       0.00194585      -0.00150711       0.00440248
C       -1.25707450       2.11520057       3.64254650       0.00000000       0.00339097       0.00145009       0.00356164
C       -2.49519736       4.26705668       3.90271858       0.00000000      -0.00425447       0.00168806      -0.00349354
C       -3.70160317       6.42087636       4.09223539       0.00000000      -0.00177527      -0.00066254      -0.00213394
C       -4.92393433       8.57186687       4.02850633       0.00000000       0.00681566      -0.00110054       0.00834550
C        2.46591863       0.04103635       3.78504894       0.00000000       0.00189858       0.00346357       0.00264952
C        1.20615165       2.06426681       3.27770194       0.00000000      -0.00439508      -0.00142636      -0.00542791
C       -0.18735686       4.30729542       3.20117285       0.00000000       0.01042671      -0.00833898       0.00333911
C       -1.28995416       6.42661815       3.77821818       0.00000000       0.00633199       0.00667559      -0.00266446
C       -2.47663654       8.57497646       3.94310915       0.00000000      -0.00653080      -0.00718758       0.00091484
C        4.93360743       0.01439797       3.80506946       0.00000000       0.00457250      -0.00941644      -0.00059249
C        3.70903674       2.20971526       3.56895794       0.00000000      -0.00419891       0.00287439       0.00538477
C        1.10008278       6.39717948       3.31714688       0.00000000       0.00320801       0.00312400      -0.00003286
C       -0.01303282       8.52800432       3.74130489       0.00000000       0.00104030       0.00514187       0.00285800
C        7.40816743      -0.04151058       3.81906283       0.00000000       0.00067719      -0.00631565       0.00066445
C        6.17893091       2.11981242       3.88631118       0.00000000       0.00137983       0.00300271       0.00559404
C        4.96397589       4.27502436       3.81202789       0.00000000      -0.00283439       0.00136394       0.01124279
N        3.87747183       6.42138856       3.61002098       0.00000000       0.00352676       0.00203242      -0.01273050
C        2.47916430       8.46775910       3.68298393       0.00000000      -0.00863843       0.00835087       0.00512329
C        9.86234105      -0.04314186       3.82063416       0.00000000       0.00140315      -0.00614642       0.00357984
C        8.63319166       2.10966887       3.91462905       0.00000000      -0.00266326      -0.01289263       0.00720986
C        7.40903489       4.26141511       4.07246153       0.00000000      -0.00098073       0.01290554       0.00798599
C        6.20309926       6.42650476       4.08599778       0.00000000       0.00019507       0.00476390       0.01229530
C        4.95171839       8.53099314       3.91631476       0.00000000       0.00037506      -0.00477243       0.00419622
C       -0.02149995       1.41085160       3.59010546       0.00000000      -0.00150579      -0.00399168      -0.01294665
C       -1.29060070       3.54888306       3.60845428       0.00000000       0.00289846       0.00034257       0.00129620
C       -2.49012496       5.69833586       3.95743976       0.00000000       0.00012862       0.00870607      -0.01503919
C       -3.69787197       7.85462531       4.04792182       0.00000000      -0.00282874      -0.01044880      -0.00055797
C       -4.92809703       9.99735330       3.88394224       0.00000000       0.00386100       0.00074252       0.00807481
C        2.45685164       1.46233025       3.53197167       0.00000000      -0.00377240       0.00508978      -0.00188963
S        1.05027893       3.48578179       2.28972080       0.00000000      -0.00716812      -0.00981252      -0.00189838
C       -0.09919692       5.70921085       3.41495019       0.00000000       0.00935963      -0.00383369       0.00499202
C       -1.25312286       7.84733723       3.84255484       0.00000000      -0.00059062       0.00643915      -0.00216293
C       -2.47251379      10.00037120       3.85799488       0.00000000      -0.00085259      -0.00699154      -0.01028659
C        4.93789096       1.44305976       3.75849230       0.00000000       0.00166859      -0.00113087      -0.00192625
C        3.81031010       3.60036172       3.48737176       0.00000000      -0.00744698       0.00112777      -0.00255688
C        1.22126911       7.75867126       3.58489899       0.00000000      -0.00425467       0.00814688      -0.00576559
C       -0.00292815       9.95277756       3.79949681       0.00000000       0.00576670      -0.00166242      -0.00004533
C        7.41074687       1.38724330       3.89584485       0.00000000      -0.00428906      -0.01084745      -0.00034947
C        6.19160832       3.54326642       3.96692952       0.00000000       0.00165657       0.00750260       0.00101427
C        4.99473399       5.72255861       3.88369489       0.00000000       0.00193630      -0.00010756       0.00254438
C        3.74159481       7.77289324       3.74176624       0.00000000      -0.00716055       0.00157902       0.00381521
C        2.47028466       9.89795572       3.78655232       0.00000000      -0.00140451       0.00542863      -0.00521857
C        9.86511182       1.39472290       3.81234249       0.00000000       0.00465094      -0.00805105      -0.00157411
C        8.63088403       3.54044250       4.00208800       0.00000000      -0.00630714      -0.00254380      -0.00123138
C        7.41724779       5.69583696       4.12592679       0.00000000      -0.00167809       0.01135511      -0.00603786
C        6.18599389       7.84864527       4.04362953       0.00000000       0.00701736       0.00272951      -0.00502347
C        4.93308054       9.95005162       3.86650180       0.00000000       0.00211277      -0.00590706      -0.01362454
Pd       2.52649763       5.07130856       2.93480830       0.00000000       0.00312919      -0.00786286      -0.00384040
O        3.02964856       5.43560776       6.12727693       1.00000000       0.00184940       0.01050246      -0.00077607
O        2.24061500       4.70277788       5.51857625       1.00000000      -0.00769254       0.00642895       0.00874247
