52
Lattice="12.336457 0.0 0.0 -6.168228499999997 10.683685154694365 0.0 0.0 0.0 15.0" Properties=species:S:1:pos:R:3:forces:R:3 energy=-449.2449993148774 free_energy=-449.2449993148774 stress="-0.00628975036147945 -0.0009207747293019122 -2.6547199451269443e-05 -0.0009207747293019122 0.003625802090002883 3.283398457013297e-05 -2.6547199451269443e-05 3.283398457013297e-05 5.1745221858461e-06" pbc="T T T"
C       -0.05929685      -0.08067901       3.83042611      -0.00178337       0.00183871      -0.00069870
C       -1.31578343       2.03692062       3.66850926       0.00120771      -0.00396442      -0.00370481
C       -2.55557939       4.18989186       3.93300486       0.00132760       0.00451497      -0.00349787
C       -3.76152453       6.34403590       4.12489523      -0.00359336      -0.00233615      -0.00090516
C       -4.98296756       8.49430517       4.05388684      -0.00062165      -0.00246639      -0.00808738
C        2.40848886      -0.03809826       3.83059567      -0.00553038       0.00054969       0.00692933
C        1.15173990       1.98670286       3.32424433      -0.00401755       0.00915235      -0.00099881
C       -0.24630405       4.22904524       3.23588344       0.00366376      -0.00751737       0.00366620
C       -1.35413211       6.35263394       3.80244991       0.00016730      -0.00143385       0.00579684
C       -2.53575386       8.49795457       3.98180945       0.00155272      -0.00770986      -0.00515810
C        4.87814678      -0.06384091       3.86116995      -0.00158181      -0.00083941      -0.00298723
C        3.65146529       2.12687248       3.64627893      -0.00498052       0.00186511      -0.00329919
C        1.03992929       6.31697974       3.37648801      -0.00743372       0.00609430      -0.00175665
C       -0.07285439       8.45104756       3.77713372       0.00585691      -0.00574258      -0.00103792
C        7.35267912      -0.11928062       3.85871663      -0.00829314      -0.00324461      -0.00136683
C        6.12162088       2.04198013       3.95943001       0.00388103       0.00145668      -0.00523496
C        4.91021020       4.19726085       3.88855693       0.00296223       0.00590730      -0.00022731
N        3.82556206       6.34773357       3.64837351       0.00274620      -0.00013338      -0.00292639
C        2.42443159       8.39128238       3.68297786       0.00093516       0.01102405       0.00947392
C        9.80521178      -0.11976832       3.83336734      -0.00336763       0.00239884      -0.00467718
C        8.57617901       2.03098798       3.96131324      -0.00016969       0.00366286      -0.00263838
C        7.35142776       4.18428686       4.13180547      -0.00481350       0.00150733      -0.01550636
C        6.14636955       6.35308116       4.11574721       0.00775393      -0.00096681      -0.00453591
C        4.89516801       8.45239554       3.90214463      -0.00240164      -0.00307558      -0.00216077
C       -0.08091878       1.33182599       3.61804904       0.00131127       0.00285639       0.00138196
C       -1.35207540       3.47022812       3.63627111       0.00328667      -0.00481296       0.00427057
C       -2.55136396       5.62169420       3.98244886      -0.00196761       0.00442942       0.00328235
C       -3.75722412       7.77741497       4.08233301      -0.00214982      -0.00499178      -0.00305001
C       -4.98547264       9.91942111       3.91465323      -0.00429509      -0.00068291       0.00131386
C        2.40006434       1.38359700       3.58921342      -0.00864994       0.00213561      -0.00117134
S        1.00461404       3.41165525       2.34046202       0.00465612       0.00030543      -0.00159681
C       -0.16542677       5.63395719       3.44378551       0.00067408      -0.00648296       0.01839181
C       -1.31235062       7.77070034       3.87509844       0.00590802      -0.00498927      -0.00217926
C       -2.52976336       9.92236446       3.90441943      -0.00238725      -0.00382807       0.00070382
C        4.88427314       1.36342345       3.83137983       0.00087773       0.00294427      -0.00201238
C        3.74857630       3.51610814       3.58313668       0.00332353       0.00147216       0.00320851
C        1.16150300       7.68355760       3.61524536       0.00664643       0.00503540       0.00316218
C       -0.05864496       9.87403052       3.84447012      -0.00423755      -0.00739783      -0.00382213
C        7.35453429       1.30872048       3.95057813       0.00139815      -0.00309394       0.00164390
C        6.13674648       3.46327391       4.04364207      -0.00262822       0.00161439      -0.00148133
C        4.94067870       5.64698847       3.92630644       0.00377922       0.00495765       0.01408594
C        3.68568355       7.69954365       3.73500194      -0.00464109       0.00073648       0.00348790
C        2.41393757       9.82328613       3.79887861      -0.00537958       0.00864181       0.00815532
C        9.80722095       1.31646044       3.84087930      -0.00061489       0.00017191       0.00019546
C        8.57307456       3.46274808       4.05024400      -0.00225150       0.00722434      -0.01165611
C        7.35763173       5.62021082       4.16636469       0.00152369      -0.00421471       0.00115561
C        6.12648949       7.77200834       4.04762818       0.00117151      -0.00212993      -0.00346674
C        4.87714782       9.87032743       3.86302381      -0.00275430      -0.00072837       0.00388704
Pd       2.47156347       4.98813411       3.05376471       0.00328891       0.00740149       0.00450631
O        3.93336721       7.25188895       6.36081910       0.00440030       0.00219504      -0.00236149
O        3.56767263       5.97395631       6.60963664       0.01141967      -0.01370368       0.00042811
H        3.92027228       5.78371652       7.50816190       0.00482498      -0.00560715       0.00507656
