51
Lattice="12.336457 0.0 0.0 -6.168228499999997 10.683685154694365 0.0 0.0 0.0 15.0" Properties=species:S:1:pos:R:3:initial_magmoms:R:1:forces:R:3 energy=-445.78538234987377 free_energy=-445.78538234987377 stress="-0.006812118599666307 -0.0023799658987438124 2.5050603953489703e-06 -0.0023799658987438124 0.0035651987602274746 1.0508234044625553e-05 2.5050603953489703e-06 1.0508234044625553e-05 1.4322462227884895e-05" pbc="T T T"
C       -0.07411042      -0.01153328       3.83739180       0.00000000       0.00075320       0.00288747       0.00215058
C       -1.33898213       2.08881008       3.89853014       0.00000000       0.00512032      -0.00639451       0.00428290
C       -2.56796345       4.23724812       3.85215182       0.00000000       0.00674506      -0.00372590      -0.00158723
C       -3.76165137       6.39864686       3.75102037       0.00000000      -0.00026462       0.00395703      -0.00241917
C       -4.98567046       8.55447283       3.75386709       0.00000000      -0.00155847      -0.00070309      -0.00077856
C        2.40100084       0.01031848       3.82586710       0.00000000      -0.00307180      -0.00331405      -0.01046588
C        1.14821795       2.16644857       3.90388353       0.00000000       0.00047518       0.00432792      -0.00134678
C       -0.13368511       4.22753900       4.06384120       0.00000000      -0.00320512       0.00528633      -0.00069929
C       -1.34425210       6.39756253       3.95621709       0.00000000       0.00085241      -0.00521585       0.00179097
C       -2.54016825       8.54215726       3.84799914       0.00000000       0.00294486       0.00265324       0.00882554
C        4.86638163      -0.02471575       3.70662377       0.00000000       0.00787201       0.00273352       0.00292269
C        3.60639070       2.07180167       3.38635827       0.00000000      -0.00184805       0.00200996       0.01367711
C        1.06359446       6.35420480       4.11218066       0.00000000      -0.00130046       0.00860790      -0.00686007
C       -0.07098292       8.49699904       3.88559895       0.00000000      -0.00603141      -0.00027111       0.00225592
C        7.33116483      -0.06444394       3.71962691       0.00000000       0.00309274      -0.00164489      -0.00644944
C        6.09517550       2.10343289       3.45471555       0.00000000      -0.00377668      -0.00174416      -0.00020644
C        4.98299041       4.32067611       3.08941632       0.00000000      -0.00030915       0.00145319       0.00766764
N        3.79522114       6.39267879       3.49116777       0.00000000      -0.00362626       0.00200286      -0.00278760
C        2.41542061       8.43861646       3.79988753       0.00000000      -0.00163966       0.00190555      -0.00331122
C        9.78477385      -0.06358518       3.77740730       0.00000000       0.00192105      -0.00242697      -0.00012321
C        8.54747252       2.08819440       3.70647442       0.00000000      -0.00501589       0.00133816       0.00720081
C        7.35018087       4.25344940       3.54306177       0.00000000      -0.00230364       0.00124712       0.00046915
C        6.17187577       6.43537874       3.43670270       0.00000000       0.00057290      -0.00040288      -0.00440468
C        4.88986452       8.51903349       3.65869916       0.00000000       0.00518000      -0.00035157       0.00580960
C       -0.09098242       1.41161379       3.90569732       0.00000000       0.00618966       0.00134009      -0.00585483
C       -1.35991244       3.50591925       3.95236282       0.00000000       0.00680279      -0.00542036      -0.00399336
C       -2.55642038       5.67199157       3.86328688       0.00000000      -0.00029976      -0.00267789       0.00015102
C       -3.76157999       7.82920834       3.79153747       0.00000000       0.00027649       0.00552170       0.00208196
C       -4.99864307       9.97667600       3.83287839       0.00000000      -0.00530981      -0.00136914      -0.00537851
C        2.39713790       1.44211435       3.74916938       0.00000000      -0.00151442      -0.00078146       0.00340284
C        1.06595878       3.54431536       4.09165722       0.00000000      -0.01173273       0.00065584       0.01043475
C       -0.13048104       5.66693952       4.06143640       0.00000000       0.00379966       0.00415235       0.00221006
C       -1.31294891       7.81666718       3.90558918       0.00000000      -0.00197873      -0.00603100       0.00151931
C       -2.53735832       9.96828435       3.80276185       0.00000000       0.00569469       0.00330579      -0.00406009
C        4.86261759       1.39901109       3.50011858       0.00000000      -0.00019530       0.00163483       0.00867129
S        3.51037302       3.59973012       2.56070961       0.00000000      -0.00218609      -0.00383279       0.00039547
C        1.16904560       7.73736887       3.93577401       0.00000000      -0.00562008       0.00686158      -0.00206083
C       -0.06939797       9.92126036       3.76770912       0.00000000       0.00472939      -0.00117703      -0.00045899
C        7.31654030       1.37492409       3.62098416       0.00000000      -0.00429172      -0.00125813       0.00231457
C        6.12214031       3.54080347       3.34909881       0.00000000      -0.00077602      -0.00211661      -0.00357342
C        4.96302708       5.74120299       3.24692363       0.00000000      -0.00115166       0.00302483      -0.00212090
C        3.67513973       7.74014066       3.64331256       0.00000000       0.00026042       0.00301619      -0.00076662
C        2.39586398       9.87598522       3.76587188       0.00000000       0.00180988      -0.00165170      -0.00891482
C        9.76923323       1.36446489       3.80112420       0.00000000      -0.00218736      -0.00266161       0.00957303
C        8.55176905       3.52199098       3.70711601       0.00000000       0.00104026       0.00297119      -0.00402869
C        7.36666425       5.68487579       3.56831756       0.00000000       0.00076717       0.00223819      -0.01162187
C        6.13289737       7.84404193       3.61203813       0.00000000       0.00282282      -0.00357469       0.00501970
C        4.86395319       9.93435743       3.77152032       0.00000000       0.00449327       0.00076701      -0.00244469
Pd       2.47908373       4.97534788       4.38166037       0.00000000       0.00116476      -0.00728985       0.00418044
O        4.54195350       6.03345220       6.11834432       1.00000000       0.00208256       0.00825059      -0.00525965
O        3.88306636       4.95010841       6.02141908       1.00000000      -0.00626862      -0.01811316      -0.00503052
