51
Lattice="12.336457 0.0 0.0 -6.168228499999997 10.683685154694365 0.0 0.0 0.0 15.0" Properties=species:S:1:pos:R:3:initial_magmoms:R:1:forces:R:3 energy=-443.10438103314135 free_energy=-443.10438103314135 stress="-0.003407214977572849 -0.0018007243611170454 3.551182389959265e-07 -0.0018007243611170454 0.0064187033329891575 4.734930672228547e-06 3.551182389959265e-07 4.734930672228547e-06 -9.493289790739848e-06" pbc="T T T"
C       -0.00711142       0.02792627       3.81895885       0.00000000       0.00090240      -0.00391098      -0.00199960
C       -1.26706023       2.14039794       3.57662776       0.00000000       0.00242468       0.00685412       0.00133815
C       -2.50414128       4.29452903       3.79833806       0.00000000       0.00522842      -0.00172079       0.00810520
C       -3.69918788       6.44687459       4.03555931       0.00000000       0.00563854      -0.00273311       0.00534874
C       -4.92603196       8.59655385       4.04626856       0.00000000      -0.00198394       0.00083004       0.00239363
C        2.46379038       0.06230601       3.77699127       0.00000000       0.00290629       0.00348056       0.00054864
C        1.19754928       2.08664854       3.22768278       0.00000000      -0.00194450      -0.00050291       0.00612292
C       -0.20531077       4.32803254       3.05530307       0.00000000       0.00476011       0.00244704      -0.00487506
C       -1.28860329       6.44884733       3.65675746       0.00000000       0.00731735      -0.00557785       0.00044132
C       -2.47298982       8.59487257       3.89988087       0.00000000       0.00795826      -0.00137223      -0.00528169
C        4.93510367       0.03083941       3.81963584       0.00000000      -0.00313251       0.00128766      -0.00710914
C        3.69660862       2.21664418       3.64292032       0.00000000       0.00296765      -0.00287172      -0.00243155
C        1.11558062       6.40878655       3.28435997       0.00000000      -0.00526948      -0.00223657      -0.00527992
C        0.00084863       8.54091312       3.73224428       0.00000000       0.00413214      -0.00256749       0.00199245
C        7.40663113      -0.01471529       3.85816421       0.00000000      -0.00775423       0.00323462      -0.00784431
C        6.16692327       2.15795616       3.92511325       0.00000000      -0.00570204       0.00302400       0.00606292
C        4.96283651       4.34646601       3.99171706       0.00000000      -0.00290925      -0.01073278       0.00827559
O        3.81875751       6.46294530       4.14970548       0.00000000       0.00600476       0.00332596      -0.00338092
C        2.49305909       8.47671082       3.81645071       0.00000000      -0.00183578       0.00046385      -0.00712031
C        9.85843967      -0.01557100       3.86246597       0.00000000       0.00422260      -0.00508408       0.00361271
C        8.62447029       2.14013146       3.89932253       0.00000000      -0.00140122       0.00034446      -0.00463149
C        7.40743978       4.29989006       4.07762332       0.00000000      -0.00323079       0.00682609       0.00317349
C        6.20075627       6.45971875       4.20031148       0.00000000      -0.00630461       0.00417996      -0.00403549
C        4.94714493       8.56367523       4.05100821       0.00000000      -0.00434015       0.00274880       0.00614295
C       -0.02690472       1.43707164       3.54738625       0.00000000      -0.00372900      -0.00360187      -0.00908149
C       -1.30223208       3.57357841       3.49044576       0.00000000       0.00805832       0.00650455       0.00240863
C       -2.49414506       5.72353638       3.84562445       0.00000000       0.00653487      -0.00425198      -0.00082712
C       -3.69417853       7.87975997       4.01410588       0.00000000       0.00354139      -0.00027297      -0.00701914
C       -4.92984884      10.02423003       3.88870596       0.00000000       0.00330606       0.00332634       0.00915939
C        2.45201671       1.48837927       3.52534933       0.00000000       0.00074218      -0.00017629      -0.00136602
S        1.01982410       3.45410316       2.15099569       0.00000000       0.00111354       0.00456990       0.00624777
C       -0.10097508       5.73276472       3.28862070       0.00000000      -0.00178013      -0.00504196       0.00344207
C       -1.24761341       7.86806361       3.77661751       0.00000000       0.00876963      -0.00506522      -0.00474286
C       -2.47043710      10.02146008       3.84752361       0.00000000       0.00077008       0.00102917      -0.00236329
C        4.92383082       1.47181309       3.80419696       0.00000000      -0.00027391      -0.00154940      -0.00233127
C        3.76872137       3.63153416       3.74253266       0.00000000      -0.00270663      -0.00254927      -0.00270292
C        1.23336615       7.76249134       3.61734807       0.00000000       0.00067221      -0.00673657       0.00261471
C       -0.00096211       9.97380638       3.81845536       0.00000000      -0.00578021       0.00024862       0.00306359
C        7.40027474       1.41999203       3.91569704       0.00000000      -0.00769202       0.00466502       0.00313785
C        6.17421522       3.59050734       4.02643201       0.00000000      -0.00023243       0.00073498       0.00446776
C        5.01667005       5.74832724       4.13557062       0.00000000      -0.00216322      -0.00259196      -0.00779241
C        3.74340929       7.84792484       3.99664952       0.00000000      -0.00259194       0.00576112       0.00979948
C        2.47009592       9.92320496       3.85858698       0.00000000      -0.00290619       0.00111232      -0.00505984
C        9.85810838       1.42577349       3.79608969       0.00000000       0.00260975      -0.00195754      -0.00947421
C        8.62416820       3.57178468       3.95372479       0.00000000      -0.00145743       0.00307195       0.00107473
C        7.42126101       5.72583023       4.13659161       0.00000000      -0.00269998       0.00750736       0.00740900
C        6.19154674       7.88341729       4.14008024       0.00000000      -0.00767062       0.00218262      -0.01017884
C        4.93041324       9.98482216       3.91987658       0.00000000       0.00431860      -0.00467479       0.00338764
Pd       2.50615338       4.99651956       2.92279743       0.00000000      -0.01122888       0.00221554      -0.00788014
O        2.97380103       3.99409279       5.70063495       1.00000000      -0.00540039      -0.00677536      -0.00107452
O        2.00957252       4.47342527       5.04108158       1.00000000       0.00922167       0.00257904       0.01611223
