53
Lattice="12.336457 0.0 0.0 -6.168228499999997 10.683685154694365 0.0 0.0 0.0 15.0" Properties=species:S:1:pos:R:3:forces:R:3 energy=-454.66563629117894 free_energy=-454.66563629117894 stress="-0.0002252527450496083 -0.001506374660028753 1.4036629973950478e-05 -0.001506374660028753 -0.0033217208722510195 1.4673072828957859e-05 1.4036629973950478e-05 1.4673072828957859e-05 -6.789858150733727e-05" pbc="T T T"
C        0.06201425      -0.10923554       3.86853291       0.00158136       0.01544792       0.00662999
C       -1.18474100       2.01347677       4.05857831      -0.01374299       0.00461031       0.02600522
C       -2.42479288       4.15977591       4.10157965       0.01092960      -0.01130822      -0.04059432
C       -3.64562543       6.29976679       3.94874374       0.03911255       0.02073670      -0.03480740
C       -4.87769113       8.43122272       3.77946687       0.02074393       0.01660034       0.01505733
C        2.53248022      -0.11803470       3.91326526      -0.01183940      -0.06536509      -0.03680466
C        1.29612959       2.01584388       4.05012278      -0.00600464      -0.03885671      -0.00218207
C        0.04878085       4.12882759       4.16551010       0.00839513       0.01164429       0.01601911
C       -1.17213143       6.29318352       3.95714000      -0.02285453       0.01029494      -0.00326921
C       -2.38860131       8.42615152       3.87160435      -0.00384752      -0.00872661       0.00603072
C        4.99392192      -0.10318924       3.81790850      -0.01861486      -0.00174081       0.00758862
C        3.74897266       2.03216434       3.88070396      -0.01722824       0.00561509      -0.00286482
C        2.52706848       4.13664963       4.22110988      -0.04029728       0.01802470      -0.01935576
S        1.46654084       6.12618772       3.32792831      -0.02356614      -0.00391192      -0.00486409
C        0.07099612       8.44226517       3.64960554       0.00419731      -0.00139612       0.00449442
C        7.45524217      -0.08656838       3.72406364       0.00955855       0.01158194      -0.04352020
C        6.21423984       2.03810159       3.82948532       0.00986172      -0.00285666       0.04138968
C        4.97258370       4.18201815       3.66399624       0.00343557       0.01842077       0.06390042
S        3.95547945       6.33026569       2.22159919      -0.05537533      -0.02157846      -0.02456930
C        2.54443702       8.50994902       3.30188320       0.00553421      -0.03322787      -0.00212966
C        9.93412211      -0.08706739       3.74269702      -0.01493380       0.01712187       0.01195764
C        8.68422717       2.03133691       3.93666390      -0.00607194       0.03455310       0.00549381
C        7.44696381       4.16847035       3.89868652       0.00150827       0.00419850      -0.03663750
C        6.24452378       6.30682000       3.58633923       0.02741089       0.00890242       0.03522236
C        5.00880281       8.46290889       3.45628693       0.02986011       0.02432110       0.00915955
C        0.05490919       1.30581598       4.00899225      -0.01773308       0.00353544      -0.00294139
C       -1.19942403       3.43169101       4.15780065       0.01998985       0.00288425      -0.02522587
C       -2.41730362       5.58394971       4.04447650       0.00477167      -0.00708025      -0.01558313
C       -3.63623662       7.71962856       3.88256457       0.01740173       0.01606964      -0.04379325
C       -4.87091856       9.85867816       3.85626427      -0.01727089      -0.01394938       0.00807575
C        2.52982052       1.30894023       3.95876254      -0.00380281      -0.06491746       0.01025967
C        1.28837595       3.43337325       4.12649317      -0.01007702      -0.02646517       0.02534065
C        0.01124488       5.51824278       3.97792265      -0.03512086       0.02442624       0.00860629
C       -1.15109958       7.71305453       3.82272000      -0.02360191       0.00288910      -0.02594940
C       -2.39988178       9.85720714       3.86821194      -0.00795873      -0.03277917      -0.03062058
C        4.98605167       1.32314992       3.82663148      -0.00397360       0.00267642       0.01206279
C        3.73124036       3.47253578       3.85819695      -0.01055176       0.01982003       0.00427685
C        1.31378866       7.82430128       3.39837346       0.01488149      -0.03021153      -0.00645835
C        0.05917958       9.87955929       3.72418578       0.00166358       0.01004807      -0.00127244
C        7.44957826       1.32987792       3.83510130       0.01554546       0.01359795       0.03414958
C        6.20988825       3.46479927       3.80598060       0.00163482      -0.00518692      -0.00669507
C        5.06043221       5.55994858       3.31880934       0.01350444       0.01291027      -0.00563460
C        3.79371755       7.83732375       3.10056888       0.02473106       0.00910486      -0.03141442
C        2.53112030       9.90963814       3.58808483      -0.00172316      -0.02198493      -0.00836337
C        9.92123477       1.31790699       3.93765219      -0.01660472       0.03002827      -0.02375916
C        8.67825121       3.45214250       4.00357586      -0.00266584       0.01893980       0.02196694
C        7.45644687       5.59043410       3.85045368       0.03581575       0.00733358       0.00545945
C        6.23315034       7.72951447       3.57280004       0.03655613       0.01951427       0.03036766
C        4.99976181       9.87937547       3.70632965       0.00429924       0.02560895       0.01248019
Pd       2.65276334       5.76258937       5.26020951       0.00274313      -0.02754973       0.03700828
O        2.82462738       7.64539106       6.06365862      -0.00532819      -0.01772863       0.06291214
O        1.64617495       7.94418566       6.83373853       0.15041804      -0.04300562      -0.09346421
H        2.05644930       7.96181559       7.72392856      -0.12529637       0.03836606       0.05085913
