52
Lattice="12.336457 0.0 0.0 -6.168228499999997 10.683685154694365 0.0 0.0 0.0 15.0" Properties=species:S:1:pos:R:3:forces:R:3 energy=-444.0032726185482 free_energy=-444.0032726185482 stress="-0.007563599786221832 0.004096957288672131 -5.197341357894712e-06 0.004096957288672131 -0.0008401467623888352 -1.806376577535966e-05 -5.197341357894712e-06 -1.806376577535966e-05 3.144160240641853e-05" pbc="T T T"
C       -0.00261565      -0.09015006       3.80241920       0.00378675       0.01448366      -0.00477068
C       -1.22571312       2.04930240       3.73697031       0.00464453       0.02539658       0.01868110
C       -2.48335172       4.19094571       3.90357967      -0.01573869      -0.00818689       0.00125790
C       -3.73735867       6.32619411       3.95142155       0.00301747      -0.01316117       0.01402650
C       -4.96852402       8.45379231       3.85380419      -0.00662966      -0.01142125       0.02305957
C        2.45892204      -0.06680215       3.92373747       0.00424681      -0.00402950      -0.01064312
C        1.25712751       2.01393814       3.55743947      -0.00614504      -0.01283481      -0.01048217
C       -0.11615302       4.27297574       3.51330995      -0.00314811      -0.00533625      -0.01345304
C       -1.31333315       6.36337391       3.90133468       0.00251448       0.00251217       0.00313647
C       -2.50494656       8.47760309       3.99564156       0.00484671      -0.00349815       0.00595981
C        4.93271150      -0.09367359       3.97759892      -0.01526198      -0.00398874       0.00848688
C        3.74386491       2.08192498       3.87814033       0.00576125      -0.00454935       0.01336501
N        1.08073940       6.33730569       3.88919352       0.00891933      -0.01078597      -0.00106479
C       -0.02438247       8.44505547       3.93284983       0.01141441       0.01594526      -0.00899149
C        7.41311991      -0.12543586       3.96134527      -0.00952132      -0.00224066      -0.00971918
C        6.20047211       2.00929152       3.93354578       0.01167906      -0.00262272       0.00527943
C        5.01121742       4.11275170       3.64371817       0.00898812       0.01337556      -0.02005483
S        3.71863801       6.28002167       2.52000624      -0.01239786       0.00876992      -0.00169612
C        2.45675991       8.40987004       3.71774154      -0.00265341      -0.00990811       0.00915817
C        9.87026742      -0.11253406       3.83859401      -0.00972247      -0.00193000       0.01308718
C        8.65377186       2.02686893       3.93409101       0.02316069      -0.00722732       0.01228748
C        7.42259790       4.16600665       3.89814167      -0.00535971       0.00377893       0.00890351
C        6.16564295       6.29478083       3.66125565      -0.00211879       0.00322318      -0.01581263
C        4.92053809       8.44048055       3.63212457      -0.00473622       0.01078070      -0.02330918
C        0.00797400       1.34502781       3.70300864      -0.00869319       0.01771558      -0.00501272
C       -1.25178454       3.48390757       3.73707489      -0.00727662       0.01268945       0.00272800
C       -2.51154885       5.61563316       3.93792890       0.00102777      -0.00940829       0.03068384
C       -3.73606310       7.75256984       3.95259139       0.00523020      -0.00967656      -0.03277798
C       -4.94596768       9.89040771       3.86915275       0.00233373      -0.00160619      -0.01514817
C        2.47815814       1.36636112       3.81772160      -0.00211335      -0.00756680       0.01305357
S        1.29570588       3.58161282       2.79333938       0.01529957      -0.01464337      -0.00526025
C       -0.09564385       5.67641302       3.73568392      -0.00087890      -0.00744925       0.00945144
C       -1.27783601       7.77038632       3.97274107       0.01327132       0.00970743      -0.00947585
C       -2.48369365       9.89939744       3.98357948      -0.00524465      -0.00740501       0.02148536
C        4.95634080       1.32672538       3.93595377       0.00792544      -0.00644637      -0.00138251
N        3.85057790       3.43809638       3.90117530       0.01453201      -0.01067830      -0.00240155
C        1.19013384       7.69364968       3.82903670       0.00540335      -0.00179885      -0.00414907
C       -0.00055879       9.86485352       3.96964543      -0.01330206       0.01322830       0.00120736
C        7.42730969       1.29995592       3.96768327       0.01731090      -0.00466634      -0.00572154
C        6.22488223       3.42059341       3.82441663       0.00022253       0.00384781       0.01579880
C        5.03442510       5.51850782       3.36430827      -0.01025346       0.02403757       0.01055395
C        3.68230970       7.78293240       3.40056334       0.00014747      -0.00591729       0.01751102
C        2.46973117       9.83743285       3.87213895      -0.01673384      -0.00916098      -0.02002666
C        9.88770336       1.32407728       3.85737536       0.02194686       0.00018623      -0.01012021
C        8.64832175       3.45503346       3.94737675      -0.00816966      -0.00747432      -0.03092323
C        7.39263168       5.59153253       3.87098233       0.00204627       0.00118802      -0.01195137
C        6.14825844       7.72949618       3.68535719      -0.00975608      -0.00200523      -0.00173073
C        4.92957762       9.87009159       3.77690907      -0.00156102       0.01306070       0.01277552
Pd       2.42704188       4.83673305       4.38281613      -0.02510424       0.01031756       0.00011798
O        3.33157703       5.87984226       5.86224752      -0.01072432       0.00451369      -0.00570686
O        2.41472826       6.84189857       6.45573752       0.01951027      -0.04446586       0.09937011
H        2.60479940       6.66600008       7.40329810      -0.00594263       0.04333161      -0.08964004
