51
Lattice="12.336457 0.0 0.0 -6.168228499999997 10.683685154694365 0.0 0.0 0.0 15.0" Properties=species:S:1:pos:R:3:initial_magmoms:R:1:forces:R:3 energy=-443.5666460826073 free_energy=-443.5666460826073 stress="-0.003557028945841965 -0.0036075048070255897 2.0855504911208086e-06 -0.0036075048070255897 0.0040016061546494395 -4.9172927773712044e-06 2.0855504911208086e-06 -4.9172927773712044e-06 -1.2620947110159831e-05" pbc="T T T"
C       -0.05608901      -0.05583654       3.83336473       0.00000000      -0.00460553       0.00311150       0.00401704
C       -1.31800513       2.05606206       3.86866367       0.00000000       0.00489445      -0.00412832       0.00775030
C       -2.53769829       4.20602444       3.81261106       0.00000000       0.00308998       0.00147749      -0.00733848
C       -3.73463274       6.35890490       3.74043619       0.00000000      -0.00069098      -0.00074269      -0.00521929
C       -4.96851468       8.50845068       3.75244208       0.00000000       0.00045284       0.00067605       0.00023520
C        2.41620642      -0.03643798       3.87223341       0.00000000      -0.00542757       0.00114505       0.00514995
C        1.13732037       2.10562089       3.96657291       0.00000000       0.00375596       0.00385835      -0.00283094
C       -0.10097484       4.18461104       4.03289199       0.00000000      -0.00530250      -0.00415508       0.00155381
C       -1.29296089       6.34840879       3.90873396       0.00000000       0.00308916      -0.00146752       0.00103312
C       -2.50567539       8.49699979       3.84418559       0.00000000      -0.00471145       0.00451238       0.00540918
C        4.88919506      -0.06068452       3.73508060       0.00000000       0.00020375      -0.00047223      -0.00392623
C        3.61797738       2.06339789       3.55979096       0.00000000      -0.00534570       0.00141645       0.00129630
N        1.10432354       6.32483710       4.11451711       0.00000000      -0.00119142       0.00442625      -0.00434348
C       -0.02872004       8.44897708       3.83887876       0.00000000      -0.00043615      -0.00401477       0.00054310
C        7.35380023      -0.09639280       3.69308340       0.00000000       0.00403663       0.00020373       0.00017855
C        6.10917994       2.08127238       3.51054801       0.00000000       0.00144307       0.00085460      -0.00870416
C        4.96332020       4.31309613       3.19107270       0.00000000       0.00149787      -0.00528708      -0.00906759
O        3.78923804       6.41102307       3.29372608       0.00000000      -0.00016505      -0.00056193       0.00280570
C        2.44499364       8.39135026       3.70517183       0.00000000       0.00013949      -0.00313824      -0.00010044
C        9.80189949      -0.09826551       3.73430890       0.00000000      -0.00470466      -0.00232492      -0.00215524
C        8.56510822       2.05913685       3.68910580       0.00000000       0.00342807       0.00379079      -0.00125298
C        7.36045205       4.22346143       3.55114406       0.00000000       0.00421387       0.00090032       0.00220243
C        6.18166264       6.40239601       3.43517589       0.00000000      -0.00141825      -0.00288524      -0.00479303
C        4.90329273       8.49027138       3.61188358       0.00000000       0.00428514       0.00002547       0.00058133
C       -0.08190939       1.36483789       3.90588699       0.00000000       0.00697041       0.00291468       0.00572756
C       -1.32330838       3.48058766       3.90495963       0.00000000      -0.00176132      -0.00338826      -0.00262584
C       -2.51669805       5.63189269       3.82931672       0.00000000       0.00366108       0.00093934      -0.00144306
C       -3.73441780       7.78701952       3.78773404       0.00000000      -0.00211833       0.00033387       0.00323291
C       -4.97920547       9.93124514       3.84455344       0.00000000      -0.00587299       0.00194793       0.00259589
C        2.40010936       1.39346117       3.84059676       0.00000000      -0.00250416      -0.00077983      -0.00012753
N        1.04849307       3.46502497       4.13419463       0.00000000      -0.00622666      -0.00161216       0.00535350
C       -0.06313536       5.64298518       4.02230471       0.00000000       0.00064926      -0.00062339      -0.00003687
C       -1.27392214       7.76891685       3.87407907       0.00000000      -0.00394086       0.00042587      -0.00489616
C       -2.51200816       9.92564116       3.82840700       0.00000000      -0.00302527       0.00362944       0.00165032
C        4.87500853       1.36999020       3.58574429       0.00000000      -0.00491632       0.00129124       0.00305197
P        3.40840861       3.62929224       2.77861548       0.00000000      -0.00408591      -0.00231105      -0.00750397
C        1.19273608       7.67775186       3.87949705       0.00000000       0.00250223       0.00243053       0.00922624
C       -0.04306795       9.88395480       3.74831295       0.00000000       0.00413746      -0.00255866       0.00841275
C        7.33649004       1.34630840       3.62307947       0.00000000       0.00349793       0.00469718       0.00122557
C        6.12836297       3.52064350       3.39411303       0.00000000       0.00763754      -0.00014149       0.00375302
C        4.99778285       5.72420998       3.20700609       0.00000000      -0.00215602      -0.00244450      -0.00535974
C        3.70820564       7.76827577       3.53420770       0.00000000       0.00349412       0.00092567      -0.00088887
C        2.41434146       9.83550004       3.70627233       0.00000000      -0.00149475      -0.00575928       0.00156739
C        9.79160433       1.33769838       3.77004078       0.00000000       0.00225914      -0.00236840       0.00454083
C        8.57158599       3.49248573       3.68814256       0.00000000       0.00273349       0.00407882      -0.00054379
C        7.38517689       5.65079561       3.57700493       0.00000000       0.00035749      -0.00086751      -0.00890659
C        6.15486668       7.80896911       3.59379980       0.00000000       0.00414106      -0.00232234      -0.00352729
C        4.88090294       9.90525170       3.73688817       0.00000000      -0.00508533       0.00105312       0.00005820
Pd       2.56248828       4.74066414       4.70346400       0.00000000       0.00164705       0.00372613       0.00112943
O        3.55059075       6.98331048       5.96060920       1.00000000       0.00931521      -0.01050098      -0.00454900
O        3.92025157       5.75731425       5.91569317       1.00000000      -0.01034657       0.01006361       0.00585896
