51
Lattice="12.336457 0.0 0.0 -6.168228499999997 10.683685154694365 0.0 0.0 0.0 15.0" Properties=species:S:1:pos:R:3:initial_magmoms:R:1:forces:R:3 energy=-443.2530695333736 free_energy=-443.2530695333736 stress="-0.004698011356657733 0.0006400930272635806 -2.6515853521647644e-06 0.0006400930272635806 0.006716365688070606 -2.5863582576294706e-08 -2.6515853521647644e-06 -2.5863582576294706e-08 3.451884244935489e-05" pbc="T T T"
C       -0.00186917       0.01464062       3.75203296       0.00000000      -0.00082945      -0.00414131       0.00304299
C       -1.25377562       2.13205118       3.55774032       0.00000000      -0.00508923       0.01027973       0.00487076
C       -2.49160859       4.28489616       3.79763377       0.00000000       0.00142121       0.00399140       0.00412496
C       -3.70822428       6.43425587       4.02488056       0.00000000      -0.00380210      -0.00825487       0.00190987
C       -4.93603244       8.58251006       3.99237783       0.00000000       0.00030025       0.01132993       0.00088860
C        2.46973980       0.06729010       3.79727512       0.00000000       0.00127692       0.00961637      -0.01217244
C        1.22950637       2.11022560       3.27023917       0.00000000       0.00229598      -0.00797642      -0.00123406
C       -0.17649474       4.34500414       3.08807759       0.00000000      -0.01136266      -0.00171351      -0.00477473
C       -1.30677134       6.45683685       3.66183890       0.00000000       0.00440214      -0.00606615       0.01160101
C       -2.48109280       8.59132284       3.90690370       0.00000000      -0.00051973       0.00400907      -0.00558956
C        4.93973085       0.02573124       3.85623989       0.00000000      -0.00429065       0.00700515      -0.00151448
C        3.74138874       2.22569513       3.69497023       0.00000000       0.00916967      -0.01557790      -0.00750034
N        1.05705559       6.43083951       3.29677008       0.00000000       0.00296906      -0.00612452       0.00425745
C       -0.01029144       8.53801748       3.73989985       0.00000000       0.00051082       0.00094457      -0.00110108
C        7.41741536      -0.03687899       3.84776758       0.00000000       0.00327795      -0.00816494      -0.00461647
C        6.19101767       2.12799200       3.97138247       0.00000000      -0.00256403       0.00081440       0.00129438
C        4.97963218       4.28379178       3.99421072       0.00000000      -0.00591793      -0.00229699      -0.00053927
O        3.81253518       6.42149542       4.01900519       0.00000000       0.00740695       0.00376464      -0.00247010
C        2.47925636       8.44714024       3.74522336       0.00000000       0.00004491      -0.00000812      -0.00082828
C        9.86294745      -0.03691650       3.78747111       0.00000000       0.01533592       0.00434543       0.00489602
C        8.64567828       2.12207619       3.89393296       0.00000000      -0.01242592       0.00149408      -0.00900538
C        7.41974804       4.27790442       4.09277914       0.00000000       0.00036240      -0.00397051      -0.00512361
C        6.18916371       6.42907025       4.12340095       0.00000000       0.00235155       0.01552862       0.00395015
C        4.93912314       8.53435408       3.92349358       0.00000000      -0.01108285      -0.00656057       0.01007184
C       -0.00853280       1.43038528       3.51821301       0.00000000      -0.00431721       0.00214931      -0.00092717
C       -1.28733757       3.57477735       3.48889162       0.00000000      -0.00843757       0.00677671       0.00518304
C       -2.49886040       5.71503232       3.85014726       0.00000000      -0.00027334      -0.00433166      -0.00245566
C       -3.70508372       7.86830815       3.99547352       0.00000000      -0.00189413       0.00062863       0.00043899
C       -4.92920298      10.01478915       3.85429462       0.00000000       0.00284984       0.00996250      -0.00162870
C        2.46999468       1.49582314       3.57580396       0.00000000       0.00825983      -0.00273091      -0.00296667
P        1.08375010       3.50353469       2.14758837       0.00000000      -0.00224294      -0.00374460       0.01518961
C       -0.13282340       5.76316870       3.29569004       0.00000000       0.00421067      -0.00952347       0.01341665
C       -1.26197116       7.86651409       3.78476606       0.00000000       0.00308252      -0.00181949       0.00126320
C       -2.47423598      10.02179005       3.87042681       0.00000000      -0.00331329       0.00880184      -0.00434297
C        4.95263317       1.45120291       3.86007241       0.00000000       0.00475785      -0.00308534      -0.00286642
N        3.84149890       3.58319022       3.69952819       0.00000000       0.00436344      -0.01600552      -0.00179384
C        1.19567088       7.76625557       3.59673212       0.00000000       0.00198745      -0.00362688       0.00616382
C        0.00434257       9.96233165       3.83098591       0.00000000      -0.00456271       0.00064297       0.01023883
C        7.42142279       1.39916421       3.92810024       0.00000000      -0.00872727      -0.00623392       0.00294560
C        6.20132397       3.55492617       4.06704408       0.00000000      -0.00216634       0.00149301       0.00178464
C        5.01408096       5.70351326       4.07497203       0.00000000       0.00740568       0.00727874       0.00129462
C        3.73638424       7.81667393       3.86649903       0.00000000      -0.00927739      -0.00212124       0.00823761
C        2.47228500       9.89684022       3.79856360       0.00000000       0.01457502      -0.00014434      -0.00437886
C        9.87056726       1.40732266       3.75513425       0.00000000      -0.00603503       0.00936350      -0.00612759
C        8.64438094       3.55614091       3.95923675       0.00000000       0.00055775       0.00059559      -0.00960045
C        7.41696416       5.70578134       4.11884268       0.00000000      -0.00500912      -0.00462962      -0.00698456
C        6.18115826       7.85791923       4.04250054       0.00000000      -0.00236543       0.01279679      -0.00438629
C        4.93505211       9.96386076       3.81811095       0.00000000       0.00488699      -0.01379197       0.00731548
Pd       2.46692918       4.97829764       3.05704181       0.00000000       0.00550753       0.01877314      -0.00233217
O        3.18069668       4.66651806       5.90548869       1.00000000       0.00377152       0.00092467      -0.01186247
O        2.10382010       4.79097182       5.26733983       1.00000000      -0.00083553      -0.01066605      -0.00525651
