51
Lattice="12.336457 0.0 0.0 -6.168228499999997 10.683685154694365 0.0 0.0 0.0 15.0" Properties=species:S:1:pos:R:3:initial_magmoms:R:1:forces:R:3 energy=-443.0979970213714 free_energy=-443.0979970213714 stress="-0.005158155705008086 0.002036479040393448 -6.823320227420789e-06 0.002036479040393448 0.00493442625384615 -4.1131447221050955e-06 -6.823320227420789e-06 -4.1131447221050955e-06 1.0325092384203166e-05" pbc="T T T"
C        0.00405977       0.02276311       3.82433080       0.00000000       0.00626177       0.00369715       0.00167575
C       -1.23183816       2.13201753       4.05262555       0.00000000      -0.00470657      -0.00774736      -0.00811864
C       -2.46957091       4.28302117       4.11980584       0.00000000      -0.00919251       0.00715222       0.00799348
C       -3.70499213       6.42600868       3.93377976       0.00000000      -0.00336877       0.00390977      -0.00196049
C       -4.93656106       8.57424590       3.73695448       0.00000000       0.00156946       0.00268978       0.00237098
C        2.46933144       0.08085365       3.75632680       0.00000000       0.00105626      -0.00391133       0.00062703
C        1.21664272       2.22134229       3.77784612       0.00000000       0.00072896      -0.00480086       0.00157175
C       -0.03509211       4.29775055       4.03134988       0.00000000       0.00267394      -0.00526784      -0.00280544
C       -1.26047127       6.43606218       4.08263142       0.00000000      -0.00682812      -0.00364241      -0.00941832
C       -2.48096957       8.58137609       3.92165745       0.00000000       0.00969644       0.00345959      -0.00067514
C        4.93928529       0.01701125       3.83518983       0.00000000      -0.00240201       0.00080131      -0.00017744
C        3.75965692       2.18247232       3.51299622       0.00000000      -0.00886791       0.00606584      -0.00512384
O        1.11166947       6.43704546       3.90424079       0.00000000      -0.00436421       0.01705568      -0.00790022
C       -0.01525878       8.54117945       3.93462357       0.00000000       0.00201601      -0.01298321      -0.00606595
C        7.41529158      -0.03431529       3.93153799       0.00000000       0.00056438      -0.00299202       0.00017087
C        6.21144839       2.11377454       3.77479121       0.00000000       0.00407349       0.00072621       0.00795748
C        5.08843833       4.20471465       3.23413083       0.00000000       0.00101240      -0.00204955       0.00802899
P        3.76768994       6.45823748       2.24936473       0.00000000       0.00051877       0.01097629      -0.00503247
C        2.44900678       8.48555362       3.69642612       0.00000000       0.00856655      -0.00167553      -0.00663558
C        9.87011141      -0.03047964       3.91876804       0.00000000      -0.00385849       0.00389386      -0.00691847
C        8.65146347       2.11858361       4.02479990       0.00000000       0.01235887       0.01463824       0.00160074
C        7.44512511       4.26699862       3.83438601       0.00000000      -0.00517254      -0.00930155      -0.00192700
C        6.22179036       6.40270521       3.47016128       0.00000000       0.00257056      -0.01120905      -0.00764841
C        4.93371248       8.54777858       3.56338210       0.00000000      -0.01171935       0.00665174      -0.00748311
C        0.00128702       1.44818965       3.90993331       0.00000000       0.00156159      -0.00192558       0.00804100
C       -1.24967637       3.56256044       4.13056143       0.00000000      -0.00822841      -0.00486054      -0.00010277
C       -2.48393500       5.70954099       4.08106962       0.00000000      -0.00965394       0.00491969       0.00384757
C       -3.71102325       7.86011968       3.86865676       0.00000000       0.00697734       0.00795462       0.00049752
C       -4.92717177      10.01564213       3.76659524       0.00000000       0.00499069       0.00102196       0.00991795
C        2.48069184       1.52051887       3.66216880       0.00000000      -0.00470913      -0.00535070       0.00101288
N        1.09899346       3.58380408       3.78733658       0.00000000       0.01066752      -0.00183100      -0.00358684
C       -0.07671673       5.71537231       4.04083220       0.00000000      -0.00140761       0.00346046      -0.00237068
C       -1.26097729       7.86244782       4.00350119       0.00000000       0.00118478      -0.00767824       0.00360937
C       -2.47672321      10.01811776       3.82962875       0.00000000       0.00116146       0.00093454       0.00304172
C        4.96791571       1.43092843       3.71299617       0.00000000      -0.00460888       0.00615154       0.00676235
N        3.92378337       3.49650397       3.16312369       0.00000000       0.00325954       0.00220831      -0.00831124
C        1.18431190       7.82956282       3.82254686       0.00000000       0.00931206       0.00914298      -0.01060256
C        0.00223880       9.96748930       3.90660990       0.00000000      -0.00283036      -0.01338316      -0.00040556
C        7.42658225       1.39702974       3.93515199       0.00000000       0.01478581       0.00921688       0.00893571
C        6.25814174       3.52140469       3.63589213       0.00000000      -0.00321545      -0.00459458       0.00437621
C        5.11076871       5.62456914       3.06605734       0.00000000      -0.00387834      -0.00737791       0.00506183
C        3.69185653       7.87000375       3.34887808       0.00000000      -0.00709883      -0.01398281      -0.00370687
C        2.46770522       9.91911695       3.88635159       0.00000000       0.00202540      -0.00400643      -0.00030164
C        9.87628798       1.40083099       4.03476693       0.00000000      -0.00003920      -0.00002111      -0.00713526
C        8.65207136       3.55094036       4.02943634       0.00000000      -0.00328427       0.00905874       0.00656662
C        7.43000273       5.69614165       3.77082471       0.00000000       0.00176668      -0.01288807       0.00796689
C        6.18295864       7.84448533       3.56100852       0.00000000      -0.00861505       0.00048071      -0.00080914
C        4.93931724       9.96821956       3.79616036       0.00000000      -0.00166768       0.00928851       0.00490405
Pd       2.42890865       4.82476196       2.91888327       0.00000000       0.00126188      -0.00043394       0.01707308
O        1.75188950       4.82084463       5.87101724       1.00000000       0.00238521       0.01550637      -0.00308774
O        2.81302873       4.80708660       5.20027205       1.00000000       0.00470982      -0.01714823      -0.00530102
