51
Lattice="12.336457 0.0 0.0 -6.168228499999997 10.683685154694365 0.0 0.0 0.0 15.0" Properties=species:S:1:pos:R:3:initial_magmoms:R:1:forces:R:3 energy=-439.59296226046376 free_energy=-439.59296226046376 stress="-0.008863093567413114 0.0029598382164073055 8.997098719062992e-07 0.0029598382164073055 -0.0020182256997608415 3.9423752143063725e-06 8.997098719062992e-07 3.9423752143063725e-06 2.733189958125367e-06" pbc="T T T"
C        0.01773305      -0.03593201       3.65264072       0.00000000       0.00125660      -0.00888277       0.00532521
C       -1.21345891       2.10102958       3.61402646       0.00000000       0.00652474       0.00160206       0.00223208
C       -2.45941313       4.24313893       3.86430966       0.00000000      -0.00499299       0.00260215      -0.00774165
C       -3.70578225       6.38319301       3.90723990       0.00000000       0.00011127       0.00440588      -0.00366805
C       -4.93699473       8.51365632       3.73267338       0.00000000      -0.00127271      -0.00311810       0.01321924
C        2.48180335      -0.00559260       3.69424812       0.00000000       0.00265103      -0.00219163       0.00433365
C        1.25123232       2.04658369       3.26678743       0.00000000       0.00142169       0.01106771       0.00558363
C       -0.13671394       4.31530751       3.26849346       0.00000000       0.01101901      -0.00611104      -0.00332505
C       -1.28686298       6.41409675       3.78105885       0.00000000       0.00815817       0.00076672      -0.01349743
C       -2.47771686       8.53709543       3.85147807       0.00000000      -0.01085806      -0.00249012       0.00257408
C        4.95046784      -0.03161064       3.76646827       0.00000000       0.00709659      -0.00493068       0.00104414
C        3.76322719       2.13812615       3.54367219       0.00000000      -0.00129949      -0.00818996      -0.01215916
N        1.08898670       6.39968430       3.50000295       0.00000000      -0.01100960       0.00787033       0.00190492
C       -0.00687168       8.50582082       3.73338050       0.00000000       0.00215527       0.00059282      -0.00435397
C        7.43009193      -0.06783234       3.79088340       0.00000000      -0.00430874       0.00128238      -0.00792432
C        6.21959987       2.06608051       3.76947239       0.00000000       0.00145356      -0.00341510      -0.00628850
C        5.06741527       4.17161605       3.41237433       0.00000000       0.00202330      -0.00245605      -0.01027532
S        3.81097751       6.37222643       2.33720353       0.00000000      -0.00115995      -0.00464876       0.00587324
C        2.47528918       8.47015322       3.52625453       0.00000000       0.00123952       0.00241260      -0.00319749
C        9.88846565      -0.05862664       3.71159432       0.00000000      -0.00775175      -0.00492021       0.01403904
C        8.67282401       2.08091914       3.84871864       0.00000000      -0.00009139      -0.00544090       0.01094562
C        7.44939926       4.22178725       3.84628287       0.00000000      -0.00750984       0.01197248       0.00245029
C        6.21194331       6.35600349       3.56517871       0.00000000       0.00412118       0.01221987       0.00266255
C        4.95108928       8.50040138       3.50983441       0.00000000       0.00358221      -0.00285089       0.00221026
C        0.01614240       1.39187795       3.52833612       0.00000000       0.00607184      -0.00315232      -0.00124669
C       -1.24221483       3.53447035       3.62575821       0.00000000       0.00357423       0.00252370      -0.00471175
C       -2.48208257       5.66897815       3.89633097       0.00000000       0.00249860       0.00565240      -0.01475559
C       -3.70574178       7.81084656       3.85005673       0.00000000      -0.00842082      -0.00438680      -0.00109211
C       -4.91972862       9.94993825       3.69641824       0.00000000       0.00402857      -0.00788533       0.01312782
C        2.49293076       1.42205935       3.51066587       0.00000000      -0.00464152       0.00164234       0.00403920
S        1.14350573       3.53537331       2.37656496       0.00000000      -0.01026419       0.00906341      -0.00133307
C       -0.09595014       5.71990129       3.49200562       0.00000000       0.00395563      -0.00481163      -0.00867052
C       -1.25100708       7.82622817       3.81938372       0.00000000      -0.00168777       0.00337576      -0.01267984
C       -2.46226810       9.96014600       3.78520051       0.00000000       0.00254972      -0.00237576       0.00036516
C        4.97448728       1.38716107       3.69793075       0.00000000       0.00149461      -0.00485117      -0.00216395
N        3.88165409       3.49440364       3.45419816       0.00000000       0.00372107      -0.01052241      -0.00283456
C        1.20497196       7.75580331       3.57721958       0.00000000       0.00214602       0.00120296      -0.00153415
C        0.01633875       9.92530996       3.77495661       0.00000000       0.00407742      -0.00172556       0.01313107
C        7.44511799       1.35558303       3.83395901       0.00000000       0.00021883      -0.00417838       0.00341700
C        6.25781427       3.47685554       3.70197008       0.00000000      -0.00279064       0.00052546       0.00823445
C        5.10732889       5.57871954       3.19556139       0.00000000       0.00839643       0.00701169       0.00786701
C        3.71301716       7.84721226       3.25550870       0.00000000       0.00397478       0.00056531       0.00805458
C        2.48700745       9.89727966       3.71139625       0.00000000      -0.00961357       0.00239082      -0.00972011
C        9.90494370       1.37713434       3.75421758       0.00000000       0.00306109      -0.00322720       0.00611460
C        8.67158922       3.50783754       3.90366484       0.00000000      -0.01091295       0.00116758      -0.00191724
C        7.42661035       5.64755388       3.82178899       0.00000000       0.00135342       0.01367826      -0.00956764
C        6.18160610       7.79027037       3.57804268       0.00000000       0.00437457       0.00574192       0.00291069
C        4.95060850       9.92694081       3.65446196       0.00000000      -0.00633684      -0.00435594      -0.00680218
Pd       2.49318740       4.95269833       3.60167038       0.00000000      -0.00379435       0.00003986       0.00797010
O        2.24964009       5.25421757       9.06041918       1.00000000       0.00227391      -0.00563667       0.00008523
O        1.79538483       6.40409901       9.04076275       1.00000000      -0.00186773       0.00537895       0.00174548
