52
Lattice="12.336457 0.0 0.0 -6.168228499999997 10.683685154694365 0.0 0.0 0.0 15.0" Properties=species:S:1:pos:R:3:forces:R:3 energy=-444.54874952650675 free_energy=-444.54874952650675 stress="0.0005910332279583138 0.003646966002933504 -3.716102644631406e-05 0.003646966002933504 0.005005587943740846 1.83385554616235e-05 -3.716102644631406e-05 1.83385554616235e-05 -1.702917783331312e-05" pbc="T T T"
C        0.04563342       0.11576098       3.89718473       0.00008099      -0.00494371      -0.01068222
C       -1.17508898       2.25521231       3.91408787       0.02025726      -0.01475968       0.00686080
C       -2.39618716       4.38983602       3.86472160      -0.00186091      -0.00487609       0.00282694
C       -3.65482830       6.52051408       3.81104817       0.00872576       0.01884414       0.00531044
C       -4.90647537       8.65907376       3.83198022      -0.03184194       0.00251964      -0.03129381
C        2.49961003       0.17469688       3.84971875      -0.00031704       0.00887757      -0.00579616
C        1.25371482       2.28849665       3.81360835      -0.01091293      -0.00209519      -0.00836542
C        0.05751632       4.37833631       3.82251625       0.00047189       0.00109590      -0.01955641
C       -1.17885158       6.52138625       3.82811776       0.00322765      -0.00537227       0.00752865
C       -2.44607528       8.67352683       3.83952834      -0.01798821      -0.01481229       0.02523990
C        4.95821114       0.12875945       3.89373777      -0.00153248      -0.00300444      -0.03808901
C        3.77824110       2.28518590       3.77587421      -0.00754924       0.00200490       0.01885303
N        1.22889135       6.56234419       3.86456066       0.02680653      -0.01223930       0.02292905
C        0.00971858       8.66295628       3.88718806      -0.00571574       0.00082665      -0.02428855
C        7.43483819       0.10125727       3.95603036       0.00216293       0.01673601       0.00095843
C        6.23032115       2.22366655       3.88016149       0.00215346       0.00093416      -0.01030527
C        5.04785002       4.29485848       3.65534215       0.00294709      -0.00455745      -0.00640940
S        3.43931203       6.29605144       3.29216677       0.00332664      -0.00538218       0.01756107
C        2.46009490       8.65476659       3.94906157      -0.00608310       0.00483263       0.01628400
C        9.91510754       0.09862908       3.98240236       0.00568274      -0.00909585       0.00242316
C        8.69602236       2.24021124       3.94159859       0.02644390      -0.01752139      -0.02033145
C        7.47631903       4.37031671       3.82644112       0.00598654       0.01613541       0.01317822
C        6.20228095       6.49020612       3.73287320      -0.00436453       0.00523305      -0.01317674
C        4.97239966       8.62948628       3.89833368      -0.01520555       0.01531447       0.00787272
C        0.05792427       1.55743434       3.88633240       0.00923036      -0.01643461      -0.00249836
C       -1.15448755       3.68261278       3.87197247       0.00399764      -0.00564667       0.03670588
C       -2.40783293       5.80960189       3.82645326       0.00334953       0.00105419       0.03382338
C       -3.67249182       7.94980868       3.81958876      -0.02604543       0.00527896      -0.00002855
C       -4.89404513      10.10266408       3.85995885      -0.00183951       0.00099709      -0.01237214
C        2.50895879       1.62513633       3.82103533      -0.01140193       0.01229034      -0.03343732
O        1.22739798       3.66797435       3.76198987      -0.01524967      -0.01161802      -0.01059203
C        0.09095266       5.82506515       3.82825403       0.01466711       0.00294884      -0.00108861
C       -1.21357947       7.95093957       3.84452981      -0.01057222      -0.00413720       0.02794025
C       -2.44771716      10.11468359       3.86094443      -0.00659953      -0.01175569      -0.00525178
C        4.97135971       1.55529627       3.86087525      -0.00810485      -0.00462981       0.01129077
O        3.82632580       3.65272835       3.70494620       0.00415166      -0.00828355       0.01414800
C        1.24229779       7.91574406       3.88748480       0.00298009      -0.00433871      -0.00306152
C        0.02553966      10.08841897       3.91833583      -0.00067597       0.00849410       0.00657630
C        7.45375530       1.52188291       3.94012130       0.01064218       0.00901440       0.00454327
C        6.25158853       3.63095749       3.79808576       0.00390541       0.00854554      -0.00677281
C        5.02100850       5.70330089       3.61891753       0.00491747       0.00929053       0.01710815
C        3.69945047       7.90634423       4.04414236      -0.00897042       0.01280148      -0.01223189
C        2.49947471      10.06309324       3.97992639      -0.00321737       0.00851426      -0.00715888
C        9.93181341       1.53255031       3.96099870       0.02715751      -0.01669210      -0.02325532
C        8.70983979       3.66578782       3.88573704       0.00189211      -0.01168770       0.00306770
C        7.45494374       5.79204197       3.78821114       0.01042818       0.02019264      -0.02568647
C        6.18660639       7.92422457       3.81355671      -0.02756007       0.00262292      -0.00294494
C        4.97378843      10.06212692       3.93746776      -0.00160073       0.01029412       0.00255381
Pd       3.62501121       6.59865886       5.55286641       0.00126911      -0.01260508       0.01306385
O        3.76687639       4.62171679       6.16753076      -0.00960908       0.01908735       0.01907352
O        2.48238099       4.01516637       6.08880643      -0.00063033       0.00323811       0.00684613
H        2.42944424       3.61382099       6.98562446       0.02858703      -0.02153043      -0.00989237
