51
Lattice="12.336457 0.0 0.0 -6.168228499999997 10.683685154694365 0.0 0.0 0.0 15.0" Properties=species:S:1:pos:R:3:initial_magmoms:R:1:forces:R:3 energy=-436.82120601567635 free_energy=-436.82120601567635 stress="0.001423692145917079 0.0011911415807224321 9.16048994639028e-06 0.0011911415807224321 0.002401347921810754 1.0452282087280756e-05 9.16048994639028e-06 1.0452282087280756e-05 6.1411748162404615e-06" pbc="T T T"
C       -0.00911068       0.08516550       3.75635297       0.00000000       0.00136243       0.00658368      -0.00797915
C       -1.24678148       2.21669995       3.79234976       0.00000000      -0.00005004       0.00271886      -0.01126284
C       -2.47924865       4.35548189       3.79390531       0.00000000       0.00540003      -0.00345920      -0.00423972
C       -3.71578485       6.49107321       3.74667882       0.00000000       0.00378506       0.00124162      -0.00407171
C       -4.95479213       8.62837550       3.71567623       0.00000000      -0.00510803      -0.00765267      -0.00337880
C        2.44464699       0.13376483       3.73837354       0.00000000       0.00791938       0.00145435       0.00518669
C        1.19105741       2.24309670       3.82128220       0.00000000      -0.00203134       0.00344571       0.00154268
C       -0.03628776       4.29609197       4.08994475       0.00000000       0.00105557       0.00100683      -0.00028014
C       -1.24505451       6.46989951       4.06096857       0.00000000      -0.00418759      -0.00566536       0.00210989
C       -2.48936951       8.63329769       3.86249063       0.00000000       0.00297206      -0.00664886       0.00569494
C        4.90220090       0.09648671       3.74275154       0.00000000      -0.00103649       0.00088123       0.00386003
C        3.70914690       2.24368464       3.53526144       0.00000000       0.00422704       0.00075162      -0.00379703
P        1.24315675       6.51668818       5.19031598       0.00000000      -0.00112114      -0.01744870       0.00201053
C       -0.04177625       8.65584459       4.06725840       0.00000000      -0.00536320       0.00625967      -0.00823658
C        7.37243581       0.08981218       3.77273855       0.00000000      -0.00131406      -0.00273766      -0.00094247
C        6.15566180       2.20308575       3.55232927       0.00000000      -0.00197692      -0.01029661      -0.00590844
C        4.96528421       4.27975735       3.32473496       0.00000000      -0.00349483       0.00673872       0.00203774
S        3.56246827       6.52353535       2.57838656       0.00000000       0.00068525      -0.00796596      -0.00181917
C        2.42144290       8.66315458       3.95059526       0.00000000       0.00310122       0.00640271      -0.01392578
C        9.85449458       0.08286703       3.75497332       0.00000000       0.00115219       0.00550614      -0.00973894
C        8.62436982       2.21696237       3.67553172       0.00000000       0.00010044      -0.00191063       0.01226076
C        7.39779836       4.34770615       3.57435024       0.00000000      -0.00185505       0.00425430       0.00058762
C        6.14749204       6.47811671       3.53714203       0.00000000      -0.00174744      -0.00230296      -0.00214253
C        4.91987563       8.61382938       3.72148578       0.00000000       0.00052856       0.00122253      -0.00361188
C       -0.00414191       1.51919212       3.79258357       0.00000000      -0.00143736       0.00633519      -0.00213870
C       -1.24747112       3.62854773       3.86779634       0.00000000       0.00479787      -0.00079648      -0.00303530
C       -2.48239251       5.77561799       3.85345176       0.00000000      -0.00028964      -0.00477539      -0.00117881
C       -3.72214603       7.91783665       3.77239965       0.00000000      -0.00112500      -0.00199830       0.01139241
C       -4.94745364      10.06922864       3.74268340       0.00000000       0.00272000      -0.00038376       0.01051182
C        2.44631813       1.58256219       3.69739075       0.00000000       0.00203589       0.00581335      -0.00120959
O        1.16258297       3.60364078       4.05513292       0.00000000      -0.00151632       0.00128305       0.00890659
C       -0.05242180       5.69779455       4.28972712       0.00000000       0.00097752       0.00070026      -0.00526036
C       -1.26143598       7.91395906       4.03039928       0.00000000      -0.00062183      -0.00806692      -0.00298246
C       -2.49971083      10.07469218       3.78262194       0.00000000       0.00643251      -0.00470279       0.01344760
C        4.90665293       1.51951663       3.59336111       0.00000000      -0.00174124      -0.00370108       0.00377241
O        3.75907487       3.60327406       3.36427000       0.00000000       0.00596705      -0.00124717      -0.00541210
C        1.20930094       8.00905936       4.26722451       0.00000000      -0.00215331       0.01012350      -0.00180984
C       -0.03342149      10.07117181       3.84868846       0.00000000      -0.00451025       0.00676014      -0.00138354
C        7.38134696       1.50619481       3.65360368       0.00000000       0.00015310      -0.00804203       0.00614441
C        6.16708806       3.61731512       3.46391714       0.00000000      -0.00777166      -0.00135244       0.00705667
C        4.92703036       5.71768569       3.36914890       0.00000000      -0.00648969       0.01266202      -0.00030772
C        3.65359453       7.89654530       3.74820186       0.00000000       0.00516248       0.00455980      -0.00878826
C        2.44490356      10.06860238       3.80778682       0.00000000       0.00253644       0.00726258      -0.00097989
C        9.86214132       1.50779343       3.73441548       0.00000000       0.00151648       0.00320345      -0.00329461
C        8.62905893       3.64024692       3.67043883       0.00000000       0.00162113       0.00080030       0.00322139
C        7.38321338       5.77331394       3.61366054       0.00000000       0.00214714       0.00386553       0.00545788
C        6.13681337       7.90028393       3.64614797       0.00000000      -0.00443635      -0.01027938       0.00886566
C        4.91838388      10.04161279       3.75992628       0.00000000       0.00037746       0.00381058       0.00436644
Pd       3.49673052       6.09344179       5.03183974       0.00000000       0.00156014      -0.00208744       0.01025531
O        4.50414704       3.52025014       5.92864931       1.00000000      -0.00714684      -0.00803514       0.00855825
O        3.37616484       4.08428270       5.95592371       1.00000000      -0.00176879       0.00590923      -0.01813135
