52
Lattice="12.336457 0.0 0.0 -6.168228499999997 10.683685154694365 0.0 0.0 0.0 15.0" Properties=species:S:1:pos:R:3:forces:R:3 energy=-440.21875868730024 free_energy=-440.21875868730024 stress="-0.000606651874063798 -0.0008710676665800329 -7.357030062301616e-06 -0.0008710676665800329 0.003870165492035742 1.1802076201288314e-06 -7.357030062301616e-06 1.1802076201288314e-06 3.030064580796343e-06" pbc="T T T"
C        0.06889929       0.05174469       3.87456731       0.00472256      -0.00185671      -0.00277771
C       -1.16564306       2.18760956       3.96457636      -0.00245373       0.00028698       0.00187749
C       -2.38063286       4.32066777       3.99509279      -0.00022215       0.00841214       0.00517651
C       -3.61212834       6.45902830       3.92552005      -0.00530191      -0.01014544       0.00093064
C       -4.85764451       8.60515741       3.82479248       0.00197953      -0.00581197       0.00274529
C        2.52841113       0.08341321       3.88952075      -0.00093272      -0.00066015       0.01111550
C        1.26574785       2.20063590       3.84959388       0.00363146       0.00029326       0.00788021
C        0.06727890       4.31829299       3.96918231       0.00225413      -0.00474210      -0.00525086
C       -1.13801845       6.43834360       4.01348714      -0.00044104      -0.00030928      -0.00273673
C       -2.38509329       8.59445763       3.95998021      -0.00161965      -0.00328429       0.00267332
C        5.00813944       0.05529574       3.91046814       0.00479120       0.00752584       0.00080697
C        3.77063425       2.20776834       3.69283183      -0.00342734       0.00244052       0.00335622
O        1.24896393       6.46044987       3.94548021      -0.00692084       0.00405903      -0.00180906
C        0.08026874       8.56861982       3.94020618       0.00667748      -0.00468808       0.00538799
C        7.47624879       0.02607942       3.91660926      -0.00270873      -0.00128148       0.00152315
C        6.24452918       2.18298627       3.80276459       0.00517707       0.00076482       0.00679184
C        5.06469456       4.33011471       3.47815176      -0.00266593      -0.00044667      -0.00124842
P        3.75604075       6.45582975       2.42944827      -0.01236380       0.00071840       0.00211967
C        2.51921225       8.54631233       3.73355423       0.00521453       0.01221125       0.00368068
C        9.93374105       0.02784502       3.88568074       0.00431616      -0.00375082       0.00500510
C        8.71063567       2.17484030       3.94050489      -0.00032026       0.00019757       0.00516496
C        7.49497659       4.31592794       3.83709393      -0.00252365      -0.00228638      -0.00655852
C        6.29144469       6.47320647       3.57039752      -0.00042651       0.00673812       0.00258649
C        5.00757992       8.59381578       3.62442973      -0.00124642      -0.00009525      -0.00247718
C        0.06576087       1.48588077       3.91352530       0.00188886       0.00135325       0.00256000
C       -1.14633795       3.61641984       3.99706357      -0.00103028       0.00314877      -0.00010877
C       -2.37610091       5.73613102       3.99769017      -0.00067448       0.00494040      -0.00376351
C       -3.62217821       7.88871191       3.91121924      -0.00169142      -0.01227835      -0.00213723
C       -4.86527313      10.03636091       3.87277358       0.00252969      -0.00558103      -0.00124849
C        2.49690027       1.51078803       3.81936609       0.00027618      -0.00095851       0.00777236
O        1.23965547       3.58595703       3.91791149       0.00485792      -0.00050594      -0.00741262
C        0.06752776       5.73459797       3.99414239      -0.00309928      -0.00395163      -0.00740348
C       -1.15530108       7.87019760       3.98744460       0.00280703      -0.00236480      -0.00403174
C       -2.39984122      10.03226994       3.92706019       0.00214608       0.00338610      -0.00212410
C        5.01598841       1.47981322       3.81193051       0.00359490       0.00779064      -0.00142371
S        3.80090238       3.54416250       2.51080558      -0.00449714      -0.00271758      -0.00139177
C        1.27818949       7.84190078       3.85252590       0.00786523       0.00257149      -0.00135529
C        0.07905579      10.00684767       3.92640194       0.00111017      -0.00443508      -0.00080631
C        7.47984263       1.45916546       3.90061554       0.00140918      -0.00311366       0.00312633
C        6.28864008       3.58594587       3.70626901       0.00063715      -0.00234604      -0.00447244
C        5.13796244       5.76580682       3.19757640       0.00117521       0.00497230      -0.00545748
C        3.76639746       7.91229361       3.42143570      -0.00456736       0.00369560      -0.00250158
C        2.53043882       9.97851632       3.87362661       0.00105270       0.00767715       0.00077737
C        9.94702407       1.46356218       3.94933899      -0.00107804      -0.00440920       0.00284408
C        8.72255990       3.59900163       3.94343715       0.00099834       0.00424362      -0.00240396
C        7.50483853       5.74813346       3.81317756      -0.00464266      -0.00429754      -0.01084786
C        6.25812037       7.90083306       3.64969012      -0.00048299       0.00524614       0.00087199
C        5.00356876      10.01422340       3.81839240       0.00489098      -0.00279994      -0.00960368
Pd       3.79243342       4.02253909       4.98003859      -0.01094426      -0.00671771       0.00518026
O        2.17511254       3.63353520       6.21104917      -0.00118666       0.00347775       0.00638009
O        2.60017725       3.74116460       7.59866550       0.00567979      -0.01579310       0.00229176
H        2.31742730       2.87276983       7.95377237      -0.00421427       0.01547757      -0.00927376
