51
Lattice="12.336457 0.0 0.0 -6.168228499999997 10.683685154694365 0.0 0.0 0.0 15.0" Properties=species:S:1:pos:R:3:initial_magmoms:R:1:forces:R:3 energy=-435.72830058715374 free_energy=-435.72830058715374 stress="-0.007255990210706959 0.005695260999108621 -1.304047463239325e-05 0.005695260999108621 -0.0020789577639433454 1.3262244345947787e-05 -1.304047463239325e-05 1.3262244345947787e-05 -2.5156112445732255e-06" pbc="T T T"
C        0.00999501       0.06581438       3.71998812       0.00000000      -0.00007836       0.00454505      -0.01321993
C       -1.20465559       2.21245760       3.61318080       0.00000000       0.00061560       0.00935463      -0.00439131
C       -2.46233850       4.34284991       3.83195941       0.00000000      -0.00504311       0.00650736      -0.01150106
C       -3.72427278       6.47405540       3.97441270       0.00000000       0.00258873      -0.00485754       0.01363327
C       -4.95565863       8.60786165       3.87750429       0.00000000       0.00619802       0.00228947       0.00436395
C        2.47288334       0.09023581       3.83092035       0.00000000      -0.00107721       0.00112725      -0.00309656
C        1.27294039       2.17214481       3.39346291       0.00000000       0.00218160       0.01033293       0.00056564
C       -0.13507070       4.44582881       3.23966828       0.00000000       0.00580063      -0.01178589      -0.00216820
C       -1.31168041       6.51557528       3.72626946       0.00000000       0.00736118      -0.00441613      -0.00027678
C       -2.49399284       8.62438841       3.94406523       0.00000000       0.00607757      -0.00524088      -0.00767490
C        4.94242114       0.05129559       3.92612382       0.00000000      -0.00245827      -0.00043750      -0.00038932
C        3.78107055       2.15929359       3.70685032       0.00000000      -0.00299205      -0.00231329       0.00307706
O        1.04177434       6.55106451       3.29558218       0.00000000      -0.01468110       0.00778577       0.00526462
C       -0.02975625       8.61032765       3.78763450       0.00000000       0.00279886      -0.00041900      -0.00235186
C        7.42254143       0.03275209       3.87881328       0.00000000      -0.00377169      -0.00353397      -0.00527688
C        6.22062838       2.15328952       3.96735693       0.00000000       0.00545605      -0.00228099       0.00031446
C        5.05937951       4.23917026       3.74754992       0.00000000       0.00399353      -0.01031739       0.00293475
P        3.62741901       6.28048649       2.83299110       0.00000000      -0.00769250       0.00755327      -0.00075599
C        2.43068227       8.57799916       3.60529773       0.00000000       0.00150162       0.00338573       0.00047263
C        9.88312227       0.04707437       3.75371846       0.00000000      -0.00329020       0.00620125      -0.00676603
C        8.67584768       2.18129683       3.90487919       0.00000000       0.00071375       0.00045750      -0.00279731
C        7.44173038       4.31385344       4.00808028       0.00000000       0.00236054      -0.00301446       0.00234322
C        6.17769805       6.43874928       3.82884134       0.00000000      -0.00322654       0.00095749       0.00550432
C        4.92416316       8.58785653       3.67338454       0.00000000      -0.00782933       0.00070086       0.00426607
C        0.03199247       1.50300135       3.56614637       0.00000000       0.00308982       0.01296934       0.00986801
C       -1.24324449       3.64677514       3.57179733       0.00000000      -0.00616979       0.00522884      -0.00622002
C       -2.50282398       5.76211057       3.87947935       0.00000000       0.00395316       0.00273129      -0.00695167
C       -3.72803726       7.90324317       3.95233774       0.00000000       0.00590236      -0.00422275      -0.00255853
C       -4.93354218      10.04385405       3.81726505       0.00000000       0.00029517       0.00332347      -0.00153624
C        2.51227790       1.51712027       3.65470793       0.00000000      -0.00167939       0.00108123       0.00356297
S        1.31567282       3.72803053       2.63801339       0.00000000      -0.00044678      -0.00024623       0.00465407
C       -0.17675011       5.83224477       3.35996634       0.00000000       0.00231530      -0.00994194      -0.00502884
C       -1.28109552       7.92788249       3.84742420       0.00000000       0.00822355      -0.00492386       0.00715693
C       -2.47513804      10.05292303       3.92655897       0.00000000      -0.00142427      -0.00316422      -0.00751801
C        4.96813013       1.47036740       3.88984770       0.00000000      -0.00026158       0.00169407       0.00881834
O        3.86426736       3.54060478       3.68577872       0.00000000      -0.00416059       0.00174517       0.00784720
C        1.16041395       7.92876846       3.56467540       0.00000000       0.00163935       0.00487043       0.00090871
C        0.00815350      10.02730107       3.89227801       0.00000000      -0.00294462      -0.00415651       0.00315082
C        7.44060092       1.45778351       3.94898295       0.00000000       0.00258100      -0.00387509      -0.00088171
C        6.23790766       3.56050262       3.97026124       0.00000000       0.00761102      -0.00653129       0.00445786
C        5.01473392       5.64043831       3.66151081       0.00000000      -0.00028858      -0.01167359      -0.00355193
C        3.68290919       7.90569071       3.50832903       0.00000000      -0.00678807      -0.00200524      -0.00009920
C        2.47045422      10.00661748       3.76496363       0.00000000      -0.00157330       0.00146598      -0.00331151
C        9.90887948       1.48287727       3.77157859       0.00000000       0.00289762       0.00627556       0.00661453
C        8.66706232       3.60630956       3.95319280       0.00000000      -0.00062832       0.00011398      -0.00475975
C        7.40248649       5.73721649       3.97612081       0.00000000      -0.00024862      -0.00243062       0.01032997
C        6.15655468       7.87383379       3.78487454       0.00000000      -0.00146285       0.00682144       0.00117078
C        4.94227265      10.02596915       3.72280106       0.00000000      -0.00452003       0.00178244      -0.00503231
Pd       2.36765589       5.23254288       4.48306537       0.00000000      -0.00872026      -0.00774915      -0.01170706
O        2.89262775       3.16763162       6.11718092       1.00000000      -0.00405630      -0.00408322      -0.00392822
O        1.78665636       3.70605886       5.75878131       1.00000000       0.01135768       0.00231898       0.01247093
