51
Lattice="12.336457 0.0 0.0 -6.168228499999997 10.683685154694365 0.0 0.0 0.0 15.0" Properties=species:S:1:pos:R:3:initial_magmoms:R:1:forces:R:3 energy=-435.52279951231907 free_energy=-435.52279951231907 stress="-0.0005452712881646895 -0.00046191127188461895 -2.142148875136145e-06 -0.00046191127188461895 0.004334620177760222 -2.3258265031738107e-06 -2.142148875136145e-06 -2.3258265031738107e-06 -2.083908256865852e-05" pbc="T T T"
C        0.02745422       0.01705012       3.91123385       0.00000000      -0.00366649       0.00836798      -0.00232462
C       -1.21375110       2.15171497       3.96650748       0.00000000      -0.00826461      -0.00222079      -0.01254627
C       -2.43051933       4.28358769       3.94866274       0.00000000      -0.01082421       0.00140095       0.00824855
C       -3.65901293       6.42561895       3.88517986       0.00000000       0.02978785       0.00180811       0.01178679
C       -4.89699633       8.57254187       3.86350436       0.00000000      -0.00883392      -0.01142559       0.00868110
C        2.48781043       0.04946817       3.81107701       0.00000000      -0.01074421       0.00558706      -0.00370944
C        1.21681357       2.17577659       3.74757406       0.00000000       0.03957695      -0.00312173      -0.00943711
C        0.02111853       4.28202340       3.89659098       0.00000000      -0.00033019      -0.00487301      -0.02700560
C       -1.19013240       6.40487847       3.92723528       0.00000000      -0.01510296       0.00659757       0.01362149
C       -2.43350485       8.55835809       3.88753665       0.00000000      -0.02049140       0.01918667       0.01331542
C        4.95460203       0.01136367       3.75711472       0.00000000      -0.00403790      -0.01351638       0.01603014
C        3.71504132       2.10146714       3.33881804       0.00000000      -0.00233755       0.01345109      -0.00852448
O        1.19393238       6.42692136       3.96622947       0.00000000       0.00863055       0.00201680      -0.01246058
C        0.01856146       8.53686126       3.89995589       0.00000000       0.00980939      -0.02286960       0.01067170
C        7.41761838      -0.00968707       3.84797274       0.00000000      -0.00535028       0.00346426       0.01513371
C        6.19708372       2.13174640       3.58653408       0.00000000      -0.00060591      -0.01427691       0.01751855
C        5.09533994       4.28421700       3.16281323       0.00000000      -0.01398274      -0.01250436       0.00308881
S        3.74402876       6.52570807       2.47885636       0.00000000       0.01242148      -0.01783344      -0.00172854
C        2.44629523       8.51206254       3.87708638       0.00000000      -0.00242042       0.01733945      -0.00287371
C        9.88452318      -0.00768105       3.94005697       0.00000000      -0.02390864      -0.01764449      -0.00052383
C        8.65499219       2.13793844       3.88850787       0.00000000       0.01480323       0.00862558      -0.02928594
C        7.45177038       4.28053870       3.76303040       0.00000000       0.00846779       0.00619906       0.00836288
C        6.24138932       6.44636620       3.66504711       0.00000000       0.01809269      -0.00165134       0.01618480
C        4.97592054       8.54835926       3.82843795       0.00000000      -0.00124403       0.01515132       0.01863299
C        0.02268425       1.45318279       3.89978199       0.00000000       0.01714881       0.01467914       0.00593223
C       -1.19630016       3.57772322       3.96405231       0.00000000      -0.01690358       0.00054241      -0.01683212
C       -2.42841348       5.70090619       3.93022185       0.00000000       0.00681354      -0.00625791       0.00244333
C       -3.66876531       7.85148296       3.88358488       0.00000000      -0.00083349       0.00057330       0.01006882
C       -4.90704618      10.00315957       3.88206819       0.00000000      -0.00876254      -0.00498025      -0.00161377
C        2.47069427       1.48199419       3.65118972       0.00000000       0.02194735       0.00350994      -0.01320762
O        1.19753993       3.55680099       3.81927657       0.00000000       0.03137263       0.01164105      -0.00513117
C        0.01815635       5.70279332       3.90872380       0.00000000      -0.00894668       0.00422158       0.01721534
C       -1.21016731       7.83403166       3.91077397       0.00000000      -0.01828086       0.01012446       0.00157034
C       -2.44719014       9.99632031       3.82444871       0.00000000      -0.02042594       0.01310102       0.00898546
C        4.95211852       1.43604662       3.55452790       0.00000000      -0.01070271      -0.00978296       0.00309089
S        3.70876971       3.58427982       2.45825723       0.00000000      -0.02171036      -0.01588877      -0.01319716
C        1.22026530       7.82055098       3.90833814       0.00000000       0.01511854      -0.00735582      -0.00544196
C        0.02206601       9.97242288       3.83936797       0.00000000       0.00743908      -0.02133275      -0.00618137
C        7.41648734       1.42517995       3.78536875       0.00000000       0.01422376       0.00665409       0.01241968
C        6.23100067       3.55963773       3.51603964       0.00000000      -0.00332694      -0.00532571       0.00387878
C        5.02525295       5.71278397       3.41282719       0.00000000      -0.00515935       0.00266938       0.00331817
C        3.72785929       7.79111836       3.76581997       0.00000000      -0.00286106       0.03330184       0.02476204
C        2.47805502       9.94090909       3.90470171       0.00000000      -0.02311887       0.00134099       0.00632079
C        9.89290799       1.42920378       3.95826091       0.00000000      -0.00662191      -0.01891923      -0.03367712
C        8.66893453       3.56376764       3.88550261       0.00000000       0.00257054       0.00979367       0.00547595
C        7.44711043       5.71067592       3.78898503       0.00000000       0.03521907       0.00714235      -0.02327108
C        6.20260643       7.85270451       3.78415145       0.00000000      -0.00717128      -0.00715094      -0.01825225
C        4.95678787       9.96925119       3.92316709       0.00000000      -0.01162747       0.00799542      -0.00726903
Pd       3.75077519       6.10388550       4.99693055       0.00000000       0.01883033       0.01597632      -0.07293781
O        2.85220193       3.53859681       5.70926335       1.00000000      -0.01011986      -0.00400984      -0.00579951
O        2.31249159       4.67893809       5.79422081       1.00000000      -0.00355523      -0.02952105       0.06647336
