51
Lattice="12.336457 0.0 0.0 -6.168228499999997 10.683685154694365 0.0 0.0 0.0 15.0" Properties=species:S:1:pos:R:3:initial_magmoms:R:1:forces:R:3 energy=-435.3429649457846 free_energy=-435.3429649457846 stress="-0.0015015159432997004 0.005799722650974561 -3.942506163914925e-05 0.005799722650974561 0.0005743380485538471 -1.473457259416592e-05 -3.942506163914925e-05 -1.473457259416592e-05 3.9209608095601356e-05" pbc="T T T"
C       -0.01934305       0.08084096       3.66080710       0.00000000      -0.01960132       0.00266911       0.00174293
C       -1.21943386       2.24387047       3.87469247       0.00000000       0.00562938      -0.01093098       0.01404591
C       -2.48762127       4.36116875       4.00690439       0.00000000      -0.00156582       0.00846078       0.00262195
C       -3.75520675       6.48407684       3.84679795       0.00000000       0.00770846       0.01257624       0.00014049
C       -4.99544924       8.60604437       3.64432737       0.00000000       0.01005061       0.00009048      -0.00679762
C        2.44692000       0.08572112       3.61523912       0.00000000       0.00675205       0.00396310       0.00064670
C        1.25008752       2.21132932       3.59251159       0.00000000       0.00288986      -0.00122972      -0.00922745
C       -0.05615877       4.44049014       4.25869463       0.00000000       0.00131888      -0.00470076      -0.00049543
C       -1.30767135       6.53266001       4.06231333       0.00000000      -0.01166667       0.00303440       0.03926246
C       -2.52200954       8.63162130       3.82701513       0.00000000      -0.00180693       0.00628144      -0.01189678
C        4.91097819       0.06887014       3.75560573       0.00000000       0.01244606       0.00847732      -0.01989121
C        3.75119493       2.17969241       3.44511963       0.00000000      -0.01012635       0.02890304      -0.00189134
O        1.08880408       6.55994846       4.11655744       0.00000000      -0.00231554      -0.01017450       0.00949410
C       -0.04720129       8.62251859       3.90001231       0.00000000      -0.01775756      -0.01909422       0.01106987
C        7.39019598       0.05685866       3.85074247       0.00000000      -0.00714046      -0.00121267       0.01638114
C        6.18630895       2.18017768       3.71448928       0.00000000      -0.00932325      -0.01539031       0.00609215
C        5.00833909       4.25287112       3.38145639       0.00000000      -0.00528502      -0.01530923       0.01248271
S        3.50598600       6.34726966       2.74263907       0.00000000      -0.01562532      -0.00024080      -0.00052744
C        2.40591287       8.59118790       3.73900992       0.00000000       0.00647510       0.00411061       0.00812973
C        9.85632816       0.06835310       3.78948041       0.00000000      -0.02087969      -0.00756372       0.01482849
C        8.64078568       2.20568163       3.87316399       0.00000000       0.01682667      -0.00495914       0.03258699
C        7.39933732       4.33376186       3.76935476       0.00000000      -0.00818629      -0.00797025       0.00556567
C        6.12801423       6.44350218       3.50649541       0.00000000       0.01058858      -0.00383581       0.00097102
C        4.87927550       8.60162841       3.53014401       0.00000000       0.00811563       0.00896003      -0.01373921
C        0.00744065       1.53122809       3.71200834       0.00000000       0.00576523      -0.00228065       0.02960682
C       -1.25548700       3.65497342       4.03732514       0.00000000      -0.00672197      -0.00028918      -0.01043487
C       -2.52685311       5.78303808       4.00264268       0.00000000      -0.00138471       0.01139653      -0.00028216
C       -3.76103784       7.90839350       3.77608298       0.00000000       0.01152760       0.00464143      -0.01931538
C       -4.96750739      10.04582577       3.62752990       0.00000000      -0.00821490       0.00246122       0.01330403
C        2.49170973       1.51408295       3.50434392       0.00000000       0.00046059       0.01506872       0.00562309
S        1.38215129       3.92663138       3.36305215       0.00000000       0.00527520       0.00917633      -0.02268849
C       -0.11090152       5.88800046       4.15752097       0.00000000      -0.00670104       0.00593246       0.00994502
C       -1.30018585       7.94471287       3.93991128       0.00000000      -0.02130747      -0.01059468       0.00727544
C       -2.50105377      10.05696624       3.72824150       0.00000000       0.01662121       0.00661064      -0.01816700
C        4.93804383       1.48870786       3.64465054       0.00000000      -0.01631492       0.01254533      -0.01062262
O        3.83256745       3.53957539       3.19652904       0.00000000       0.00509656      -0.00235035      -0.01351586
C        1.14654227       7.91852272       3.87910799       0.00000000      -0.00535685       0.00209738      -0.01537622
C       -0.02087998      10.04706429       3.84274147       0.00000000       0.00170071      -0.01315958      -0.01667955
C        7.40422655       1.48466501       3.82534442       0.00000000       0.00598603      -0.00242277       0.01016871
C        6.19125167       3.59220807       3.64785683       0.00000000      -0.00683671      -0.02087996       0.00971768
C        4.98182462       5.65162141       3.26863330       0.00000000       0.00687922      -0.01725282       0.01768980
C        3.62830287       7.93613828       3.41651788       0.00000000       0.01522272      -0.00761994       0.02745602
C        2.44558150      10.02234476       3.82559957       0.00000000      -0.01315689       0.00162768      -0.00912179
C        9.87699971       1.50426715       3.86338661       0.00000000       0.00900268      -0.01383673      -0.01536870
C        8.62777645       3.62826063       3.89884493       0.00000000       0.00474307       0.00209076      -0.01655332
C        7.36423491       5.75201512       3.72168107       0.00000000       0.01106236       0.00177419      -0.00574007
C        6.10848040       7.87888026       3.53153122       0.00000000       0.01289046       0.00458187      -0.00295921
C        4.90913847      10.04240956       3.67926098       0.00000000      -0.02643119       0.00790734      -0.02724708
Pd       1.20242461       3.87561496       5.70297948       0.00000000       0.01295027       0.00493744       0.01287415
O        4.03303477       4.07978318       5.76998040       1.00000000       0.02335552       0.01560879       0.01455559
O        3.18465016       3.16181473       6.02876870       1.00000000       0.00636619      -0.00268589      -0.06573984
