52
Lattice="12.336457 0.0 0.0 -6.168228499999997 10.683685154694365 0.0 0.0 0.0 15.0" Properties=species:S:1:pos:R:3:forces:R:3 energy=-439.90282652281877 free_energy=-439.90282652281877 stress="-0.0022845543616622052 0.006465101727060566 -2.724835198980285e-05 0.006465101727060566 -0.00046829876364719937 -1.1659128970381815e-05 -2.724835198980285e-05 -1.1659128970381815e-05 2.9009331207230305e-05" pbc="T T T"
C       -0.01128447       0.08356801       3.74505597       0.00651303      -0.01099228      -0.00253661
C       -1.21595573       2.24542780       3.85606873       0.01341859      -0.00836257       0.00902463
C       -2.49665935       4.36709947       4.07601368      -0.00171525      -0.00082694       0.00477434
C       -3.76681387       6.48825373       4.00568022       0.00070171       0.01190902       0.00027562
C       -4.98264276       8.61410700       3.80060388      -0.00088594       0.00295289       0.00328559
C        2.45777306       0.08496698       3.72983444      -0.00809404       0.00057934       0.00014099
C        1.26042197       2.19423259       3.55796310       0.00212546       0.01280344      -0.01730426
C       -0.09593588       4.48321147       3.96061026       0.00169295      -0.00326444       0.01856249
C       -1.32031124       6.53171110       4.22959938       0.00626808      -0.00781423       0.00503084
C       -2.52014095       8.63411976       4.02327655      -0.00480541      -0.00812303       0.00272491
C        4.92248483       0.05847469       3.88452875      -0.00720608      -0.00065430       0.00564398
C        3.78261028       2.13790326       3.41993401      -0.01417752       0.00371495       0.00368267
O        1.09491780       6.56084764       4.21025852       0.01203778      -0.00916715       0.00049098
C       -0.04716750       8.62467461       4.09659029      -0.00113364      -0.00417043      -0.00970364
C        7.39861032       0.05134523       3.96102262       0.00881930       0.00127087       0.01382345
C        6.19950712       2.16749916       3.76382055      -0.00465069      -0.00363807      -0.00022976
C        5.04928777       4.22239964       3.28162234      -0.00551087       0.00517509      -0.01287922
P        3.61962376       6.51184121       2.46993106      -0.00698553      -0.00246303      -0.00823614
C        2.40830576       8.59054131       3.85295403      -0.00750598       0.00520522       0.01088506
C        9.86165192       0.07031391       3.86357660       0.00780598       0.00712476       0.01737332
C        8.64807736       2.20678179       3.94675556      -0.00315316      -0.00258548       0.00482379
C        7.39731462       4.33271848       3.86239006      -0.00084036       0.00031209       0.00134374
C        6.13014592       6.45127458       3.63445179       0.00927242       0.00561926      -0.00239515
C        4.89335353       8.60928832       3.66105480       0.00223935       0.00151638      -0.00696897
C        0.01761667       1.53217493       3.72402495       0.01372241      -0.00994587      -0.00173031
C       -1.25025747       3.67450279       3.98550339       0.00262175      -0.00146048      -0.00332232
C       -2.53545244       5.78620119       4.13580475      -0.00394978       0.00272300      -0.00311965
C       -3.76023758       7.91330726       3.95274628      -0.00563590       0.00710001       0.01280307
C       -4.95695660      10.05054013       3.75507332       0.00077527      -0.00624680       0.00718576
C        2.50629004       1.50658522       3.53964241      -0.00997078       0.00788859       0.01030110
S        1.34070682       3.88440197       3.26923903       0.00005967      -0.00270463       0.00604010
C       -0.12123535       5.85777928       4.17740132       0.00793623      -0.00220953      -0.01296149
C       -1.30210431       7.94439449       4.16112683      -0.00173276      -0.00757527      -0.00786190
C       -2.49475413      10.05466617       3.88341891      -0.00884198      -0.00750601      -0.01326021
C        4.95779824       1.46671844       3.69797387      -0.01211355       0.00127121       0.00102782
O        3.92431706       3.45831242       3.00410621      -0.00703592      -0.00056966      -0.00520611
C        1.15745099       7.93351739       4.02728367      -0.00333276      -0.01210586      -0.00130111
C       -0.01386955      10.04075436       3.99722441       0.00404839       0.00114320      -0.00679702
C        7.41392403       1.47955923       3.91202967       0.00110478      -0.00355420      -0.00390440
C        6.20890398       3.57762360       3.65475468      -0.00909133       0.00059053      -0.00119069
C        4.93255613       5.65878490       3.35662031       0.00482300       0.00510670      -0.00971800
C        3.64312254       7.92061275       3.55811296      -0.00509828      -0.00211709       0.01417918
C        2.45099392      10.02138397       3.92374561       0.00745782       0.00777791       0.00214703
C        9.88911356       1.50803986       3.90800856       0.00205887       0.00343213       0.00470235
C        8.62612292       3.63216120       3.98515437      -0.00319152      -0.00357270       0.00047580
C        7.34835255       5.75680755       3.84742914       0.00993959       0.00490786      -0.00443132
C        6.11925601       7.87980649       3.68196492       0.00561557       0.00692644      -0.00747580
C        4.91829291      10.04461151       3.77169731       0.00506353      -0.00222572       0.01239272
Pd       3.14507315       5.41762356       4.35808412      -0.01218499       0.00231081      -0.00913373
O        3.38415645       3.90557219       5.74169960       0.00939029       0.00130923      -0.00772529
O        2.11465661       3.68858693       6.37931392       0.00083908       0.00756776       0.01661784
H        2.39257895       3.14621904       7.15065815       0.00249315       0.00561708      -0.03036606
