52
Lattice="12.336457 0.0 0.0 -6.168228499999997 10.683685154694365 0.0 0.0 0.0 15.0" Properties=species:S:1:pos:R:3:forces:R:3 energy=-438.12345343101146 free_energy=-438.12345343101146 stress="-0.0012105445606305863 -0.0018980478079809817 3.5692625248742825e-07 -0.0018980478079809817 0.00023926252493258792 4.546212156593636e-05 3.5692625248742825e-07 4.546212156593636e-05 -2.6036108340424413e-05" pbc="T T T"
C        0.02481460       0.03145241       3.78400618      -0.00569502      -0.00694093       0.00193657
C       -1.23024774       2.14959044       3.62295605       0.00277049      -0.00879492      -0.00449474
C       -2.48658391       4.28049493       3.56795321      -0.00297944      -0.00406523       0.00457138
C       -3.68410136       6.42556519       3.68764838       0.00228637       0.00058796      -0.00273427
C       -4.90333193       8.56579856       3.76945781       0.00331616       0.00305174       0.00651979
C        2.49977265       0.00379745       3.73842703      -0.00177756       0.00541663      -0.00955260
C        1.26133089       2.14903756       3.51423570       0.00375093       0.01232947      -0.00411516
C       -0.11672416       4.25274042       2.95036359      -0.01140421       0.00908798       0.00425084
C       -1.26095699       6.42953030       3.24760099      -0.00559866       0.00298692      -0.00545876
C       -2.42810064       8.55509070       3.61788306      -0.00163884      -0.00485647      -0.01040343
C        4.96943411      -0.00241754       3.86105313       0.00099332      -0.00488638      -0.01004147
C        3.69755988       2.07688503       4.18438176       0.00051512      -0.00017517      -0.00271853
P        1.46658892       6.34498710       2.55563584       0.00601454       0.01242531      -0.01153994
C        0.04662218       8.54578534       3.53547926       0.00112247       0.00482022      -0.00840233
C        7.42587419       0.00224519       3.90231743       0.01238136      -0.00149030      -0.00425035
C        6.17713432       2.16250306       4.11252045      -0.00055765      -0.00538317      -0.00321144
C        4.99222126       4.39145014       4.37165567       0.00459803      -0.00722840      -0.00630976
O        3.82343562       6.50811637       4.23766885      -0.01011119       0.01176253       0.00199239
C        2.52314845       8.53292586       3.79109753      -0.00425416       0.00307831       0.00737706
C        9.88985913       0.01253535       3.88710590      -0.00090820      -0.00080066       0.00121988
C        8.64126314       2.15141256       3.88146206      -0.00403616       0.00254592       0.00592739
C        7.40929083       4.29842009       3.94713775       0.00591605       0.00413355      -0.00610914
C        6.21186333       6.45585617       3.97932517      -0.00178426      -0.00107716       0.01047875
C        4.97358553       8.57222417       3.91100457       0.00101942      -0.00226243       0.00316355
C        0.00416158       1.45160260       3.66914694       0.00345982      -0.00332296      -0.00405206
C       -1.28165119       3.54287917       3.39250980      -0.00784062      -0.00522341      -0.00980671
C       -2.47545387       5.70975006       3.50513815      -0.00214181      -0.00394470      -0.00615214
C       -3.66880798       7.85057768       3.67996842      -0.00029485       0.00180808       0.00289658
C       -4.90638580       9.99056679       3.74485330      -0.00409707       0.00417706       0.00124066
C        2.50450379       1.42178152       3.79960388       0.00325271       0.00839848      -0.00516014
S        1.18277661       3.32471313       2.11871488       0.01765821       0.00133187      -0.00401858
C       -0.12825927       5.69987960       2.80982905       0.00405238       0.00924035       0.01207823
C       -1.20283713       7.84591075       3.44394845      -0.00033558      -0.00205934      -0.00163735
C       -2.42842250       9.97511553       3.74304545      -0.00433001      -0.00667552       0.00247600
C        4.95808916       1.42000648       4.08070736      -0.00029539      -0.00871753       0.00611314
P        3.56548884       3.60051479       5.07771575      -0.01079965      -0.00397205      -0.01310167
C        1.30087785       7.87108895       3.43356902      -0.00394165      -0.00161519       0.00669249
C        0.03294421       9.96913881       3.78607582       0.01039112       0.00303257       0.00464471
C        7.40962509       1.43906803       3.98428392       0.00009012      -0.00104173       0.00029735
C        6.17267205       3.60769818       4.15791441       0.01103112      -0.00121841       0.00738285
C        5.01047295       5.79052904       4.21535612      -0.00706591       0.00143828       0.01370476
C        3.77749357       7.85696326       3.93788092      -0.00673185       0.01231693       0.00968347
C        2.49951661       9.96417413       3.89330522       0.00568264      -0.00278718       0.00362440
C        9.87775919       1.44039654       3.81497588      -0.00315261      -0.00322622       0.00378388
C        8.63178562       3.57517984       3.81104248      -0.00265895       0.00031022      -0.00410279
C        7.42678193       5.71715418       3.87501103       0.00457274       0.00371737      -0.00364075
C        6.21151887       7.86845338       3.88609689       0.00371768      -0.00110611      -0.00604493
C        4.95755650       9.99979889       3.86066008      -0.00376394      -0.00761663       0.00652025
Pd       1.51091109       4.24249417       4.30057266      -0.00682890      -0.00608386       0.00806447
O        1.45270334       4.23486846       7.25394455      -0.00560592      -0.00494618       0.00867348
O        1.40869343       4.19646081       8.62405784       0.00796742      -0.01314867       0.00077634
H        2.34654233       4.24429845       8.91428629       0.00406984       0.00666918       0.00096839
