51
Lattice="12.336457 0.0 0.0 -6.168228499999997 10.683685154694365 0.0 0.0 0.0 15.0" Properties=species:S:1:pos:R:3:initial_magmoms:R:1:forces:R:3 energy=-431.11585764693905 free_energy=-431.11585764693905 stress="-0.005452110802748552 -0.0006675475742355267 3.185617932643351e-06 -0.0006675475742355267 -0.0043852421013203125 -3.3570166522990446e-06 3.185617932643351e-06 -3.3570166522990446e-06 -1.511192314739588e-05" pbc="T T T"
C       -0.04324511       0.01403096       3.76219861       0.00000000      -0.00254206      -0.00533019      -0.00529498
C       -1.28943686       2.15674602       3.84488089       0.00000000      -0.00326192       0.00548725      -0.00687018
C       -2.56544921       4.29223118       4.07191993       0.00000000      -0.00005453      -0.00596408       0.00383317
C       -3.76099201       6.43481127       3.93589449       0.00000000       0.00489173       0.00383935       0.00277819
C       -4.98346554       8.56196514       3.75924529       0.00000000      -0.00803767      -0.00033698      -0.00907503
C        2.42757065       0.00544915       3.68630109       0.00000000       0.00332041       0.00466313       0.00350998
C        1.17587610       2.08544270       3.45185846       0.00000000       0.00105861      -0.00114359      -0.00498678
C       -0.17452655       4.33319669       4.05715376       0.00000000       0.00193199       0.00559669      -0.00702982
C       -1.33756827       6.44481904       4.33188387       0.00000000      -0.00130496      -0.01144515       0.00373098
C       -2.51603936       8.57102693       4.00737817       0.00000000      -0.00078288       0.00339208       0.00405472
C        4.89199821       0.01183052       3.71142206       0.00000000       0.00279182       0.00536738      -0.00475950
C        3.67004623       2.04876751       3.06937659       0.00000000       0.00668867       0.01242519      -0.00428358
P        1.38940509       6.37529650       4.98775768       0.00000000      -0.00483766       0.01001670       0.00331052
C       -0.04057161       8.57424928       4.08847642       0.00000000       0.00126078      -0.00628487       0.00083613
C        7.34908497       0.02273677       3.76624151       0.00000000       0.00260329       0.00686389       0.00294335
C        6.13475402       2.14560773       3.40773910       0.00000000      -0.00570354      -0.01090661       0.00386500
C        5.13107769       4.31351021       2.70938279       0.00000000       0.00706208       0.00397501       0.00477034
S        3.69828181       6.60818246       2.19453142       0.00000000      -0.00037271       0.00335314      -0.00827163
C        2.42619285       8.57814555       3.73048760       0.00000000       0.00351512      -0.00309094      -0.00654708
C        9.82404013       0.02392898       3.75892669       0.00000000       0.00223934      -0.00587043      -0.00807657
C        8.57849332       2.15660228       3.78534209       0.00000000      -0.00051370      -0.00003458       0.00139342
C        7.37353709       4.29399109       3.60354799       0.00000000      -0.00785573      -0.00207442       0.00414275
C        6.19511398       6.45186795       3.32173883       0.00000000      -0.00162354       0.00712945      -0.00223488
C        4.90177796       8.57492225       3.53503658       0.00000000       0.00284086      -0.00113162       0.00107612
C       -0.04876183       1.44418832       3.73024229       0.00000000      -0.00265347      -0.00174523      -0.00467226
C       -1.34344352       3.56171776       4.03712459       0.00000000       0.00375601       0.00522509       0.00530781
C       -2.55745387       5.71995870       4.14844988       0.00000000      -0.00105649      -0.00921450       0.01634178
C       -3.75148416       7.85783534       3.91919482       0.00000000      -0.00258319       0.00643801      -0.00628492
C       -4.97864828       9.98976335       3.76208969       0.00000000      -0.00069973      -0.00225061       0.00591161
C        2.42595561       1.41378276       3.39005621       0.00000000       0.00596588       0.00598327      -0.00842241
S        1.05526504       3.72976968       3.01434673       0.00000000      -0.00168265       0.00122685       0.01087079
C       -0.15147648       5.68021504       4.45209622       0.00000000      -0.00099082       0.00036861      -0.00105015
C       -1.29156090       7.86958292       4.19819472       0.00000000      -0.00180760      -0.00777022       0.00178500
C       -2.50900005       9.98744028       3.81014301       0.00000000       0.00399140       0.00511933      -0.00202948
C        4.89885824       1.42139323       3.38705078       0.00000000      -0.00092658       0.00048084      -0.00696736
S        3.75104565       3.45979583       2.02637104       0.00000000      -0.00018950      -0.01358100       0.00584400
C        1.22179491       7.91228072       4.11510753       0.00000000       0.00357212      -0.01172088       0.00357326
C       -0.04720297       9.99240419       3.85294262       0.00000000       0.00298768       0.00336538       0.00001733
C        7.34443989       1.44740177       3.66269303       0.00000000       0.00046251       0.00216641      -0.00028557
C        6.19839902       3.56363321       3.24103056       0.00000000      -0.00628678      -0.01073637       0.00430056
C        5.11933335       5.72301248       2.77063831       0.00000000      -0.00091256       0.00703902      -0.00305923
C        3.65632878       7.93242945       3.33189814       0.00000000       0.00744284       0.00289363      -0.00119508
C        2.42167443      10.00607572       3.75476488       0.00000000       0.00136565      -0.00197990       0.00205601
C        9.82036825       1.44869556       3.82308887       0.00000000      -0.00118932      -0.00204000       0.00131589
C        8.56843466       3.57621425       3.85175744       0.00000000      -0.00477618      -0.00129307       0.00219813
C        7.37917427       5.72088523       3.63808240       0.00000000      -0.00155334       0.00540356       0.00377750
C        6.13848431       7.86224365       3.52284663       0.00000000      -0.00610605      -0.00064149       0.00068883
C        4.89043427       9.99370954       3.73158950       0.00000000       0.00084857      -0.00667910      -0.00395035
Pd       2.79876734       5.05957764       3.72717172       0.00000000      -0.00091321       0.00294767      -0.00218943
O        3.15322318       4.80506275       8.82124547       1.00000000       0.00693337      -0.00659159      -0.00062701
O        3.86035163       3.87054756       8.42623722       1.00000000      -0.00631238       0.00909052       0.00393010
