51
Lattice="12.336457 0.0 0.0 -6.168228499999997 10.683685154694365 0.0 0.0 0.0 15.0" Properties=species:S:1:pos:R:3:initial_magmoms:R:1:forces:R:3 energy=-429.983266278037 free_energy=-429.983266278037 stress="-0.002738688489896245 3.4883258117039506e-05 -1.1678093415268138e-05 3.4883258117039506e-05 -0.003486447802318254 -3.322455469958245e-06 -1.1678093415268138e-05 -3.322455469958245e-06 2.6982684824172536e-05" pbc="T T T"
C       -0.03776857      -0.00482426       3.94399822       0.00000000       0.00159960       0.00872489      -0.00006909
C       -1.27914944       2.12877762       3.86108010       0.00000000      -0.00517340      -0.00057547      -0.00938062
C       -2.51541173       4.27131081       4.11456243       0.00000000      -0.00384282       0.00066931      -0.00412119
C       -3.74123543       6.41465399       4.19737661       0.00000000       0.00150021       0.00487230       0.00398901
C       -4.98170762       8.54421948       4.04845892       0.00000000      -0.00754077       0.00649732      -0.00908396
C        2.42687870      -0.00191148       3.85416981       0.00000000       0.00467525       0.00763201      -0.00609522
C        1.15439007       2.01884520       3.27343413       0.00000000      -0.00383458       0.00488441       0.00687736
C       -0.27041406       4.28625239       3.21056324       0.00000000      -0.00261452       0.00555213      -0.00508654
C       -1.32207695       6.41579957       3.79351071       0.00000000      -0.00565798      -0.00268196       0.00091556
C       -2.50160211       8.54551274       4.04438076       0.00000000       0.00812451      -0.00777941      -0.00218404
C        4.89245999      -0.00375443       3.94614020       0.00000000      -0.00470541       0.00454906      -0.00310826
C        3.70072090       2.02017228       3.27578146       0.00000000       0.00014781       0.00149063      -0.01459322
S        0.86842308       6.59010068       2.24631444       0.00000000      -0.00509809       0.01016205       0.00790990
C       -0.04740462       8.55616292       3.73589258       0.00000000       0.00846440      -0.00737824       0.00400073
C        7.36433562      -0.00762374       3.97497777       0.00000000      -0.00245921      -0.00426128      -0.01031484
C        6.13550656       2.12899234       3.85685434       0.00000000       0.00312484      -0.00039198       0.00368293
C        5.12847397       4.28662852       3.20275224       0.00000000       0.00544187       0.00395953       0.00215438
S        3.99089427       6.59433126       2.24072810       0.00000000      -0.00183078      -0.00920595       0.00205150
C        2.42688732       8.58171694       3.44079058       0.00000000       0.00280751      -0.01122210       0.00557901
C        9.82701930      -0.00743765       3.97158838       0.00000000      -0.00193834      -0.00471231      -0.00183064
C        8.59596608       2.13087003       4.12512046       0.00000000       0.00337666       0.00299219       0.00745476
C        7.37146305       4.27135082       4.11316898       0.00000000      -0.00239941      -0.00300841      -0.01028091
C        6.17472211       6.41497358       3.79827689       0.00000000       0.01472129      -0.00499704      -0.01044306
C        4.90048399       8.55515265       3.73758969       0.00000000      -0.00239422      -0.00018124       0.00543899
C       -0.04554477       1.41154228       3.73855727       0.00000000      -0.00581846       0.00302607      -0.00140113
C       -1.32006143       3.55200049       3.79901126       0.00000000      -0.00232791       0.00167995      -0.00573087
C       -2.51610395       5.69608757       4.11333092       0.00000000      -0.00533619       0.00045164      -0.00744359
C       -3.74130692       7.83597894       4.12586206       0.00000000      -0.00270490       0.00683836       0.00924627
C       -4.97250696       9.97420025       3.97295914       0.00000000       0.00301618       0.01185528       0.00754188
C        2.42751500       1.38655836       3.44422445       0.00000000      -0.00150003       0.01060382      -0.00176226
S        0.86730083       3.37638157       2.24610439       0.00000000      -0.00108178      -0.00758857       0.01021120
C       -0.27161933       5.68056769       3.20761466       0.00000000      -0.00457199       0.00420937       0.00472098
C       -1.28179775       7.83934395       3.85472962       0.00000000       0.01213779      -0.00787641       0.00873603
C       -2.50998074       9.97572782       3.97372670       0.00000000       0.00143735      -0.00455969       0.00165112
C        4.90139122       1.41199205       3.73767131       0.00000000      -0.00194441       0.00847751       0.00804126
S        3.98917274       3.37390478       2.24251448       0.00000000       0.00493796      -0.00972951       0.01057271
C        1.15336810       7.94841581       3.27364565       0.00000000       0.00462040      -0.00487210      -0.01132570
C       -0.03777613       9.97159991       3.94629062       0.00000000      -0.00500393      -0.00265412      -0.00677322
C        7.35529304       1.42254445       4.04633012       0.00000000       0.00666848      -0.00121003      -0.00594758
C        6.17743742       3.55219895       3.79219854       0.00000000      -0.00191923       0.00015567       0.00436345
C        5.12846974       5.68110372       3.20310760       0.00000000      -0.00142399       0.00131579       0.01252352
C        3.70041083       7.94857416       3.27132654       0.00000000       0.00162919      -0.00424532       0.00459659
C        2.42729583       9.96994041       3.85139317       0.00000000      -0.00230081      -0.01175925       0.00452082
C        9.83646101       1.42251927       4.04562142       0.00000000      -0.00167687      -0.00241896       0.00137385
C        8.59630903       3.55224294       4.19634726       0.00000000      -0.00439379       0.00218532       0.00687257
C        7.37017803       5.69601889       4.11545619       0.00000000       0.00979844      -0.00490267      -0.00806009
C        6.13395172       7.83811726       3.86270832       0.00000000      -0.00111004      -0.00467189      -0.01823904
C        4.89214790       9.97117130       3.94286110       0.00000000       0.00270363       0.00306394       0.00743362
Pd       2.43033717       4.98265986       1.67954558       0.00000000      -0.00808185       0.00699866       0.00023180
O        2.83545373       4.97829356       8.54788590       1.00000000      -0.00588552       0.00060588      -0.00210191
O        3.97983102       4.85914030       9.00089292       1.00000000       0.00563788      -0.00056914       0.00268519
