52
Lattice="12.336457 0.0 0.0 -6.168228499999997 10.683685154694365 0.0 0.0 0.0 15.0" Properties=species:S:1:pos:R:3:forces:R:3 energy=-433.47929100845596 free_energy=-433.47929100845596 stress="-0.004965201785108325 -1.5167787174566736e-05 -7.754413490369883e-06 -1.5167787174566736e-05 -0.0030527533890470546 1.5342063603576021e-06 -7.754413490369883e-06 1.5342063603576021e-06 9.05774093234377e-06" pbc="T T T"
C       -0.00352264      -0.00644172       4.08704395       0.01518104       0.00333619      -0.00437079
C       -1.25151261       2.12038393       3.99061652       0.00690479      -0.00088122       0.01035128
C       -2.48566720       4.26808253       4.23737381      -0.00437297      -0.00253686       0.00143859
C       -3.70284928       6.41559364       4.32513202      -0.00634849      -0.00223929       0.01329250
C       -4.94240148       8.54657364       4.18097717      -0.00431159       0.00315254       0.00410677
C        2.46325843       0.00513723       4.01518285       0.00954153      -0.00152835       0.00356817
C        1.18747880       2.02076192       3.43156093      -0.00188346       0.00118255      -0.00869396
C       -0.27711458       4.28175425       3.28887332      -0.01547814       0.00517331      -0.00013778
C       -1.30054724       6.41691690       3.89958192      -0.00223562       0.00351298       0.00301599
C       -2.46501688       8.54806089       4.18619051       0.00009412       0.00254116      -0.00674656
C        4.93020441      -0.00338081       4.08760474      -0.00403796      -0.00154583      -0.01044220
C        3.73894241       2.02183307       3.42526221      -0.00366499      -0.01098132       0.00354588
S        0.93714642       6.57432398       2.37688040      -0.00387378      -0.00035170       0.00087847
C       -0.01238788       8.55090799       3.87014995      -0.00197528      -0.00244026      -0.00023399
C        7.40132193      -0.01706689       4.12199605      -0.00856963      -0.00480226      -0.00418234
C        6.17902115       2.12248074       3.98210310       0.00702618      -0.00458112       0.00659589
C        5.21165514       4.28244198       3.26571517      -0.00174622       0.00647468      -0.00081951
S        3.99266333       6.57721148       2.36209696      -0.00386604       0.00358914       0.01806575
C        2.46421275       8.56431191       3.60527586       0.00537418       0.00092891      -0.00426265
C        9.86270435      -0.01911175       4.12255927       0.00247120       0.01106957      -0.00784071
C        8.63185636       2.12272013       4.26648465       0.00557407       0.00694687       0.00454057
C        7.41676592       4.26870872       4.22491033      -0.00564841      -0.01014702       0.00089014
C        6.23240128       6.41651999       3.88308223      -0.00202054      -0.00092711      -0.00723617
C        4.94112096       8.54916872       3.86130490      -0.00493087      -0.00268033       0.00635293
C       -0.01367274       1.41020953       3.87799916       0.00446740       0.00500124      -0.00651640
C       -1.30049855       3.54394339       3.90490498      -0.00875458      -0.00399438      -0.00342294
C       -2.48532270       5.69354445       4.23561137      -0.00391892      -0.00248134      -0.00562392
C       -3.70334539       7.83828360       4.26273650      -0.00426770       0.00670119       0.00253770
C       -4.93624916       9.97788617       4.12344130       0.01108056       0.00279546      -0.00607478
C        2.46345678       1.39773243       3.61660971      -0.00026890      -0.00847724      -0.00586200
S        0.93537630       3.38276608       2.38086529       0.01503166      -0.00345410       0.00219901
C       -0.27739170       5.67717160       3.28586219      -0.00426027       0.00625866      -0.00264490
C       -1.25013075       7.84055886       3.98480689       0.00057678      -0.00208370       0.01186615
C       -2.47310564       9.97956697       4.12485761       0.00336496      -0.00219618      -0.00187948
C        4.94036854       1.41269521       3.87203743       0.00535329      -0.00653309      -0.00006460
S        3.99000362       3.38064031       2.37101733       0.00744433      -0.00067187      -0.00347847
C        1.18793866       7.94087332       3.42116879       0.00545385       0.00418359      -0.00139181
C       -0.00177555       9.96701550       4.08529624      -0.01173047      -0.00468982      -0.00660251
C        7.39322865       1.41430536       4.18493530       0.00913839      -0.00044574      -0.00163341
C        6.23259786       3.54511367       3.88659769      -0.00560309      -0.00195101       0.00021582
C        5.21158907       5.67722572       3.26363546      -0.00381514       0.00815311      -0.00634256
C        3.74014624       7.94127518       3.41168296      -0.00197629      -0.00982898       0.00389002
C        2.46377459       9.95551441       4.00930754      -0.00172470       0.00309148       0.00122200
C        9.86988105       1.41238733       4.18845967       0.00383498       0.00738154      -0.00103209
C        8.63301067       3.54621859       4.32923587      -0.00243178       0.00003832       0.00577305
C        7.41683093       5.69414050       4.22232656      -0.00522904      -0.01045557       0.00878759
C        6.17982313       7.83919679       3.97595065      -0.00541774      -0.00189994      -0.00176487
C        4.92915734       9.96401235       4.08224756       0.00853585       0.00328317      -0.00128503
Pd       2.46815476       4.97932597       3.02672832      -0.00215147       0.00625692      -0.00071100
O        2.60801992       5.01037671       5.95419308       0.00788467       0.00395851       0.00171613
O        2.38412611       4.98945321       7.30563705       0.00472370       0.00010438      -0.00795143
H        3.28216180       4.98804199       7.70178881      -0.00254347      -0.00030984       0.00439847
