52
Lattice="12.336457 0.0 0.0 -6.168228499999997 10.683685154694365 0.0 0.0 0.0 15.0" Properties=species:S:1:pos:R:3:forces:R:3 energy=-449.47045062344426 free_energy=-449.47045062344426 stress="-0.0020152711537135292 -0.004203229006408978 -1.0281044109802472e-05 -0.004203229006408978 0.004041744194025021 5.3896112357583815e-05 -1.0281044109802472e-05 5.3896112357583815e-05 1.1354816480527138e-05" pbc="T T T"
C       -0.06606030      -0.01476455       3.64890704      -0.00136142       0.00093789      -0.00444340
C       -1.33428699       2.09505472       3.55373831      -0.00313565       0.00296758       0.00056446
C       -2.55071621       4.25385643       3.50089989       0.00160087      -0.00610577      -0.00165463
C       -3.74527159       6.41003420       3.51642408       0.00761354      -0.00322346       0.00125220
C       -4.97168906       8.56067350       3.59297466       0.00221067       0.00546165       0.00052945
C        2.39701779       0.03161243       3.75810278       0.01087694       0.00379418       0.00178810
C        1.10642052       2.11801296       3.71370886      -0.00529546       0.00116697      -0.01071215
C       -0.12475322       4.19335277       3.59959067       0.00048304      -0.00551739      -0.00463170
C       -1.29248513       6.37289567       3.66626670       0.00570974      -0.00013976      -0.00561492
C       -2.51409098       8.54648725       3.70576518       0.00094096       0.00260874      -0.00991866
C        4.85712527       0.01059949       3.88905649       0.00054102      -0.00163078      -0.01012101
C        3.58969784       2.17886563       4.05808445      -0.00567015      -0.00556094      -0.00382277
B        1.13196488       6.30806111       4.26398228      -0.00580914       0.00570053       0.00885739
C       -0.05744918       8.52314473       3.91962989       0.00044891       0.00135419      -0.00700467
C        7.32895442      -0.02302077       3.86420918      -0.00557847      -0.00463562      -0.00335603
C        6.08118081       2.13951208       3.86071644      -0.00357083       0.00673675      -0.01035938
C        4.93072819       4.33320090       3.94780403      -0.00352226      -0.00428252       0.00113710
N        3.85047664       6.45127384       4.22218654       0.00027708       0.00483118       0.00582461
C        2.41632055       8.49288585       3.99963240       0.00393645      -0.00002916      -0.00170783
C        9.78793055      -0.03997839       3.73273426      -0.00488199       0.00213239       0.00047900
C        8.54410157       2.11212362       3.65304562      -0.00242598      -0.00226912      -0.01651918
C        7.33971226       4.27081787       3.59564922       0.00695543       0.00797391      -0.00363254
C        6.15359344       6.44177233       3.58095028      -0.00862047      -0.00087140      -0.00404668
C        4.89430321       8.52930971       3.73788063      -0.00345191      -0.00101351      -0.00091233
C       -0.09133245       1.40524388       3.62394319      -0.00701554       0.00323734       0.00458179
C       -1.33325432       3.51219101       3.49801211      -0.00258087      -0.00323167       0.01449743
C       -2.52881449       5.67753423       3.52814004       0.00821827      -0.00687962       0.00213702
C       -3.74160719       7.83900192       3.58436917       0.00169216       0.00056211      -0.00085442
C       -4.98732202       9.98783986       3.65637782       0.00779880       0.00914338       0.01504437
C        2.36803422       1.47066526       3.86067754      -0.00628783       0.00019002       0.00018361
O        1.05805791       3.48404633       3.61009086       0.00491607       0.00306964       0.00399377
C       -0.10372191       5.59565936       3.76597331       0.00340568      -0.00543490      -0.01262465
C       -1.28599629       7.81068061       3.77383305       0.00011484       0.00266017      -0.00244885
C       -2.53574585       9.98434092       3.79358302       0.00518275      -0.00132295       0.00597104
C        4.82944408       1.45553404       3.95770270      -0.00343064      -0.00241328       0.00262266
B        3.66163453       3.68666802       4.37193214       0.00208361      -0.00622580       0.00183357
C        1.17866305       7.81430887       4.06225671       0.00260491       0.00432113       0.00049220
C       -0.07511415       9.96430390       3.89955042      -0.00378258      -0.00246580       0.00177754
C        7.31426173       1.40830023       3.78740430      -0.00482169      -0.00037092      -0.00121850
C        6.10540947       3.56814154       3.78055624       0.00603848       0.00948985      -0.00082150
C        4.95545015       5.74942892       3.84828034      -0.00495236      -0.00326630       0.01158048
C        3.69167111       7.78388986       3.97491118       0.00098912       0.00272465       0.00707311
C        2.39900958       9.92558167       3.86380161      -0.00220822      -0.00023852       0.00984266
C        9.77947554       1.38952666       3.63004727      -0.00066979       0.00147623       0.00769996
C        8.55406377       3.54196407       3.56040535       0.00148702      -0.00143520       0.00214209
C        7.36129988       5.69879805       3.52636291       0.00197510       0.00663745       0.01076473
C        6.13455027       7.85156950       3.61397059      -0.00155837       0.00089136       0.00270250
C        4.86734606       9.94590160       3.69377803      -0.00445259      -0.00205069       0.00250334
Pt       2.50711332       5.26340032       5.14402459       0.00426068       0.00702220      -0.01160209
O        3.92546019       5.44486172       6.45178345      -0.00514278       0.00227894       0.00673992
O        3.64271101       4.76452626       7.72749219      -0.00161570      -0.01599501      -0.00587139
H        4.03080071       5.42708261       8.33868561       0.00948056      -0.01276032      -0.00071683
