51
Lattice="12.336457 0.0 0.0 -6.168228499999997 10.683685154694365 0.0 0.0 0.0 15.0" Properties=species:S:1:pos:R:3:initial_magmoms:R:1:forces:R:3 energy=-446.5198625317546 free_energy=-446.5198625317546 stress="-0.010378668181755282 0.001399876383822165 1.8101657870957148e-05 0.001399876383822165 -0.0018243509070127355 -1.3199537806468197e-06 1.8101657870957148e-05 -1.3199537806468197e-06 4.268413275659349e-06" pbc="T T T"
C        0.06823897      -0.00444229       3.60108826       0.00000000       0.00305873      -0.00306837      -0.00185692
C       -1.18639054       2.11013538       3.35591233       0.00000000       0.00478420      -0.00351561      -0.00388823
C       -2.42321656       4.26362930       3.58987494       0.00000000      -0.00382432       0.00409555      -0.01876138
C       -3.62581387       6.41148907       3.86605408       0.00000000      -0.00206005       0.00047918      -0.00587391
C       -4.86122996       8.56118638       3.85323325       0.00000000      -0.00465786      -0.00273671       0.00123882
C        2.53480265       0.02401245       3.64633730       0.00000000      -0.00132525       0.00081671      -0.00073791
C        1.30211240       2.06660874       3.12585368       0.00000000       0.00224131       0.00263650      -0.00294408
C       -0.13010115       4.31045487       2.85109849       0.00000000       0.00992423      -0.00136510       0.00608395
C       -1.24491653       6.43713059       3.41900821       0.00000000       0.00105166       0.00075726      -0.00840477
C       -2.41573435       8.56544693       3.71915871       0.00000000       0.00329711      -0.00043468      -0.00570229
C        5.00810869      -0.00191797       3.69180448       0.00000000       0.00897898       0.00098224       0.01086158
C        3.79312343       2.16215949       3.60551540       0.00000000       0.00026746       0.00311421      -0.00317122
C        1.16261117       6.39192874       3.22305862       0.00000000      -0.00877913       0.00203962      -0.00194573
C        0.04636973       8.53223308       3.54009200       0.00000000       0.00349185      -0.00616541       0.00648149
C        7.47822472      -0.03927586       3.67533316       0.00000000      -0.00311592       0.00068979      -0.00175238
C        6.27105739       2.09059388       3.86565705       0.00000000      -0.00226510       0.00507926      -0.00238320
C        5.10409887       4.22290771       3.97237920       0.00000000      -0.00208157       0.00212403      -0.00359849
B        3.84909188       6.36133798       3.75412681       0.00000000      -0.00170479       0.00233491      -0.00407985
C        2.52715393       8.49986655       3.58561821       0.00000000      -0.00373437       0.00172054      -0.00148218
C        9.93646442      -0.03272648       3.62556038       0.00000000       0.00029976      -0.00424471       0.00505072
C        8.71839476       2.10298487       3.73457492       0.00000000      -0.00339603      -0.00064319      -0.00399017
C        7.51980264       4.24532451       4.00152806       0.00000000      -0.00754042       0.00101208      -0.01170953
C        6.29449897       6.40876121       4.04235526       0.00000000      -0.00275990      -0.00133313       0.00342517
C        5.01591688       8.54146095       3.79521752       0.00000000      -0.00033231      -0.00240088      -0.01386274
C        0.05530500       1.40288886       3.34146653       0.00000000       0.00603341      -0.00151201       0.00422504
C       -1.23845561       3.54333409       3.24756157       0.00000000       0.00543250       0.00152323      -0.00207168
C       -2.42962203       5.69531503       3.63326483       0.00000000       0.00306019       0.00399808       0.00425533
C       -3.63380825       7.84461607       3.83461864       0.00000000      -0.00181598       0.00080027      -0.00639510
C       -4.86355321       9.98502546       3.70589059       0.00000000      -0.00138374      -0.00350263       0.00126588
C        2.53839762       1.44440999       3.45210470       0.00000000      -0.00048416       0.00351689       0.00075717
P        1.23719466       3.49028178       2.04913730       0.00000000       0.00539890      -0.00058151       0.00027093
C       -0.06852464       5.72741638       3.08513157       0.00000000       0.00099519      -0.00079000       0.00300329
C       -1.19841871       7.84888490       3.56741576       0.00000000       0.00495869      -0.00380112       0.00519443
C       -2.40594255       9.98852520       3.70121369       0.00000000       0.00459939       0.00286279       0.00569859
C        5.02466736       1.41581382       3.73719540       0.00000000       0.00280259       0.00357104       0.00296695
C        3.90076349       3.56211868       3.65990596       0.00000000      -0.00285497       0.00110035       0.00927756
C        1.27875488       7.78108351       3.45000517       0.00000000      -0.00214096      -0.00172370       0.00213693
C        0.06676541       9.94804973       3.64807423       0.00000000       0.00449575      -0.00656800       0.01006931
C        7.49595447       1.37914430       3.78199483       0.00000000      -0.00436649       0.00144992      -0.00147204
C        6.31289211       3.50105743       4.01774799       0.00000000      -0.00591516       0.00262382      -0.00410247
C        5.12653961       5.63827910       4.02762519       0.00000000      -0.00191650      -0.00018220      -0.00467477
C        3.77143790       7.84785726       3.71910278       0.00000000      -0.00510733       0.00163262       0.01041082
C        2.53490956       9.92841103       3.62644534       0.00000000      -0.00387990      -0.00004321       0.01642691
C        9.94040099       1.39530540       3.57621433       0.00000000       0.00072179      -0.00379466       0.00069110
C        8.72635143       3.53327709       3.80915761       0.00000000      -0.00468297       0.00237780      -0.00588024
C        7.51493532       5.68201876       4.01965586       0.00000000      -0.00217045      -0.00091708       0.00744399
C        6.25332073       7.83896212       3.91787996       0.00000000      -0.00385619      -0.00253041       0.00436140
C        5.00983973       9.96020892       3.67855907       0.00000000       0.00317779      -0.00218669       0.00630481
Pt       2.55591707       4.97187880       3.25962321       0.00000000       0.00908033       0.00070231      -0.00716090
O        1.18994642       4.76742337       9.10315042       1.00000000      -0.00843453       0.00938318       0.00066973
O        0.36425292       5.68598437       9.16871293       1.00000000       0.00843453      -0.00938318      -0.00066973
