52
Lattice="12.336457 0.0 0.0 -6.168228499999997 10.683685154694365 0.0 0.0 0.0 15.0" Properties=species:S:1:pos:R:3:initial_magmoms:R:1:forces:R:3 energy=-449.36670463979783 free_energy=-449.36670463979783 stress="3.068198027132155e-05 -0.0006339978546996568 -8.658621482802241e-05 -0.0006339978546996568 -0.0038521539601396684 -6.890543072089483e-05 -8.658621482802241e-05 -6.890543072089483e-05 0.00037438895125942493" pbc="T T T"
C        0.28112901       0.02551186       3.82823212       0.00000000       0.02680188       0.01220052      -0.00957333
C       -0.94769995       2.17140788       3.87974888       0.00000000       0.03684095      -0.00400551       0.01555224
C       -2.17199389       4.32207830       3.84914232       0.00000000       0.01856222      -0.00908979      -0.00653216
C       -3.39036850       6.45710005       3.81502464       0.00000000       0.00611870       0.00175657      -0.00181154
C       -4.65649014       8.57322448       3.77607540       0.00000000       0.00551183       0.00045769       0.00715189
C        2.75816344       0.02685672       3.92781256       0.00000000       0.01926915       0.00749508      -0.00956300
C        1.50871977       2.14141847       4.06596857       0.00000000       0.00128530      -0.00645853      -0.01021927
C        0.27617094       4.27411983       3.88034494       0.00000000       0.01155065       0.00004470      -0.02672622
C       -0.91211232       6.45916249       3.65756274       0.00000000       0.00791199      -0.01365850       0.01641763
C       -2.16156038       8.58716684       3.72510617       0.00000000       0.00296179       0.01184019      -0.01147242
C        5.22837358       0.04437627       3.79494800       0.00000000      -0.00566297       0.02894916       0.02130088
C        3.99889644       2.16278506       4.11900389       0.00000000      -0.01640782       0.00007930      -0.04145984
B        2.73355286       4.31769104       4.30459215       0.00000000      -0.02284027      -0.03843358       0.00170265
P        1.58939207       6.34275582       2.35010415       0.00000000       0.01745034      -0.00249253       0.03578840
C        0.29493386       8.62710603       3.40217628       0.00000000      -0.02578267      -0.00245168      -0.01869874
C        7.68959952       0.08843344       3.58419228       0.00000000      -0.02712504      -0.02348631      -0.00011788
C        6.46267301       2.18297854       3.93491555       0.00000000      -0.01045127      -0.01456514       0.00896294
C        5.25684166       4.29630339       4.24409903       0.00000000      -0.02367622       0.00367940       0.01049704
S        3.85776166       6.37804675       2.32034918       0.00000000      -0.02463734       0.04938307       0.02793191
C        2.78056559       8.72742503       3.03284281       0.00000000       0.00524714      -0.04265086       0.01985672
C       10.17106677       0.07375252       3.59702789       0.00000000      -0.00944333      -0.02586757       0.01223279
C        8.92803482       2.19636022       3.81140502       0.00000000      -0.00666062      -0.00766207       0.01142166
C        7.70168749       4.32500002       3.95928477       0.00000000      -0.01324216       0.02653669       0.01959933
C        6.47479244       6.46805326       3.98554867       0.00000000      -0.01642557       0.02259975       0.00783903
C        5.22003475       8.58396657       3.43500326       0.00000000       0.01310528       0.02914201      -0.01411145
C        0.27430453       1.44112952       3.93842683       0.00000000       0.03125321       0.01218230       0.01565779
C       -0.95643602       3.59121111       3.88309997       0.00000000       0.01922810      -0.02447720       0.00597545
C       -2.15148999       5.74959058       3.78581163       0.00000000       0.00575783       0.00044340       0.02441298
C       -3.40176001       7.87499090       3.78204601       0.00000000      -0.00893235       0.01158341      -0.01725791
C       -4.65108962       9.99807601       3.84580028       0.00000000       0.03147346       0.01072272      -0.02042027
C        2.75719831       1.44561022       4.06314147       0.00000000       0.00785635       0.02547828      -0.02971613
C        1.46681363       3.54947906       4.07080362       0.00000000       0.00168722       0.00346028      -0.00597601
C        0.32768909       5.69814652       3.65453283       0.00000000       0.02126306      -0.00781606      -0.01427191
C       -0.91671905       7.88289979       3.58246830       0.00000000      -0.00782568      -0.02831534      -0.00307275
C       -2.17139678      10.00775276       3.81614287       0.00000000       0.01035615       0.00787254       0.00962539
C        5.23125835       1.45913411       3.96447696       0.00000000      -0.00122031       0.02631832      -0.01913185
C        4.04272791       3.58463402       4.26422607       0.00000000       0.00052954      -0.00800603      -0.02359879
C        1.55255616       7.99713243       3.06175274       0.00000000      -0.00041396      -0.00390403       0.01523322
C        0.29237943      10.04144062       3.58527878       0.00000000      -0.02605164      -0.00093368       0.00393251
C        7.69484131       1.49013114       3.78394019       0.00000000      -0.02333606       0.00915229      -0.01002262
C        6.47483766       3.60506143       4.04548348       0.00000000       0.01540130      -0.01049052       0.02825481
C        5.30214672       5.73669790       4.47985204       0.00000000      -0.04239723       0.00629527       0.03287991
C        4.00058220       7.99574248       2.97708227       0.00000000       0.00878597      -0.01005487      -0.01941220
C        2.76611995      10.09863615       3.38960919       0.00000000      -0.01709087      -0.03183013      -0.02116982
C       10.16325278       1.48045928       3.77187321       0.00000000       0.00026309      -0.00668210       0.00630476
C        8.92931444       3.61743268       3.87518529       0.00000000       0.00051538      -0.01415282       0.02320535
C        7.69995324       5.75388173       3.92761755       0.00000000       0.00115979       0.00415085       0.02329211
C        6.43849167       7.85498098       3.71712828       0.00000000      -0.00091979       0.00384039       0.00592943
C        5.22397521      10.00807382       3.62304650       0.00000000       0.01384699       0.02489369      -0.00952087
Pt       2.44260040       6.30433399       4.55813519       0.00000000      -0.22239558      -0.22540282       0.23903964
O      -12.66853452       3.04070493       6.75124202       1.00000000       0.03672680      -0.00079039      -0.26609659
O        4.42584851       6.31042143       5.23700064       1.00000000       0.17421730       0.22312017      -0.04004490
