51
Lattice="12.336457 0.0 0.0 -6.168228499999997 10.683685154694365 0.0 0.0 0.0 15.0" Properties=species:S:1:pos:R:3:initial_magmoms:R:1:forces:R:3 energy=-443.0428712386797 free_energy=-443.0428712386797 stress="-0.003990193092676603 0.001293652275684725 -0.00011789287169541785 0.001293652275684725 -0.002295172356874923 -7.999818168239897e-05 -0.00011789287169541785 -7.999818168239897e-05 0.0004015996667909951" pbc="T T T"
C        0.27764564      -0.22792582       3.55017383       0.00000000      -0.01459669       0.00774022      -0.01482674
C       -0.96788424       1.89667830       3.68451655       0.00000000      -0.03411569      -0.03399385       0.01231645
C       -2.21464087       4.04087716       3.47778204       0.00000000      -0.01212065      -0.00014396       0.01507710
C       -3.43722609       6.18494978       3.33678538       0.00000000      -0.01918537      -0.00864632       0.02574380
C       -4.66673253       8.32309131       3.40725983       0.00000000      -0.00769344      -0.03234360      -0.02048170
C        2.74117471      -0.19031796       3.50092594       0.00000000      -0.02514692      -0.03538519       0.05108086
C        1.50764447       1.87809949       3.94013831       0.00000000       0.03997765       0.04511326       0.07454897
C        0.14666775       4.03756626       4.09766258       0.00000000      -0.04674577       0.01835700       0.03066646
C       -1.01608635       6.18534892       3.69332027       0.00000000      -0.00769637       0.02664529      -0.01499951
C       -2.20745978       8.33119213       3.48896856       0.00000000       0.01506483      -0.03501901      -0.01531700
C        5.20092204      -0.22101874       3.50073275       0.00000000      -0.03059012      -0.03038088       0.00176445
C        4.01023875       1.90691586       3.54138254       0.00000000       0.04449317      -0.03649226      -0.03000994
B        1.40993648       6.20620693       4.28057325       0.00000000       0.06616900       0.02268823       0.06492529
C        0.24882107       8.33321809       3.75720909       0.00000000       0.01202989       0.01448859      -0.04988767
C        7.67420561      -0.23230573       3.58279196       0.00000000      -0.02107386       0.02348794      -0.08126666
C        6.45202945       1.88573015       3.31205588       0.00000000       0.00758070      -0.01425090       0.02316450
C        5.25496627       3.98070643       3.30206664       0.00000000       0.04531495       0.02090377       0.04714086
B        4.04238791       6.14770952       3.88407150       0.00000000      -0.01538118      -0.05240960       0.03566069
C        2.73808628       8.33177031       3.82945612       0.00000000      -0.02694620       0.05241407      -0.08525922
C       10.14337271      -0.23315976       3.56859860       0.00000000       0.02872521       0.01391463       0.02777517
C        8.91605058       1.89537432       3.40699856       0.00000000      -0.01500408       0.02094285       0.01165485
C        7.68376617       4.03238956       3.22507106       0.00000000      -0.00319564       0.01229561      -0.01906424
C        6.44465967       6.15873843       3.34165704       0.00000000       0.01067664       0.01281868      -0.04347591
C        5.21080316       8.31829880       3.56837059       0.00000000      -0.02943486      -0.02944625      -0.00239101
C        0.28899061       1.19535750       3.72750598       0.00000000       0.00975860       0.02502185      -0.00617317
C       -1.00355409       3.32400854       3.74999715       0.00000000      -0.03515415      -0.03755286      -0.01520847
C       -2.22150947       5.46720288       3.46216873       0.00000000      -0.02073814       0.01891338       0.04205434
C       -3.43603761       7.61314113       3.39565494       0.00000000       0.01116129      -0.03607646      -0.03633819
C       -4.65620821       9.75774974       3.47798539       0.00000000      -0.02794764      -0.04426884       0.01298168
C        2.74356700       1.24771429       3.66239120       0.00000000       0.02383778      -0.01258289       0.02738451
B        1.35094094       3.21950156       4.72130055       0.00000000      -0.00749961      -0.03892583       0.07152420
C        0.13514570       5.42863689       4.01737225       0.00000000       0.01414475       0.01734675      -0.04516482
C       -0.98898568       7.61599307       3.64704442       0.00000000       0.02149068       0.00893445       0.02003077
C       -2.20371185       9.76604846       3.47985731       0.00000000      -0.02461192      -0.03996003       0.04002167
C        5.20698401       1.20264901       3.41439768       0.00000000       0.02985057      -0.03423716       0.05618956
O        4.07306320       3.28283363       3.52107019       0.00000000       0.05746350      -0.03297918      -0.01360212
C        1.48501025       7.66033616       3.94967037       0.00000000       0.00194013       0.02618503      -0.02916006
C        0.26191161       9.75117944       3.61488010       0.00000000      -0.02287146       0.01140970      -0.06963568
C        7.67784249       1.18443138       3.41447012       0.00000000      -0.00869027       0.00043116      -0.04314482
C        6.45787202       3.29541088       3.20222336       0.00000000       0.02019359      -0.01650522       0.02333295
C        5.25326419       5.38608590       3.41517469       0.00000000       0.02492500       0.02205216      -0.00826507
C        3.97898891       7.63874529       3.76966621       0.00000000      -0.04588036      -0.02681041      -0.09036303
C        2.73994741       9.74685362       3.65737838       0.00000000       0.00670412       0.07550857      -0.00267179
C       10.14885424       1.18962786       3.52892941       0.00000000      -0.03010022       0.00465356       0.00300499
C        8.91187226       3.31951008       3.32688032       0.00000000       0.00238333       0.02682694       0.03738377
C        7.67845122       5.45632267       3.25869824       0.00000000      -0.02305656       0.01032787      -0.03350009
C        6.44000830       7.59650088       3.43244476       0.00000000      -0.02483987      -0.00198457       0.00308573
C        5.21232265       9.74602003       3.54707002       0.00000000       0.00005754      -0.00396843       0.02608437
Pt       2.82315006       4.99476495       4.85835643       0.00000000      -0.02323158       0.08484330       0.79071627
O      -10.14981814      17.67409571      13.39233579       1.00000000       0.00004603       0.00044589      -0.00120459
O        1.89666430       3.47959558       5.92885059       1.00000000       0.10955970       0.00965296      -0.80390277
