52
Lattice="12.336457 0.0 0.0 -6.168228499999997 10.683685154694365 0.0 0.0 0.0 15.0" Properties=species:S:1:pos:R:3:forces:R:3 energy=-452.1077790151425 free_energy=-452.1077790151425 stress="-0.006945218112222522 0.0024752055446988133 4.403062724858493e-06 0.0024752055446988133 0.00021751009704653213 -7.680845632710363e-06 4.403062724858493e-06 -7.680845632710363e-06 1.6554410481350544e-05" pbc="T T T"
C       -0.06357502      -0.05331066       3.68960610      -0.00276277      -0.00120982       0.00346453
C       -1.30271286       2.07491695       3.45765251      -0.00864573       0.00054148       0.00634089
C       -2.54639886       4.22524131       3.69050052      -0.00090215       0.00318778       0.00444567
C       -3.76839667       6.36393234       3.95797445      -0.00497171       0.00416253      -0.00246955
C       -5.00799158       8.50592506       3.96364951       0.00021422       0.00260258       0.00618810
C        2.40313890      -0.02502512       3.77811671      -0.00297081       0.00443970       0.00042984
C        1.18946215       2.02965538       3.27472689       0.00588192      -0.00278049       0.00612388
C       -0.20864220       4.28970513       3.10292854      -0.00215907       0.00225154      -0.00198953
C       -1.35760775       6.39506434       3.64189304      -0.00396486      -0.00615794      -0.00530028
C       -2.55128907       8.51954268       3.87420475       0.00436668       0.00460689       0.00718688
C        4.87688580      -0.04253437       3.86511870       0.00184848      -0.00433616       0.00123609
C        3.66706539       2.12978824       3.75302524       0.00730288       0.00323949       0.00183830
C        1.07610455       6.36845073       3.46260658       0.00159846      -0.00522179       0.00044340
C       -0.07911609       8.49206646       3.78207398       0.00253738      -0.00256331       0.00184603
C        7.35169578      -0.07601999       3.83528881       0.00758113       0.00425248      -0.00061319
C        6.14292418       2.05454416       3.99272027      -0.00594149       0.00167987       0.00061889
C        4.96726466       4.18965787       4.20254524       0.00081639       0.00014165       0.00636459
B        3.67933772       6.38124660       4.72470495       0.00664408      -0.00883208       0.00798502
C        2.41309577       8.45816249       3.86098964      -0.00188745      -0.00386363      -0.00746718
C        9.81095166      -0.06764235       3.73884042       0.00367269      -0.00560341       0.01378434
C        8.59278608       2.06756317       3.81700263      -0.00682651      -0.00232204      -0.00934759
C        7.38712444       4.20437593       4.08672177       0.00589825      -0.00163137       0.00175155
C        6.13218170       6.34940803       4.21866345      -0.00547848      -0.00023292       0.00260320
C        4.86266054       8.48996839       3.99060227       0.00391041      -0.00148440      -0.01068790
C       -0.06295709       1.36260611       3.44546586      -0.00199422      -0.00019895       0.00447885
C       -1.34356561       3.51157248       3.39281359      -0.00638212       0.00651089      -0.00122366
C       -2.55671560       5.65426873       3.76565076      -0.00554247       0.00016520      -0.00106052
C       -3.77481570       7.79582930       3.94667661       0.00214875       0.00595279       0.00016012
C       -4.99894877       9.93365690       3.81273755      -0.00293095       0.00251088      -0.00508204
C        2.41545589       1.39975502       3.59637660       0.00956282       0.00264911       0.00777899
P        1.21713553       3.55759647       2.34585342       0.00604478       0.00078652       0.00345576
C       -0.15831119       5.69398664       3.35724608      -0.00169227      -0.00297040      -0.00468496
C       -1.32574658       7.80640377       3.77991573       0.00139627      -0.00394092       0.00136465
C       -2.53801661       9.94337936       3.85722975      -0.00275477       0.00363924       0.00700585
C        4.89527957       1.37673376       3.89117439       0.00160691      -0.00362970      -0.01095177
C        3.78462763       3.53223822       3.81584956      -0.00300312       0.00683493      -0.01553645
C        1.15437742       7.74725221       3.73024088      -0.00025900      -0.00699686      -0.00779954
C       -0.06258044       9.91034094       3.84812002       0.00904537       0.00030150      -0.00467629
C        7.36858399       1.34460997       3.89469387      -0.00662631       0.00467587      -0.00119538
C        6.18266678       3.46414779       4.15402161      -0.00031933       0.00424413      -0.00456588
C        4.96813258       5.58945858       4.38597764       0.00073662      -0.00252927       0.00616030
C        3.62720022       7.81123139       4.07906918       0.00178913       0.00823230      -0.00867323
C        2.41204958       9.89524923       3.80002820       0.00419774      -0.00321770      -0.00091490
C        9.81760325       1.36204160       3.66109019      -0.00667560      -0.00588029       0.00534439
C        8.59743061       3.49589366       3.88019251       0.00155906      -0.00406692      -0.00843406
C        7.36901640       5.63325358       4.10409467      -0.00335699       0.00072265      -0.00275937
C        6.10745420       7.78633588       4.08399683      -0.00082482      -0.00220956      -0.00736200
C        4.87529529       9.91629388       3.78675588       0.00238125      -0.00455223       0.00657722
Pt       2.59926887       5.08320453       3.33975232      -0.00507738       0.00260015       0.01114376
O        3.08767815       6.33244035       6.04181421       0.00329418      -0.00986800      -0.00477600
O        3.68542722       5.14979483       6.71992523       0.01477733       0.01867140       0.02100647
H        4.08102687       5.61275378       7.48878134      -0.01686279      -0.00330341      -0.01955626
