51
Lattice="12.336457 0.0 0.0 -6.168228499999997 10.683685154694365 0.0 0.0 0.0 15.0" Properties=species:S:1:pos:R:3:initial_magmoms:R:1:forces:R:3 energy=-443.99325354771474 free_energy=-443.99325354771474 stress="-0.0014991625827530104 -0.0003031742212311611 1.1959529519971306e-05 -0.0003031742212311611 -0.001483678229876973 2.1110767508354427e-05 1.1959529519971306e-05 2.1110767508354427e-05 0.00026168822667480923" pbc="T T T"
C        0.00790337       0.03202435       3.82125321       0.00000000       0.01062455       0.02857746      -0.02616432
C       -1.21902389       2.15692831       3.62501379       0.00000000       0.01414858      -0.00909340       0.02615963
C       -2.48869900       4.28487976       3.49077932       0.00000000       0.02207311       0.00377423      -0.00272522
C       -3.70946183       6.43127350       3.60080774       0.00000000      -0.01108009      -0.00854480       0.00327529
C       -4.93116370       8.56408511       3.73565018       0.00000000       0.00149803      -0.03530919       0.02189271
C        2.48774373       0.00145690       3.83825775       0.00000000      -0.01593122      -0.00902296      -0.00609468
C        1.26936144       2.17469127       3.92146501       0.00000000      -0.01651571       0.02419319      -0.03542266
C       -0.04001121       4.31017078       3.32559040       0.00000000      -0.05244834       0.00718482       0.01421525
C       -1.24927972       6.43263793       3.51437757       0.00000000      -0.00671135      -0.01052572       0.01908670
C       -2.45255751       8.55916781       3.69121482       0.00000000       0.02126424       0.00541262      -0.04660296
C        4.95105673       0.00726992       3.81642217       0.00000000       0.02085036       0.00212538      -0.01263591
C        3.72156639       2.09050675       4.15735086       0.00000000       0.01135526      -0.01754562      -0.01578117
B        1.12755552       6.41425299       4.15819249       0.00000000       0.05831637       0.01863639       0.01207667
C        0.02987809       8.56506847       3.72748832       0.00000000      -0.01842800       0.00992851      -0.02776782
C        7.41946484       0.02036097       3.78659150       0.00000000      -0.02674348      -0.01819141      -0.05696756
C        6.17226165       2.17352637       3.93051898       0.00000000       0.02171754      -0.02198148      -0.00733114
C        4.94939623       4.35457299       4.14437199       0.00000000       0.01580119       0.04213134      -0.01792463
O        3.77417094       6.46519433       3.72804567       0.00000000      -0.01960639      -0.03086997       0.05597133
C        2.49213866       8.53410475       3.77585258       0.00000000      -0.00073994       0.00597962       0.00497107
C        9.87958430       0.01478971       3.76254519       0.00000000      -0.02849786      -0.00890547      -0.04601756
C        8.63575382       2.15725847       3.69918291       0.00000000       0.00664068       0.01126981      -0.00288101
C        7.38848312       4.30049362       3.73113880       0.00000000      -0.01334060       0.00476174      -0.00032623
C        6.16588915       6.43462225       3.78732009       0.00000000       0.02247175       0.02646018      -0.00682106
C        4.94455186       8.55894863       3.78838500       0.00000000       0.00854203       0.01433941       0.01917048
C        0.00006002       1.45477692       3.79383060       0.00000000       0.01306048       0.02522681      -0.02880831
C       -1.26006266       3.56150175       3.44238755       0.00000000       0.01078475      -0.02307047       0.02115630
C       -2.49429388       5.71502529       3.49120377       0.00000000       0.00053824      -0.00194869       0.02845641
C       -3.69611710       7.85388004       3.66785534       0.00000000       0.01627217      -0.01290303      -0.01511828
C       -4.92382709       9.98779186       3.80419704       0.00000000      -0.01474039      -0.03157685      -0.02072181
C        2.52394495       1.41284944       3.98396603       0.00000000      -0.00816831       0.01083556      -0.01376523
S        1.37736806       3.53858745       2.55899205       0.00000000      -0.02032362      -0.02013460       0.03323110
C       -0.05093030       5.72669594       3.47225179       0.00000000      -0.00191618       0.01610518      -0.01700089
C       -1.22259870       7.85864532       3.65617612       0.00000000       0.00420025      -0.01034925      -0.02122470
C       -2.44573000       9.97905979       3.77944459       0.00000000       0.01370512       0.01323662       0.01573706
C        4.94615559       1.43572234       3.96999724       0.00000000       0.03501122      -0.02153552       0.04587201
B        3.79735608       3.51909627       4.80617545       0.00000000       0.00328098      -0.01430806      -0.01947313
C        1.25649581       7.87707512       3.79410346       0.00000000      -0.00462865       0.05390387       0.02813875
C        0.01915583       9.99616963       3.76132789       0.00000000      -0.00866424      -0.01207457       0.00959880
C        7.40160467       1.45578934       3.80418766       0.00000000       0.01172068      -0.01874979      -0.01058273
C        6.14496456       3.61737968       3.93764859       0.00000000      -0.00537097      -0.00657878       0.02123719
C        4.94407620       5.74724514       3.92135870       0.00000000       0.02973820       0.03773961       0.02841731
C        3.74630317       7.83679686       3.77657176       0.00000000       0.01098042      -0.00374938       0.01255737
C        2.48520364       9.97593433       3.76620090       0.00000000      -0.03477395      -0.00847327      -0.00339342
C        9.87414114       1.44347471       3.68603856       0.00000000       0.00357335      -0.00123115       0.02581787
C        8.61565000       3.57624112       3.62702501       0.00000000       0.01261318       0.02394065       0.01328715
C        7.39323020       5.71699370       3.69936207       0.00000000      -0.01802239       0.00017105      -0.01670317
C        6.17668737       7.85283083       3.75796542       0.00000000       0.00031342      -0.00276562       0.03042545
C        4.93932135       9.99107425       3.79474759       0.00000000      -0.00107774       0.02850428      -0.02591492
Pt       1.49811611       3.89670137       5.01975018       0.00000000      -0.02390810      -0.00298747       0.47356312
O        1.71187563       5.88805842       5.23999373       1.00000000      -0.04245160      -0.05570198      -0.02789296
O        3.29654622       3.72118216       6.03957440       1.00000000      -0.00700706       0.00369018      -0.43225154
