51
Lattice="12.336457 0.0 0.0 -6.168228499999997 10.683685154694365 0.0 0.0 0.0 15.0" Properties=species:S:1:pos:R:3:initial_magmoms:R:1:forces:R:3 energy=-436.6127907249058 free_energy=-436.6127907249058 stress="-0.0029915924530182687 -0.00339561059457123 0.00012655028234891767 -0.00339561059457123 -0.001562557236912445 -2.5805979139518126e-05 0.00012655028234891767 -2.5805979139518126e-05 0.00017348376862688972" pbc="T T T"
C        0.01991960      -0.00110001       3.82870691       0.00000000      -0.03587672      -0.00016196       0.01348183
C       -1.24292358       2.11980275       3.81880893       0.00000000      -0.00953689       0.05200244      -0.02995217
C       -2.48391456       4.27031654       3.68228806       0.00000000      -0.01767104       0.02920900      -0.09613878
C       -3.67840657       6.42213978       3.63304048       0.00000000       0.02520839       0.01322093      -0.02014796
C       -4.89824660       8.55863407       3.72225223       0.00000000      -0.01918337       0.02603676       0.00255033
C        2.49759973      -0.00873924       3.86201147       0.00000000       0.04390836      -0.02501832      -0.00622829
C        1.25194675       2.10520625       4.03873125       0.00000000      -0.00568293      -0.01342371      -0.00203223
C       -0.07401203       4.27389862       4.00279749       0.00000000      -0.01361952       0.06399842       0.04254181
C       -1.24260306       6.41433088       3.82292973       0.00000000       0.02359572       0.08185220      -0.01172443
C       -2.42674368       8.55143604       3.77211248       0.00000000      -0.04321481       0.01018443       0.00292897
C        4.95732162       0.01009688       3.66814102       0.00000000       0.00261435       0.01442613       0.08179183
C        3.67926155       2.10862891       3.55096923       0.00000000      -0.01075632      -0.04516316      -0.11856854
B        1.24135945       6.38182042       4.30285461       0.00000000       0.02585412       0.00007862       0.01467489
C        0.04825937       8.54241249       3.82773269       0.00000000      -0.01718546       0.02808528      -0.03205422
C        7.41776991       0.00761933       3.60699604       0.00000000       0.00330325      -0.02875908       0.05656775
C        6.15367424       2.17592813       3.44012206       0.00000000       0.02588877      -0.05058963      -0.06826859
C        4.99300101       4.40524836       3.13038468       0.00000000       0.01982765      -0.06579572       0.05483094
O        3.81376206       6.48741903       3.41324256       0.00000000       0.00740173       0.00195826      -0.05607852
C        2.52217855       8.53041233       3.73798987       0.00000000       0.02025695      -0.05361912      -0.01719734
C        9.88316066      -0.00150530       3.67262845       0.00000000      -0.03225777      -0.01400318       0.01351786
C        8.63225118       2.14536413       3.55879201       0.00000000       0.01012109      -0.03381182       0.06048328
C        7.40367313       4.30105342       3.45407407       0.00000000       0.01232147      -0.00355724      -0.04701818
C        6.22062665       6.46879499       3.42389752       0.00000000      -0.04647533      -0.01961778      -0.06417164
C        4.97102059       8.55995983       3.64411569       0.00000000       0.01581130       0.00004642      -0.07076273
C        0.01101201       1.42280200       3.92084480       0.00000000      -0.02207216       0.00614562      -0.00778122
C       -1.26206809       3.53977680       3.81168047       0.00000000      -0.03068198       0.06172170       0.07308906
C       -2.46926956       5.69603556       3.69649163       0.00000000       0.03344716       0.04066122       0.02253945
C       -3.66107317       7.84460816       3.71525645       0.00000000      -0.02936123       0.00934827      -0.02111166
C       -4.90760744       9.97533151       3.83632522       0.00000000       0.00576771       0.02429068      -0.01408632
C        2.48298714       1.41543793       3.87860231       0.00000000       0.00190217      -0.02310653      -0.02976973
B        1.24011937       3.57906137       4.35025319       0.00000000      -0.00273923       0.04332771       0.05334108
C       -0.06632383       5.66770962       4.00131477       0.00000000       0.02142749       0.07201971      -0.03648910
C       -1.19857115       7.83764591       3.81359470       0.00000000      -0.02914099       0.05991774       0.02071587
C       -2.43377574       9.97749711       3.77829882       0.00000000       0.02377464      -0.02025237      -0.02691520
C        4.93359395       1.45018089       3.53671622       0.00000000      -0.00546262      -0.01260278      -0.01149691
S        3.45062695       3.66778209       2.81406886       0.00000000       0.10080416       0.05699398       0.12549398
C        1.29150492       7.84739569       3.93696453       0.00000000      -0.01194776      -0.00376017      -0.02167382
C        0.02550617       9.97598316       3.68431752       0.00000000      -0.01164488       0.01942910       0.01802076
C        7.39067392       1.44706384       3.51935198       0.00000000       0.02411491      -0.04616692       0.00556169
C        6.15385908       3.61182518       3.33548203       0.00000000       0.04679319      -0.05894734      -0.08977886
C        5.02369110       5.80282056       3.22930479       0.00000000      -0.04026852      -0.05534784       0.05018613
C        3.76994951       7.85430270       3.60371897       0.00000000       0.04042093      -0.01403164       0.05107435
C        2.49241500       9.96362157       3.65194083       0.00000000      -0.00778924      -0.04854659      -0.00432834
C        9.86659924       1.42460540       3.67905915       0.00000000       0.02450375       0.00528264      -0.02619585
C        8.62919929       3.56995659       3.54882472       0.00000000      -0.01637574      -0.02097462       0.07037884
C        7.43094785       5.72006208       3.48984863       0.00000000      -0.01439742       0.01445912       0.03938622
C        6.21457772       7.87190192       3.59662482       0.00000000      -0.01250553      -0.00547830       0.02324118
C        4.95490106       9.98039106       3.72262127       0.00000000      -0.04069911      -0.00405768       0.02506279
Pt       2.45847616       5.00237771       5.02851609       0.00000000       0.09637569      -0.00920992       0.27704257
O        0.50888028       3.45016389       8.70592988       1.00000000       0.00395081       0.00844995      -0.01831668
O        3.92388500       5.51028395       5.94846360       1.00000000      -0.13284920      -0.06714288      -0.25021618
