53
Lattice="12.336457 0.0 0.0 -6.168228499999997 10.683685154694365 0.0 0.0 0.0 15.0" Properties=species:S:1:pos:R:3:forces:R:3 energy=-455.43515085666456 free_energy=-455.43515085666456 stress="-0.003326126614718661 -0.0009537014679929877 -6.9056182859370486e-06 -0.0009537014679929877 -0.004006600239181233 0.00010837022297016738 -6.9056182859370486e-06 0.00010837022297016738 8.969137014175504e-06" pbc="T T T"
C       -0.08939960      -0.03821123       3.71368104      -0.03278778      -0.01014135       0.03259387
C       -1.34441894       2.07642986       3.86455816       0.01163385       0.01431028      -0.00163317
C       -2.58584744       4.22000720       3.89659181       0.01216187       0.02027230      -0.02668440
C       -3.79941588       6.36579253       3.75144031       0.01094553      -0.03293364       0.03503826
C       -5.02866889       8.50133440       3.61900206      -0.02538460      -0.00792987       0.06960876
C        2.37244964      -0.04146511       3.83216761       0.00289448      -0.00401348      -0.03200414
C        1.12683957       2.08232664       4.02610326       0.00084373      -0.03196762       0.00407345
C       -0.14912320       4.17514988       4.16979342       0.00212095      -0.00403341      -0.01535626
C       -1.35062147       6.35665892       4.00213889      -0.00519431       0.04997663      -0.00718736
C       -2.55390878       8.49919881       3.81223886      -0.04573839      -0.02301121      -0.01587803
C        4.83527440      -0.03998422       3.80349908       0.01163247       0.00869199       0.01206701
C        3.60097823       2.10862041       3.93857816       0.01361905       0.02273253      -0.00542500
B        2.37416200       4.27764195       4.50721028       0.02545318      -0.02264756       0.01419606
P        1.40645487       6.26643358       4.45735873       0.01732664      -0.05312992      -0.01269262
C       -0.08695451       8.50662642       3.82067285       0.02349619      -0.01294421       0.03490071
C        7.29732111      -0.02799316       3.69619938       0.01204591      -0.01212240       0.02459159
C        6.06696328       2.08934966       3.79065997       0.00323745       0.04632547      -0.02425174
C        4.84270748       4.22873208       3.73822478      -0.01821488       0.01261659      -0.03704682
S        3.50211465       6.27290136       2.60927076       0.01339724       0.00557409      -0.00074523
C        2.38723705       8.56019968       3.51293852       0.00278486      -0.03254839      -0.00923856
C        9.78227338      -0.02875597       3.61948047      -0.01145474       0.04578860       0.03338107
C        8.53223199       2.09262171       3.76832058      -0.01716628       0.01404496      -0.04279572
C        7.30193204       4.22975625       3.73201199       0.00155810       0.00591593       0.02285542
C        6.07449962       6.36671470       3.49008319       0.00190781      -0.00434710      -0.00940302
C        4.85303424       8.51703096       3.41231175      -0.00640837       0.01632684      -0.02766278
C       -0.10461495       1.37237935       3.86885601      -0.01108789      -0.01388893       0.00845541
C       -1.37296446       3.48655903       3.98099322      -0.00656853       0.00713623       0.01287438
C       -2.58204914       5.64560424       3.89265180       0.02634573       0.02340609      -0.00730562
C       -3.79127767       7.79039943       3.72562053      -0.02963989      -0.03588314       0.00343277
C       -5.02591262       9.92919762       3.71812488      -0.01793409       0.00359338      -0.00544456
C        2.36838859       1.37756799       3.95159880       0.02271788      -0.00082399       0.00338389
C        1.08393666       3.48456356       4.22993786       0.00928956      -0.02126274      -0.03176324
C       -0.17662998       5.58798612       4.20255948      -0.00587816       0.00019407      -0.02283641
C       -1.32268041       7.78428730       3.89616952      -0.01305062       0.02996376       0.02027496
C       -2.56209210       9.92701580       3.81293744       0.00116937      -0.01814022       0.00520067
C        4.83516252       1.38203042       3.82965021       0.01998860       0.02803883       0.02652184
C        3.63358129       3.53388499       3.99902447       0.00617195       0.01489356       0.00215986
C        1.18265718       7.85438037       3.77539206       0.03677407      -0.00997560      -0.00721268
C       -0.09820774       9.93601712       3.75779770       0.01528146      -0.01801184      -0.01538077
C        7.29950048       1.38686496       3.74258620      -0.01643759      -0.00042741       0.02830366
C        6.07635162       3.51208311       3.75153132      -0.01796816       0.04877610       0.00124636
C        4.88600349       5.60884052       3.39047962       0.00620932       0.01397329       0.01922235
C        3.60806530       7.88405207       3.24418727       0.00439911      -0.04564408       0.00150552
C        2.37381862       9.96983631       3.59484112       0.01051926      -0.00875437      -0.02486684
C        9.76667163       1.38040923       3.74667578       0.00200492       0.04347155       0.00162089
C        8.52668638       3.51326183       3.80310241       0.00716535       0.00987747      -0.01392468
C        7.30468627       5.65450635       3.66655613       0.00947494      -0.01666255      -0.00516904
C        6.07978696       7.79119005       3.46852968      -0.01901029       0.00235226      -0.03128698
C        4.84939937       9.94102457       3.58144711      -0.04018834       0.01782797      -0.01785868
Pt       2.71712956       5.62793030       5.98121591      -0.01207925       0.01795415       0.03825802
O        4.57698405       5.92597180       6.24202648       0.01353120       0.04213787       0.04877351
O        4.76231725       7.40468176       6.37263993       0.02045165      -0.12396132       0.02025700
H        5.27620339       7.36798169       7.21029676      -0.02636150      -0.00096642      -0.07374293
