52
Lattice="12.336457 0.0 0.0 -6.168228499999997 10.683685154694365 0.0 0.0 0.0 15.0" Properties=species:S:1:pos:R:3:forces:R:3 energy=-447.10666012098227 free_energy=-447.10666012098227 stress="-0.0042676810274681135 0.003176652525438079 -1.5953464622219863e-05 0.003176652525438079 -0.0005038352564798678 1.5832054636338904e-05 -1.5953464622219863e-05 1.5832054636338904e-05 -3.5812089339892775e-06" pbc="T T T"
C       -0.00176485       0.01118343       3.71702670      -0.00195320       0.00266669      -0.00000038
C       -1.23339440       2.13714600       3.68654878      -0.00161471      -0.00198318      -0.00000530
C       -2.49794991       4.27671604       3.48873349       0.00595846      -0.00175738       0.00310462
C       -3.73536253       6.41764075       3.44111355       0.00487806      -0.00037242      -0.00583081
C       -4.95855050       8.55262970       3.57906901      -0.00719759      -0.00467383       0.00371039
C        2.46585643       0.03121958       3.65029300       0.00037646      -0.00141729       0.00525056
C        1.25999858       2.15809347       3.91787294       0.00089262       0.00702630       0.00105155
C       -0.10916185       4.30427394       3.89982927       0.00563881       0.00054150      -0.01214330
C       -1.30393555       6.43504446       3.68108338       0.00415684      -0.00059362       0.00202936
C       -2.49663621       8.56343094       3.57841536       0.00294310       0.00291224       0.00686428
C        4.92701265      -0.00035321       3.58132106      -0.00066017      -0.00206358      -0.01165678
C        3.74847924       2.12507694       3.63151600       0.00222443       0.00209316       0.00163479
B        1.15105480       6.40635413       4.32538779      -0.00202943       0.00285619      -0.01392775
C       -0.02537886       8.55684083       3.79322276      -0.00050142      -0.00360891      -0.00637234
C        7.40410723      -0.01030940       3.62441861      -0.00965325       0.00153402      -0.00480487
C        6.18424178       2.11011788       3.41058324      -0.00231982      -0.00301481      -0.00451301
C        4.98245857       4.21188740       3.47488893       0.00591776       0.01012852       0.00452237
B        3.69732208       6.32198485       4.07713262      -0.00183618      -0.00131684      -0.00136712
C        2.45508572       8.55068967       3.91956667       0.00340337      -0.00182281       0.00072274
C        9.86892250      -0.00255684       3.68766706      -0.00365352      -0.00716460       0.00776205
C        8.64355254       2.12537008       3.47286924       0.00616609       0.00372504      -0.00060612
C        7.39773246       4.26490697       3.34322026      -0.00587831       0.00279233      -0.00173689
C        6.14525413       6.38565145       3.52103324      -0.00691239       0.00350985       0.00756896
C        4.91783831       8.53441011       3.76146688      -0.00468488      -0.00487145      -0.01148564
C        0.01754067       1.44899255       3.78749503      -0.00069279       0.00496866       0.00186776
C       -1.27408736       3.55840670       3.66047361       0.00476590      -0.00222921      -0.00182453
C       -2.51518864       5.70538530       3.49889307       0.00808571      -0.00271476      -0.00093513
C       -3.72966731       7.84489299       3.51568235       0.00079923       0.00192049       0.00365103
C       -4.94033981       9.98690574       3.65683448      -0.00243318      -0.00298703       0.00131959
C        2.49362074       1.46553051       3.75018124      -0.00059647       0.00171328       0.00069017
B        1.20532351       3.63859666       4.25567582       0.00187467       0.00643252       0.00525433
C       -0.13460919       5.69934887       3.92590064       0.00238632      -0.00064562      -0.00091371
C       -1.27407590       7.85787614       3.68525124       0.00062592      -0.00149857       0.00818575
C       -2.48355277       9.99182401       3.59768849       0.00223658       0.00170879       0.00006287
C        4.94660639       1.42010148       3.51182656      -0.00164537      -0.00420586       0.00020275
O        3.80314519       3.50043917       3.64428155       0.01214840       0.00494215       0.00879736
C        1.20524163       7.87759382       4.01180162       0.00163917       0.00519706      -0.00302952
C       -0.00915195       9.97295433       3.65393627      -0.00655917      -0.00524807      -0.00805774
C        7.40926990       1.40909922       3.47648798       0.00235786       0.00435909      -0.00029174
C        6.18200104       3.52353527       3.34091030      -0.00496171       0.00034399      -0.00453966
C        4.95122327       5.61086158       3.61826884      -0.00475689       0.00907499       0.00358979
C        3.68308788       7.83431473       3.92418380       0.00155653      -0.00588479       0.00674030
C        2.46575223       9.97205959       3.73683830      -0.00853609      -0.00075933       0.01215901
C        9.87490888       1.42013569       3.59809319       0.00090802      -0.00536048       0.00282567
C        8.62832284       3.55216086       3.39950610       0.00102734       0.00521181       0.00255276
C        7.37937909       5.68800845       3.39318740      -0.00581960       0.00437967       0.00262615
C        6.14641110       7.82092297       3.62377740      -0.00889780      -0.00283776      -0.00056869
C        4.93269987       9.97283280       3.72640397      -0.00133459      -0.00465268      -0.00830961
Pt       2.42996408       5.06673559       5.06468946       0.01202317      -0.01033969      -0.00708471
O        3.07576747       4.72033669       8.09767516      -0.00562997      -0.00835461       0.00003452
O        2.44374515       5.10709650       9.24253109      -0.00099722      -0.00696022       0.00925491
H        3.13410873       5.14999833       9.94451816       0.00676484       0.00930109      -0.00403104
