52
Lattice="12.336457 0.0 0.0 -6.168228499999997 10.683685154694365 0.0 0.0 0.0 15.0" Properties=species:S:1:pos:R:3:forces:R:3 energy=-450.31932724957653 free_energy=-450.31932724957653 stress="-0.008329604575219998 0.0007138425746942849 4.720920938305095e-05 0.0007138425746942849 -0.0014033475110810725 2.6512891238074792e-05 4.720920938305095e-05 2.6512891238074792e-05 -1.3657175309719993e-05" pbc="T T T"
C        0.00598861       0.02036054       3.86674538      -0.01110695      -0.00067740       0.01100739
C       -1.24006367       2.12136020       4.00732719       0.00073343       0.00550765       0.00182075
C       -2.47965075       4.26772002       4.17366249       0.00693630      -0.00093817       0.00227451
C       -3.69866943       6.42349110       4.11001732       0.00487529      -0.00014810       0.00393776
C       -4.92781620       8.57125065       3.94113881       0.00932161      -0.00359494      -0.00165537
C        2.47031225       0.03435189       3.80163567      -0.01199738      -0.00630034      -0.00729454
C        1.22130409       2.18336498       3.62277118      -0.00050699      -0.00015426      -0.00226883
C       -0.06569716       4.26659317       3.89500076      -0.00114079       0.01050037      -0.01009693
C       -1.26828980       6.43160173       4.11200811       0.00645842      -0.00714680       0.00487501
C       -2.47709694       8.57367413       4.03634358      -0.00019223      -0.00420682       0.00054361
C        4.94233751      -0.00438660       3.80497229       0.00485303       0.00531042       0.00477040
C        3.72778647       2.05306950       3.25697157       0.00727817       0.00796448       0.00233143
C        1.09448283       6.40186509       3.57731626       0.01077914      -0.00651305       0.00351537
C       -0.01006858       8.53470747       3.89540191      -0.00725664       0.00026502       0.00688826
C        7.40920781      -0.02683540       3.86707143       0.00821839       0.01069976      -0.00103782
C        6.20919816       2.10906298       3.63431386      -0.00994649       0.00872298      -0.00670310
C        5.17107434       4.28837397       3.08623607      -0.00518330      -0.00524132      -0.01572487
B        3.79262739       6.41398246       3.22657830      -0.00114134      -0.00601360       0.00055222
C        2.46552276       8.52123527       3.68141653      -0.00126924      -0.00203450       0.00896119
C        9.86848220      -0.01919377       3.90437689       0.00650807      -0.00462936      -0.00888214
C        8.63952483       2.11620911       4.00899477      -0.00433825      -0.01139584      -0.00052078
C        7.44252589       4.26660696       3.89547080      -0.00345479      -0.00011840       0.00182979
C        6.23825142       6.42473849       3.70310044      -0.00180586       0.00657690      -0.00195509
C        4.95461889       8.55954555       3.72808657       0.01208539       0.00518935      -0.00168454
C       -0.00240448       1.44254219       3.84778170      -0.00340020      -0.00074668       0.00909044
C       -1.26605030       3.54055059       4.09271004       0.00895299       0.00766250       0.00640660
C       -2.48136065       5.70249497       4.18243065       0.00531497      -0.00052656       0.00863719
C       -3.70184712       7.85561955       4.05625625       0.00692342      -0.00659468      -0.00286587
C       -4.92521376      10.00017968       3.88136221      -0.01452800      -0.00691896       0.01092116
C        2.47602139       1.44870909       3.54371502       0.00567391       0.00159359      -0.00418962
C        1.09190223       3.58147139       3.52707775      -0.01305859      -0.00545204       0.00318496
C       -0.06852241       5.70727735       3.91067345       0.00515200       0.00076088      -0.00176454
C       -1.24764808       7.85268149       4.03919748      -0.00447005      -0.00785452       0.00214712
C       -2.46962030       9.99338470       3.88872537      -0.00218013       0.00010515       0.00043102
C        4.96286404       1.40145279       3.55938081       0.00137051       0.00849459       0.00424990
P        3.85772276       3.48101969       2.18162314       0.00676817       0.00027166      -0.00329520
C        1.21863837       7.79557366       3.71403075      -0.00623458      -0.00568395       0.00066545
C        0.00185286       9.95482807       3.86985595       0.00894972       0.00731779      -0.00254727
C        7.41434674       1.40075774       3.86553833      -0.01236707       0.00605380      -0.00140433
C        6.26846180       3.53528392       3.54072608      -0.00960524       0.00071076      -0.00247591
C        5.11331983       5.68241095       3.29475316       0.00550652      -0.00375255      -0.01655694
C        3.71503313       7.87165620       3.55127458       0.00897999       0.00200872       0.00878575
C        2.46708284       9.94209528       3.83917256       0.00648548       0.00403832       0.00387364
C        9.86458309       1.40113658       4.01171465       0.00302680      -0.00711154       0.00812984
C        8.64104072       3.54549456       4.07901353       0.00297819      -0.00606288      -0.00735481
C        7.43767527       5.69864579       3.93821621      -0.00102291       0.00778420      -0.00646017
C        6.19160433       7.85102987       3.79904154       0.00990671       0.00867524       0.00170222
C        4.94447961       9.97711857       3.85575449       0.00115298       0.00005895      -0.00450508
Pt       2.39408063       5.03519463       2.89222456      -0.01150936       0.00748047      -0.00639069
O        1.88664744       4.95281204       6.45730106      -0.00412386      -0.01106624      -0.00592702
O        2.26028169       4.93663826       7.75481151      -0.01130418      -0.00119805      -0.00211649
H        3.23787139       5.05527052       7.78415047      -0.01204522      -0.00167198       0.00414493
