51
Lattice="12.336457 0.0 0.0 -6.168228499999997 10.683685154694365 0.0 0.0 0.0 15.0" Properties=species:S:1:pos:R:3:initial_magmoms:R:1:forces:R:3 energy=-436.7082488922328 free_energy=-436.7082488922328 stress="-0.007200542430876266 0.0033407144546194 -1.5273893430436704e-06 0.0033407144546194 -0.0019566593890277305 -3.6462919155582914e-06 -1.5273893430436704e-06 -3.6462919155582914e-06 5.506500533481899e-05" pbc="T T T"
C       -0.01608775       0.01006253       3.75398634       0.00000000      -0.00084594       0.00065994      -0.00607046
C       -1.23703175       2.16294957       3.84967465       0.00000000       0.00163524      -0.00097245      -0.00042609
C       -2.46462794       4.30136504       3.65701676       0.00000000       0.00391942       0.00463712       0.00073676
C       -3.70341492       6.43594435       3.48422284       0.00000000      -0.00026965      -0.00206173      -0.00176868
C       -4.96256768       8.56613395       3.50638564       0.00000000       0.00107408      -0.00299761      -0.00229395
C        2.44783842       0.01088949       3.77812904       0.00000000       0.00345585      -0.00206017      -0.00170021
C        1.22632344       2.13307057       4.05680780       0.00000000       0.00427629      -0.00060191      -0.00104996
C       -0.05880888       4.37770477       3.96826738       0.00000000      -0.00520843      -0.00093019       0.00419887
C       -1.27086091       6.46322847       3.66799843       0.00000000      -0.00191318      -0.00216362      -0.00719011
C       -2.49068643       8.57501432       3.61831941       0.00000000      -0.00094058      -0.00146912       0.00128801
C        4.92675897       0.01216504       3.74272342       0.00000000       0.00003538       0.00517900       0.00048468
C        3.70850219       2.11511799       3.90742975       0.00000000      -0.00368107       0.00039472      -0.00161979
O        1.09609037       6.49581347       3.95424133       0.00000000       0.00213225      -0.00080124       0.00346629
C       -0.02523678       8.56327552       3.70224141       0.00000000      -0.00152314      -0.00185154       0.00187372
C        7.39801292       0.00284593       3.75254847       0.00000000      -0.00036203      -0.00257828      -0.00397041
C        6.18940253       2.13944163       3.69724307       0.00000000      -0.00184407      -0.00264755       0.00267321
C        5.03176526       4.30406694       3.46084859       0.00000000       0.00045337      -0.00038903      -0.00578871
S        3.57042336       6.35237823       2.51168290       0.00000000      -0.00532945       0.00237428      -0.00077295
C        2.42416772       8.52802091       3.63145744       0.00000000       0.00553886       0.00274549       0.00027090
C        9.85919211       0.00208348       3.73536199       0.00000000      -0.00363757       0.00154464       0.00227396
C        8.64599814       2.14724089       3.70190624       0.00000000       0.00103095       0.00312860      -0.00111291
C        7.44088309       4.28416281       3.48310990       0.00000000       0.00178541      -0.00041766       0.00045071
C        6.19932670       6.43541828       3.23008634       0.00000000      -0.00012026       0.00107460      -0.00072387
C        4.90443999       8.55279944       3.43111269       0.00000000      -0.00023721      -0.00011423       0.00610521
C       -0.00827694       1.43893107       3.90740309       0.00000000       0.00292664       0.00239608      -0.00136516
C       -1.24023973       3.60247015       3.82638240       0.00000000      -0.00186376      -0.00088204       0.00205028
C       -2.48106029       5.72225081       3.59407716       0.00000000      -0.00084398      -0.00060095       0.00075510
C       -3.72289833       7.86071366       3.52066363       0.00000000      -0.00010535      -0.00170387       0.00169771
C       -4.95494374       9.98664683       3.68209120       0.00000000       0.00082971      -0.00081608      -0.00160769
C        2.45904002       1.43217368       3.94066147       0.00000000       0.00266305      -0.00272829      -0.00232273
B        1.19808437       3.62543300       4.31655697       0.00000000      -0.00345974       0.00071597       0.00008810
C       -0.08185522       5.77837530       3.84049401       0.00000000      -0.00124701      -0.00061027       0.00144658
C       -1.26815648       7.87346676       3.65294495       0.00000000      -0.00279527      -0.00259707      -0.00267139
C       -2.48679178       9.99567743       3.70834283       0.00000000       0.00359534      -0.00111059       0.00440753
C        4.94375941       1.43167105       3.78131779       0.00000000      -0.00395668       0.00154427      -0.00045474
B        3.81150765       3.60382007       3.99476733       0.00000000       0.00487279      -0.00025313       0.00397140
C        1.16549475       7.86473237       3.71617487       0.00000000       0.00308414       0.00118324      -0.00374426
C       -0.00894276       9.99001941       3.72710460       0.00000000      -0.00158131      -0.00109019       0.00019079
C        7.41203518       1.43137506       3.71833144       0.00000000       0.00092814      -0.00116602       0.00031009
C        6.22193317       3.55994319       3.54178296       0.00000000      -0.00019566      -0.00001933      -0.00151510
C        5.03450992       5.66719778       3.10192905       0.00000000      -0.00308922       0.00513164       0.00295534
C        3.65774580       7.88836800       3.31117640       0.00000000       0.00165944       0.00042406       0.00263530
C        2.45229103       9.95991849       3.72921178       0.00000000      -0.00050061      -0.00082120       0.00576027
C        9.87237666       1.43756420       3.77104094       0.00000000      -0.00141106      -0.00011210      -0.00133475
C        8.65500553       3.57195918       3.60990627       0.00000000       0.00464493       0.00440046      -0.00243110
C        7.42534041       5.71016503       3.38830972       0.00000000       0.00112166      -0.00235780       0.00301345
C        6.15022139       7.85553843       3.34530834       0.00000000       0.00138834      -0.00097904      -0.00194942
C        4.92003696       9.97827296       3.65928256       0.00000000      -0.00337200       0.00009196      -0.00089617
Pt       2.62059153       4.85127040       4.88385908       0.00000000      -0.00197288      -0.00284811       0.09541265
O        2.54302873       2.66224769       9.88530345       1.00000000       0.00037290       0.00086396       0.00056623
O        2.91077826       6.12841622       6.09524823       1.00000000      -0.00111706       0.00426238      -0.09430255
