53
Lattice="12.336457 0.0 0.0 -6.168228499999997 10.683685154694365 0.0 0.0 0.0 15.0" Properties=species:S:1:pos:R:3:forces:R:3 energy=-461.1978871648312 free_energy=-461.1978871648312 stress="-0.004140881256525802 2.3910495438234668e-05 1.0935512093812202e-05 2.3910495438234668e-05 -0.00447415790972032 -4.121775567628061e-06 1.0935512093812202e-05 -4.121775567628061e-06 -8.550342544991122e-06" pbc="T T T"
C        0.00201497      -0.07976438       3.61331813       0.00350968       0.00636076       0.00293604
C       -1.23530098       2.05327633       3.61277766      -0.00212018       0.00146652      -0.00432914
C       -2.46864300       4.19120935       3.61708341       0.00286201      -0.00734083       0.00025769
C       -3.69720788       6.32815058       3.62131031       0.00148535       0.00591964       0.00400268
C       -4.93264135       8.46523515       3.63823850      -0.00705092       0.00011414       0.00801655
C        2.47048864      -0.07986962       3.64375365       0.00085779      -0.00709559       0.00400269
C        1.22679782       2.04624167       3.81198368      -0.00215684       0.00086975      -0.00285919
C       -0.02635992       4.17639993       3.94567343       0.00487260      -0.00074179      -0.00154021
C       -1.24161372       6.32624046       3.82004697       0.00329770      -0.00053825       0.00297103
C       -2.46179300       8.46508789       3.64694088      -0.00245658       0.00359825       0.00315208
C        4.93894606      -0.07982308       3.61875550       0.00330496       0.00309921       0.00223030
C        3.71383237       2.04660655       3.80500712       0.00165643      -0.00061506       0.00497851
B        2.47231597       4.12380717       4.48930501      -0.00844801      -0.01019958       0.00344109
B        1.18006963       6.37245224       4.48468819      -0.00523194      -0.00275770       0.00057857
C        0.00175400       8.47933425       3.81281726       0.00318644       0.00221521      -0.00177508
C        7.40420923      -0.07399591       3.60545890      -0.00477560       0.00698820      -0.00110354
C        6.17598692       2.05337839       3.60564027       0.00686963      -0.00696050      -0.00139423
C        4.96692346       4.17677128       3.92846436       0.00124356       0.00190651      -0.00037490
B        3.76458554       6.37245868       4.47260093       0.00133664      -0.00007571      -0.00100325
C        2.47091558       8.50368123       3.92739517       0.00053339       0.00066999       0.00095900
C        9.87346195      -0.07364739       3.60018599      -0.00355789      -0.00221151       0.00531607
C        8.63865650       2.05689697       3.52091804       0.00148185       0.00103885       0.00824855
C        7.41021140       4.19108975       3.60811226      -0.00640609      -0.00136104       0.00434023
C        6.18290301       6.32623611       3.80424798      -0.00129322       0.00131079       0.00226193
C        4.93917290       8.47909746       3.79675917       0.00407019      -0.00319855       0.00729281
C       -0.00352577       1.33955670       3.65414477      -0.00247092       0.00657256      -0.00402202
C       -1.24447055       3.47312873       3.69717300       0.00780932      -0.00084419      -0.00612218
C       -2.46939173       5.61486716       3.66098339       0.00352943      -0.00314643       0.00154833
C       -3.69706922       7.75275836       3.62607820      -0.00594849       0.00790378      -0.00017515
C       -4.93225720       9.89053646       3.62203358      -0.00158230      -0.00181420      -0.00145776
C        2.47037519       1.33535301       3.75984491      -0.00194569      -0.00298407      -0.00891880
C        1.18631586       3.44354836       4.04983925      -0.00240114      -0.00333411      -0.00106611
C       -0.05160440       5.59290467       4.05581293       0.00318771      -0.00306196      -0.00380616
C       -1.23469747       7.75751059       3.76714940       0.00073890       0.00248642      -0.00521708
C       -2.46303347       9.89038209       3.62698235       0.00448546       0.00030288       0.00001412
C        4.94429861       1.33973504       3.65025265       0.00460060       0.00020849      -0.00612756
C        3.75474185       3.44427385       4.03818225       0.00123014       0.00093189       0.00714868
C        1.23268401       7.82271244       4.04966224       0.00194040      -0.00151145       0.00142109
C        0.00278371       9.89880659       3.65353207       0.00051372       0.00364471      -0.00514425
C        7.40648714       1.34576876       3.54134650       0.00621211       0.00199431      -0.00287221
C        6.18518932       3.47351455       3.68303455      -0.00296588      -0.00769054      -0.00350416
C        4.99292691       5.59271712       4.03780937      -0.00184597       0.00326072      -0.00080170
C        3.70941861       7.82259360       4.03909740       0.00144149      -0.00098488       0.00431024
C        2.47082721       9.90796956       3.67736895      -0.00907741       0.00177799      -0.00712762
C        9.87077048       1.34616768       3.54199242      -0.00160243      -0.00104286      -0.00125630
C        8.63914459       3.47930234       3.54745904      -0.00338022      -0.00052233      -0.00542032
C        7.41118606       5.61466959       3.65208579      -0.00148891       0.00426083      -0.00330459
C        6.17604979       7.75763813       3.75151177      -0.00122259      -0.00378236      -0.00126164
C        4.93815586       9.89894978       3.64226105       0.00468298      -0.00090943       0.00132204
Pt       2.47849301       5.58497369       5.82558879       0.00153232      -0.00232149       0.00021137
O        2.52338267       7.35057945       6.74639523       0.00475178       0.00735625      -0.00496633
O        2.43528406       7.16845894       8.18996758      -0.01930234      -0.00093457       0.00140883
H        3.01085057       6.38533260       8.33618500       0.01150700       0.00172233       0.00458095
