52
Lattice="12.336457 0.0 0.0 -6.168228499999997 10.683685154694365 0.0 0.0 0.0 15.0" Properties=species:S:1:pos:R:3:forces:R:3 energy=-448.4486501321707 free_energy=-448.4486501321707 stress="-0.001244918550624527 0.004498725186808214 2.0971057103141188e-05 0.004498725186808214 0.006502326602576641 1.4714064782308266e-05 2.0971057103141188e-05 1.4714064782308266e-05 7.009887876995238e-06" pbc="T T T"
C       -0.07855249       0.08433077       3.88995307      -0.00250101      -0.00017942      -0.00174329
C       -1.30322150       2.20786378       3.82939595       0.00481857      -0.00320702      -0.00038177
C       -2.54115706       4.34030138       3.67533689       0.00299766      -0.00016401      -0.00103493
C       -3.79662922       6.47848232       3.65845417      -0.00781712       0.00253619       0.00733874
C       -5.03746812       8.62114575       3.79420222       0.00499856      -0.00381394       0.00485658
C        2.38526465       0.12702250       3.81299770      -0.00695180      -0.00414364       0.00128857
C        1.17493163       2.29774331       4.03257613       0.00717194       0.00673544       0.00378436
C       -0.09075920       4.37664480       3.97190439      -0.00952190      -0.00038450       0.01009731
C       -1.35003682       6.49774998       3.74957450      -0.00328753      -0.00237392      -0.00869165
C       -2.57304300       8.63103171       3.72950115       0.00589808       0.00302639      -0.00961393
C        4.85213011       0.06572472       3.68543354       0.00129419      -0.00008896       0.00237203
C        3.67507055       2.19900833       3.64130684      -0.00124747       0.00346095       0.00463225
O        1.00753404       6.52729246       4.03636794      -0.00468758      -0.00372838      -0.00244814
C       -0.10826094       8.60831813       3.78115746       0.00497703      -0.00252734       0.01278008
C        7.33179823       0.03082337       3.71560649       0.00602557       0.00444383       0.00038809
C        6.12372206       2.16679706       3.52165425      -0.00579689       0.00088182       0.00774089
C        4.92660697       4.26897186       3.50810492       0.00164179      -0.00415991       0.00806833
B        3.66177953       6.34629507       4.28284101       0.00203199       0.00271745       0.01075292
C        2.35522603       8.55370856       3.95011614       0.00247342      -0.00125095       0.00438510
C        9.78688548       0.03997326       3.83213480       0.00210925       0.00603379       0.00746612
C        8.57769423       2.18051667       3.64225623      -0.00280441       0.00681904       0.00640358
C        7.34708205       4.32319854       3.54158591       0.00198457      -0.00088209      -0.01825756
C        6.07703184       6.44118122       3.71860276      -0.00430180      -0.00521704      -0.00472943
C        4.82631705       8.58155034       3.93291719       0.00919463      -0.00067657       0.01019416
C       -0.05846072       1.52466122       3.92223437       0.00767066       0.00167587       0.00350118
C       -1.31574644       3.63606556       3.79061129       0.00023639      -0.00603923      -0.00953381
C       -2.56715889       5.76421152       3.67824717      -0.00732452       0.00054286      -0.00015998
C       -3.80858661       7.91030790       3.72331085       0.00541152       0.00371959      -0.00611840
C       -5.01698831      10.06288409       3.84976984      -0.00644131      -0.00471616      -0.00827658
C        2.42080495       1.56725024       3.85400997      -0.00023995      -0.00100881      -0.00363080
C        1.08726471       3.69066500       4.29579980      -0.00008283       0.01240463      -0.01175329
C       -0.15838952       5.79536983       3.89336997      -0.00352588      -0.00077001      -0.00171576
C       -1.35233959       7.92059564       3.74105329       0.00347890      -0.00127509      -0.01117882
C       -2.56487528      10.06906228       3.74026724      -0.00083538       0.00197207       0.01087517
C        4.87718540       1.48293099       3.60140079      -0.00461717       0.00067315      -0.00440129
O        3.74550198       3.55831995       3.45759759      -0.00128660       0.00216114       0.00598218
C        1.09035817       7.90170118       3.90966562       0.00334439      -0.00914889      -0.00234241
C       -0.08153325      10.02872288       3.71955529       0.00663718       0.00068643       0.00027676
C        7.34259854       1.46073971       3.61016737      -0.00263345       0.00572860       0.00912981
C        6.13208379       3.58476881       3.46269065       0.00187301      -0.00240982      -0.01127144
C        4.89249367       5.65573779       3.75593052      -0.00511370      -0.00382713      -0.00093804
C        3.59336016       7.85725870       4.05073095       0.00525034       0.00319922      -0.00554742
C        2.38044098       9.99253450       3.82770429       0.00561385       0.00283833       0.00332221
C        9.80066680       1.47120726       3.76126914      -0.00072389       0.00550670      -0.00396881
C        8.57463813       3.61078514       3.60109709       0.00385958       0.00406272      -0.00401317
C        7.32089943       5.74776362       3.61358012      -0.00670550      -0.00227770      -0.01080470
C        6.06689632       7.87858015       3.83233352       0.00690089      -0.00553708      -0.00442275
C        4.85214904      10.02708876       3.89053530       0.00030944       0.00060344       0.00859238
Pt       2.44563409       4.98984212       5.20145609      -0.00273515      -0.00116561       0.01195421
O        3.72177333       3.80980042       6.05424016      -0.01490477      -0.00726201       0.00112445
O        3.90065049       4.18359086       7.47382747       0.01077331      -0.00246590      -0.00867394
H        4.62897337       3.56967135       7.70903618      -0.01288912      -0.00172850      -0.00165536
