52
Lattice="12.336457 0.0 0.0 -6.168228499999997 10.683685154694365 0.0 0.0 0.0 15.0" Properties=species:S:1:pos:R:3:forces:R:3 energy=-444.7305685200235 free_energy=-444.7305685200235 stress="-0.001083022733581163 -0.0012865136521742282 0.00027989763635827286 -0.0012865136521742282 0.00010385159294558978 0.001176753633762071 0.00027989763635827286 0.001176753633762071 0.0006197246141291912" pbc="T T T"
C        0.08362359      -0.12793947       3.73125999      -0.21824860      -0.17538681      -0.16609755
C       -1.16133553       2.01156637       3.55928100      -0.06995810      -0.07186814      -0.05921183
C       -2.42045236       4.13487745       3.63072926      -0.05429103       0.18803439      -0.03369187
C       -3.62306321       6.25837342       3.71434159      -0.20338490       0.42242309       0.05319386
C       -4.84940339       8.40762441       3.81597912      -0.09052481      -0.16404547      -0.08693509
C        2.54098320      -0.17101662       3.83215810       0.03349167       0.24467002       0.17461381
C        1.31974083       1.95828423       3.68711826       0.20513948       0.04868128      -0.22383795
C       -0.01514569       4.23083874       3.55478820       0.35573134       0.12282895       0.50447844
C       -1.17293896       6.28771725       3.86809009       0.10998323      -0.20166610      -0.05599304
C       -2.38150944       8.40320119       3.78319222      -0.03001796      -0.05389854       0.05541895
C        5.00653315      -0.13839977       3.81504532       0.13633892       0.02904033      -0.09686492
C        3.75742765       1.95002297       4.06590057       0.07753810       0.36206329      -0.08237934
B        1.27715685       6.32067518       4.60313180      -0.65893388       0.23469689      -0.20032336
C        0.09057436       8.42399202       3.88847643       0.22263762      -0.19949505      -0.40192141
C        7.47269772      -0.14009765       3.65846527       0.16917788       0.22796581       0.11151168
C        6.24137568       2.02183248       3.82606686      -0.30112870      -0.10419464      -0.07254532
C        5.02389114       4.21194157       4.05852856      -0.27223474       0.11788434      -0.12272986
O        3.85753950       6.36160753       4.13138251      -0.07584740      -0.17647022      -0.12345451
C        2.56328545       8.40453329       3.85115717      -0.09711182      -0.23194175       0.03662404
C        9.95206745      -0.13980661       3.59008635      -0.12581834       0.17005208       0.26691426
C        8.68798075       2.01437717       3.56650850       0.21638348      -0.15248889       0.22476312
C        7.44484673       4.16367232       3.68697411       0.13257841      -0.17170826       0.27193948
C        6.23924435       6.30449382       3.87006762       0.08552870       0.02001810      -0.00625986
C        5.02070563       8.41501156       3.78632988      -0.08056757       0.03266032       0.20548155
C        0.07395078       1.30088402       3.62303369       0.07442708      -0.01629058       0.15993051
C       -1.18236305       3.42916654       3.58720063      -0.08442648       0.15505516      -0.27359891
C       -2.39351931       5.55371709       3.68510415      -0.22773941       0.27463298       0.25364029
C       -3.61525424       7.68231592       3.75656719      -0.03805530       0.25986457       0.12159020
C       -4.86000254       9.83276653       3.80946594       0.04148723      -0.18117986      -0.09045493
C        2.53650713       1.25087447       3.91137466       0.11714082       0.39656555      -0.02746087
S        1.48161345       3.56558431       3.02489380       0.22730509      -0.21368733       0.02376269
C        0.03201281       5.56231065       4.00457769      -0.13207538      -0.12862856       0.13082605
C       -1.15026218       7.71199105       3.85505196      -0.16756377      -0.28173452       0.17769731
C       -2.38845047       9.82348840       3.82249876       0.08582777      -0.05458120      -0.03636612
C        5.00973317       1.29463916       3.90979135      -0.23051182      -0.00735523       0.04666892
B        3.73814200       3.43919671       4.37822979       0.27010342      -0.02924547      -0.00478762
C        1.32457421       7.74299953       3.99521539       0.11723626      -0.06481707      -0.20319904
C        0.06919192       9.84391869       3.72317459       0.20709445       0.05419009       0.31740455
C        7.46357410       1.29484002       3.66097313      -0.01554267       0.12249969      -0.02344911
C        6.22065499       3.45781807       3.85228673      -0.20953148      -0.01267791      -0.04819104
C        5.02826753       5.62167372       3.99721942       0.20151853       0.04042442       0.05064479
C        3.81494787       7.72360415       3.91550177       0.23199841       0.03694506      -0.14109703
C        2.55307875       9.82987992       3.68686051      -0.05045522       0.03699793      -0.21422068
C        9.94011366       1.29969604       3.56481472      -0.00652180       0.02653139      -0.14797659
C        8.67180751       3.43910842       3.61511881       0.26683967      -0.18924184      -0.09312524
C        7.46030725       5.57378810       3.76652642       0.17229791      -0.03214793      -0.18468553
C        6.25737768       7.71716717       3.86009669      -0.12761755      -0.09809570      -0.21440342
C        5.02210785       9.84105306       3.67607516      -0.32087334       0.04064010       0.09167849
Pt       2.41787016       4.52413212       5.36577773      -0.27347362       0.60371164       0.10100890
O        1.86512822       6.53534325       5.91918826       0.63216696      -0.96583469       0.61656046
O        0.94584394       6.55920931       7.14583749      -0.17015770       0.80844291       0.14409847
H        1.16577750       7.46246767       7.55646730      -0.05735900      -1.09883864      -0.70518877
