51
Lattice="12.336457 0.0 0.0 -6.168228499999997 10.683685154694365 0.0 0.0 0.0 15.0" Properties=species:S:1:pos:R:3:initial_magmoms:R:1:forces:R:3 energy=-214864.4756111137 free_energy=-214864.4756111137 stress="97.97136423360129 -86.87612522719778 -32.38136159710316 -86.87612522719778 136.75992256457297 82.1100595585343 -32.38136159710316 82.1100595585343 41.32526030849912" pbc="T T T"
C        9.86013150       1.79613137       8.20499813       0.00000000      -0.10269440      -0.37964080      -0.44076985
C        1.87128280       2.67957600       3.89201580       0.00000000      56.28045608      18.64201644      76.23318207
C        0.61646400       1.53024288       4.07342713       0.00000000       3.08058501      49.45213959     -21.77911988
C       -9.24785080       5.69964772       1.44807402       0.00000000   -1876.19590687      20.88578699     181.71440694
C       -0.46136916      17.81387887       8.27943177       0.00000000      -1.61481046      -1.91590503       1.38751850
C        3.46904546      -2.04707823       6.15134126       0.00000000      36.36910084     -68.57074922     -38.31848935
C        3.74441278      -4.04738209       6.32569081       0.00000000     178.49883390      43.60357275    -359.04058231
C        5.96937293      -3.92155750      -9.63065658       0.00000000     238.19937876    -374.13963395     -58.68989181
C        2.80911588      14.87588235       5.03786166       0.00000000     126.19700930      74.96816738    -149.25601227
C       -3.42324200      10.06884504       6.50954565       0.00000000      -1.31732782       1.96503948      -4.82393657
C        3.07336270      -0.24375427      11.47745721       0.00000000      35.38528419      23.37928327     -45.40654463
C        5.61133756       1.59882335      11.85417522       0.00000000       0.99508853       4.85117492       2.30713988
B        3.25648352       4.42923155      -5.36043088       0.00000000       2.34500783      -3.27261507      -1.23594271
C       -1.54329698      16.42286138       9.53542877       0.00000000       2.47322897      -1.47009278      -1.91563211
C        8.63374529      -2.08828643       4.07726000       0.00000000     219.63490164     -98.26234484    -412.55177762
C        9.55978242      -1.35173508      -2.16453165       0.00000000    -283.06265524    -248.16235680     357.75572214
C        7.15891396       2.20405930      13.83200775       0.00000000       3.63045263       2.43762505       1.13309079
N        2.91616335       6.19057639       4.38176624       0.00000000    -543.10299589     458.59269936     237.39578006
C       -0.32244653       8.22229293      -0.61063421       0.00000000    2907.02193743   -4920.61377517   -6953.95994247
C        8.26954952      -1.58493515      -1.12118367       0.00000000     255.49747565     716.77909767     146.26718903
C        8.89654531       0.13065143       6.12607298       0.00000000       1.76984554       7.62182477       0.53119714
C       15.01344257       3.75196024      -0.63699636       0.00000000    -387.50151369     535.00992366     209.04932957
C        4.77298095       7.18495782       5.78052799       0.00000000      73.32348517      21.28272623      49.02320102
C       10.09823441       9.58878454       9.70926044       0.00000000      -6.48656322      -2.10986107       1.19723449
C       -2.59622967       2.62335273      -3.36097157       0.00000000       1.93246275       2.55853040       3.27630871
C       -0.75367728       5.93019934      -3.93986819       0.00000000      26.04499196      21.11180855     132.72187574
C       -2.76703108       5.18878810      -0.53629945       0.00000000     441.94280734     488.29453863     359.80789189
C       -5.71515539      10.90747915       1.08947737       0.00000000      -1.60716987       1.68256508       0.51076702
C       -9.85271010       3.02346753      11.94867252       0.00000000      -2.50527490       8.67722143       7.97810198
C        3.26583148       0.81744057      -2.66763912       0.00000000      -4.07563697       5.34438460      -0.16770522
B        0.86324495       6.34319563       0.44362514       0.00000000  -22621.91720940   18987.64089199   23821.10696096
C       -1.97811678       4.88185071       3.38047252       0.00000000    -477.92484081    -521.96803089     422.60350077
C       -0.57561725       2.91384724      -4.55338880       0.00000000      -3.69433081      -0.13201125       2.90254834
C       -3.75247500      10.09870327      12.10794595       0.00000000     -44.76558772     -16.99758863      40.26813573
C        8.17878329      -0.28200878       2.60943247       0.00000000     707.14209631    -362.98974481      12.10947081
O       -0.06269064       7.42424969       1.61923247       0.00000000  377605.28666073 -1633602.79382230 -1169933.57777600
C       -3.20009997       8.57288070      10.25787877       0.00000000       1.78262840       3.33895231      -4.87843438
C      -13.76708426       6.59339049       9.97143335       0.00000000       1.04013389      -4.13884662       0.03424000
C        9.59859812       0.45301747       2.26048863       0.00000000    -326.21641158    -485.30604593    -252.07252681
C        7.24162911       7.61396122      16.77332122       0.00000000     649.18773538    -153.62182001    -143.28440689
C        2.78361874      -3.26295731       3.65712241       0.00000000    -109.02574019    -436.91804140     -34.02968430
C        1.40571218       6.92936376      -1.30085830       0.00000000    5437.99902464    -910.31058598  -12087.00370929
C        2.39665084       9.32022808       3.42032167       0.00000000     619.39988710     136.29743965     109.52063930
C        4.33179419       4.45118817      -0.90716427       0.00000000     -55.01169215       6.20879731     -24.04641907
C       10.52282540       0.90295384      -0.15079073       0.00000000       3.65428063       4.17464126       1.17580285
C        7.71401911       6.18156656       1.56626615       0.00000000     924.85587057     193.93278583     -89.74856165
C       10.86662247      14.79713798       8.66487182       0.00000000      -2.73542616       2.53518083       2.54944968
C        7.60888043      14.14158971       3.31351608       0.00000000    -543.69128984    1056.70788691    -442.00593919
Pt       1.68661933       6.18048101       1.22185334       0.00000000  -82513.73248768   20943.34311662  -16214.19337332
O       -8.29189990       5.31033017      10.68451146       1.00000000      -0.29486519       3.07028467       1.17245724
O        0.00846047       7.29237346       1.53080056       1.00000000 -280754.38822032 1598369.68340893 1181090.69403503
