51
Lattice="12.336457 0.0 0.0 -6.168228499999997 10.683685154694365 0.0 0.0 0.0 15.0" Properties=species:S:1:pos:R:3:initial_magmoms:R:1:forces:R:3 energy=-446.87265156829386 free_energy=-446.87265156829386 stress="-0.008767554788550807 -0.0014181140352234967 -3.329364360007574e-07 -0.0014181140352234967 -0.0007242573238055389 2.015316297487265e-06 -3.329364360007574e-07 2.015316297487265e-06 5.3346663725010793e-08" pbc="T T T"
C        0.05224778       0.08416628       3.81494840       0.00000000      -0.00453896      -0.00137503      -0.00177570
C       -1.20037936       2.18001049       4.02217730       0.00000000      -0.00301229      -0.00033803       0.00590788
C       -2.44120359       4.33378845       4.16517098       0.00000000       0.00140495      -0.00026493       0.00217856
C       -3.65137453       6.49478194       4.02477196       0.00000000      -0.00175496      -0.00123104       0.00402544
C       -4.87049747       8.64139566       3.79062624       0.00000000       0.00274305      -0.00173129       0.00051571
C        2.52323313       0.11910014       3.74318255       0.00000000       0.00470463      -0.00066382      -0.00008557
C        1.25662807       2.23691353       3.64022671       0.00000000       0.00023558       0.00047119       0.00436547
C       -0.05062401       4.30676684       3.82703000       0.00000000      -0.00268639      -0.00241683       0.00554602
C       -1.22166302       6.48864681       3.95268251       0.00000000      -0.00293157       0.00303270      -0.00157096
C       -2.41617675       8.64199303       3.89388273       0.00000000      -0.00265194      -0.00096588      -0.00331776
C        4.99160851       0.08258735       3.80954816       0.00000000      -0.00241983       0.00285260      -0.00079883
C        3.77458646       2.24458135       3.53992988       0.00000000       0.00184978       0.00077704      -0.00364133
B        1.21711807       6.40858123       3.36036477       0.00000000       0.00753566      -0.00457092      -0.00484825
C        0.05258943       8.60956070       3.73528047       0.00000000      -0.00292111       0.00577355      -0.00022761
C        7.46034173       0.04896170       3.88507718       0.00000000       0.00166900      -0.00378122      -0.00687100
C        6.23816022       2.18923474       3.87374741       0.00000000       0.00364892      -0.00205933       0.00179843
C        5.11981312       4.31062547       3.38096773       0.00000000      -0.00378335       0.00255524      -0.00116523
P        3.90421187       6.52353020       2.20505574       0.00000000       0.00373079      -0.00516732       0.00945732
C        2.52886036       8.61689955       3.49785075       0.00000000       0.00113721       0.00237436      -0.00285077
C        9.92016710       0.04838995       3.88546987       0.00000000      -0.00077099       0.00481844       0.00355354
C        8.68323173       2.18224099       4.10314011       0.00000000       0.00131280      -0.00222003      -0.00445792
C        7.47381724       4.33947141       3.99070452       0.00000000       0.00531971       0.00164168       0.00179275
C        6.29230366       6.48731635       3.56404828       0.00000000      -0.00244835       0.00036361      -0.00178212
C        5.01154414       8.63426306       3.53183123       0.00000000       0.00034539      -0.00276243      -0.00462293
C        0.03472628       1.49917042       3.84895294       0.00000000      -0.00377845      -0.00070345       0.00490057
C       -1.23603286       3.59498655       4.08655846       0.00000000      -0.00291939      -0.00211805      -0.00063890
C       -2.44078118       5.77062831       4.10601384       0.00000000      -0.00178422      -0.00014850       0.00034454
C       -3.64448256       7.92585396       3.91768441       0.00000000       0.00021853      -0.00351563       0.00441340
C       -4.87187882      10.07259848       3.78203994       0.00000000       0.00264241      -0.00002202      -0.00168732
C        2.51639704       1.54453246       3.60673670       0.00000000       0.00216967       0.00025127       0.00365759
C        1.10501418       3.61275036       3.46323825       0.00000000      -0.00024918       0.00096686       0.00400436
C       -0.05780981       5.72031394       3.77592603       0.00000000      -0.00229856      -0.00130580       0.00430725
C       -1.19049632       7.91640780       3.86594841       0.00000000      -0.00302720       0.00567687      -0.00372745
C       -2.41714757      10.07145364       3.80959236       0.00000000       0.00183102      -0.00237358      -0.00272515
C        5.00214265       1.50221269       3.74696233       0.00000000       0.00143025       0.00131656      -0.00472138
C        3.90920601       3.61575030       3.25963671       0.00000000      -0.00001597      -0.00024758      -0.00912743
C        1.28534416       7.91310598       3.51958221       0.00000000      -0.00039365      -0.00007713       0.00004242
C        0.05367208      10.03621387       3.82067864       0.00000000      -0.00325382       0.00461158      -0.00539919
C        7.46079368       1.46877171       3.99563056       0.00000000       0.00401056      -0.00713152      -0.00590173
C        6.28001161       3.60618565       3.79561034       0.00000000       0.00240549       0.00245186      -0.00099155
C        5.19193854       5.71846418       3.14797026       0.00000000      -0.00518924       0.00209314       0.00262313
C        3.78149630       7.98386787       3.23486596       0.00000000       0.00156139       0.00099252      -0.00259544
C        2.52429616      10.02332327       3.78569289       0.00000000       0.00340093       0.00114289       0.00214681
C        9.91102833       1.46449874       4.04765388       0.00000000      -0.00150343       0.00328007       0.00579483
C        8.67874453       3.61440112       4.14865953       0.00000000       0.00532814      -0.00172814      -0.00148902
C        7.47779928       5.76973530       3.90984026       0.00000000      -0.00238644       0.00177024      -0.00084580
C        6.25418741       7.92405280       3.60394348       0.00000000       0.00103000      -0.00271288       0.00290041
C        4.99319039      10.04223049       3.77824999       0.00000000      -0.00602562      -0.00167090       0.00079415
Pt       2.42637134       4.89962204       2.74096294       0.00000000       0.00081108       0.00544309       0.00026671
O        0.33177502       3.13908426       6.58288246       1.00000000       0.04532206       0.00488570      -0.00288662
O        1.54718000       3.03887565       6.44348342       1.00000000      -0.04505409      -0.00623977       0.00541568
