52
Lattice="12.336457 0.0 0.0 -6.168228499999997 10.683685154694365 0.0 0.0 0.0 15.0" Properties=species:S:1:pos:R:3:forces:R:3 energy=-444.9206261301747 free_energy=-444.9206261301747 stress="-0.003633075611484636 0.0031432300069113538 5.823155419299701e-06 0.0031432300069113538 -0.0004126517579012841 -4.394421114382577e-07 5.823155419299701e-06 -4.394421114382577e-07 5.0142972802792285e-06" pbc="T T T"
C        0.05082395      -0.07530509       3.79907912      -0.00435030       0.00156034      -0.00459292
C       -1.16693946       2.08266964       3.88404358       0.00024480       0.00042723       0.00651638
C       -2.39618917       4.21479794       3.74368550       0.00894893       0.00160596       0.00417950
C       -3.63775024       6.34429443       3.62242357      -0.01625119       0.00463461      -0.00434644
C       -4.89663458       8.47336305       3.61119954      -0.00223752      -0.00511781       0.00233387
C        2.51502187      -0.08326119       3.88208103      -0.00975192       0.00332514      -0.00401543
C        1.29049394       2.03818058       4.13429389       0.00948951       0.00230598      -0.00607484
C        0.03478487       4.29256838       3.99083923       0.00512510       0.00034110       0.00151291
C       -1.18824536       6.36830883       3.70431459      -0.00803354      -0.00825418      -0.00015743
C       -2.42148109       8.48226682       3.70367750      -0.00241219       0.00324883       0.00805727
C        4.98900033      -0.07411506       3.86444196      -0.00276519      -0.00081512      -0.00602103
C        3.76427641       2.02835548       4.13179847       0.00743577      -0.00168925      -0.00362017
O        1.19178956       6.41639531       3.89743609       0.01904430      -0.00522068      -0.00067886
C        0.04122447       8.47837933       3.72322486      -0.00405069       0.00298550       0.00155634
C        7.45944978      -0.07889343       3.81422660       0.01011169      -0.00450882       0.00690844
C        6.24649848       2.05813260       3.90789040      -0.00243118      -0.00325132       0.00458524
C        5.05119796       4.22180275       3.81274260      -0.00170113       0.00325486      -0.01119509
S        3.67932388       6.23041006       2.62334535      -0.00432511       0.00347794      -0.00104472
C        2.48864236       8.45273264       3.60495993      -0.00054864      -0.00252220       0.00320548
C        9.92380392      -0.07665559       3.75928128       0.00012638       0.00165081      -0.00266620
C        8.70725865       2.06518869       3.80879223      -0.00559318       0.00441641      -0.00613953
C        7.48920916       4.20026298       3.70661487       0.00778868       0.00095791       0.00297046
C        6.24881329       6.33795516       3.45557880       0.00086162      -0.00048418      -0.00084112
C        4.97080760       8.46855974       3.49332631       0.00139204      -0.00396221       0.00592129
C        0.05983688       1.35413512       3.94448701       0.00433500       0.00248198       0.00659119
C       -1.15841148       3.52203998       3.86602351       0.00674186      -0.00080060       0.00774406
C       -2.40701265       5.63382315       3.68464361      -0.01693682       0.00025146       0.00159227
C       -3.65600791       7.76797174       3.63142916      -0.00218656       0.00206763       0.00690224
C       -4.88773106       9.89663317       3.76017889      -0.00927137      -0.00320430      -0.00585416
C        2.52278292       1.33833827       4.07660850       0.00827197       0.00267089      -0.00809529
B        1.27343344       3.53197244       4.41764416      -0.00186586      -0.00432785       0.00342087
C        0.02140277       5.69234770       3.83001832       0.00602643      -0.00167690      -0.00290952
C       -1.19682747       7.78083221       3.70150469      -0.00601965      -0.00379929      -0.00239224
C       -2.41939930       9.90308801       3.81278196      -0.00768914       0.00480778      -0.00029185
C        5.00000829       1.34722624       3.97287194       0.00033539      -0.00461870      -0.00049648
B        3.80787905       3.52425475       4.36751864      -0.00285515      -0.00234580      -0.00682797
C        1.23412598       7.77400744       3.67970896       0.00096700       0.00246799       0.00357130
C        0.05340821       9.90513299       3.79507119       0.00309460       0.00486966       0.00110787
C        7.47102797       1.35044272       3.84685669      -0.00278109      -0.00322493      -0.00322025
C        6.26112785       3.48549481       3.82080402       0.00236143       0.00064921      -0.00103340
C        5.06545392       5.56924827       3.38332141       0.00329929       0.00791916      -0.00187891
C        3.72879382       7.80439934       3.33758285       0.00268968      -0.00337777       0.01244996
C        2.51563065       9.88134780       3.74095109       0.00677849      -0.00467029      -0.00247700
C        9.93848482       1.35815047       3.81800025      -0.00642855       0.00373874       0.00014249
C        8.71348891       3.48948422       3.75144924       0.01129511       0.00452090       0.00148250
C        7.48073276       5.62171451       3.59795638      -0.00617163      -0.00113303      -0.00345063
C        6.21169923       7.75969653       3.47240099       0.00175705      -0.00391883       0.00239952
C        4.98491076       9.89839355       3.69173366      -0.00268826      -0.00067196      -0.00124582
Pt       2.59345871       4.52949734       5.46886763       0.00438096       0.00008924      -0.00774492
O        1.64652464       6.00062795       6.27942424       0.01237996       0.00422477       0.00074454
O        1.73243858       5.76946497       7.74324842      -0.00206269      -0.01122050      -0.00319839
H        2.42085196       6.43227742       7.95508467      -0.01387451       0.00986451       0.00661462
