53
Lattice="12.336457 0.0 0.0 -6.168228499999997 10.683685154694365 0.0 0.0 0.0 15.0" Properties=species:S:1:pos:R:3:forces:R:3 energy=-463.94987136846237 free_energy=-463.94987136846237 stress="-0.0028743678595766417 5.9504070463657714e-05 1.0061443436915204e-05 5.9504070463657714e-05 -0.0003710813726381904 -1.305586280579121e-06 1.0061443436915204e-05 -1.305586280579121e-06 -5.467223742485221e-06" pbc="T T T"
C        0.04801720      -0.12524753       3.65804753       0.00139059      -0.00435141       0.00230136
C       -1.18736332       2.01274458       3.74009279      -0.00205806      -0.00390420       0.00908943
C       -2.41598456       4.15073024       3.73873227       0.00454049       0.00134245      -0.00117118
C       -3.64933590       6.28747443       3.66037274      -0.00062987      -0.00201037      -0.00986261
C       -4.88200184       8.42694693       3.62114978       0.00089217       0.00372496      -0.00103504
C        2.51842644      -0.11759437       3.67860460       0.00889849       0.00563800       0.00505534
C        1.27018695       1.99715596       3.87861915      -0.00793696       0.00265293       0.00210061
C        0.04250384       4.16404297       4.00033786       0.00035574       0.00037951       0.00118789
C       -1.19085921       6.29669770       3.77635629      -0.00638835      -0.00279860      -0.00224818
C       -2.41725535       8.42706765       3.62946347       0.00296763      -0.00365414      -0.00054453
C        4.98970250      -0.12690395       3.66507705       0.00533390       0.00424717      -0.00324576
C        3.76902881       1.99611121       3.87807123      -0.00217249       0.00227866       0.00658871
B        2.52083636       3.99092849       4.57624578       0.00472356      -0.00386798      -0.00598975
N        1.12881465       6.39346083       4.31449282      -0.01208155       0.00794407       0.00241714
C        0.04306207       8.41706765       3.71238108      -0.00006635      -0.00478309       0.00102604
C        7.45768171      -0.13837072       3.69388911      -0.00276835      -0.00116925      -0.00017224
C        6.22609405       2.01135159       3.74332456       0.00476383      -0.00102256       0.00143595
C        4.99685064       4.16361222       3.99464659      -0.00152449      -0.00087346       0.00577505
N        3.90994608       6.39145378       4.31815713       0.00330453      -0.00160442       0.00234195
C        2.51964578       8.38098268       3.85561968       0.00191026       0.00958144       0.00049133
C        9.91646768      -0.13754823       3.68794793       0.00106597       0.00022087       0.00563228
C        8.68732362       2.00821684       3.69476503       0.00308200       0.00422356       0.01049566
C        7.45499247       4.15018800       3.73677695      -0.00700159       0.00037747      -0.01329849
C        6.22702963       6.29564708       3.75879940       0.00477253      -0.00006856       0.01689266
C        4.99476046       8.41775872       3.70514378      -0.00385909      -0.00816050      -0.00306705
C        0.04048534       1.29299918       3.73881274      -0.00388612      -0.00291091      -0.00530444
C       -1.18272758       3.44624159       3.81264056       0.00333368      -0.00360654      -0.00409813
C       -2.41612769       5.57534283       3.71462544      -0.00168737       0.00026884      -0.01287037
C       -3.64943386       7.71226612       3.62454273      -0.00120148      -0.00042340       0.00134839
C       -4.88488226       9.85176218       3.63828878       0.00730724       0.00559999      -0.00547175
C        2.51934234       1.29570686       3.82029421      -0.00422297       0.00622024       0.00250864
C        1.22525158       3.39768687       4.11230278       0.00084727       0.00236208       0.00646694
C        0.03726165       5.61414828       4.01651517      -0.00474764       0.00153660      -0.00773572
C       -1.18914809       7.71211170       3.69492200      -0.00000807      -0.00597537      -0.00313250
C       -2.41468529       9.85156982       3.64258621       0.00896726      -0.00033478       0.00307954
C        4.99824748       1.29130433       3.74066787       0.00251087       0.00531992       0.00612725
C        3.81457062       3.39696575       4.11020898      -0.00066780      -0.00100546       0.00114498
C        1.25497346       7.70364090       3.91381896       0.00267409       0.00686008       0.00371531
C        0.05465687       9.84081625       3.67053357      -0.00043660      -0.00513911      -0.00225122
C        7.45649987       1.29263417       3.69543696       0.00523154      -0.00148901      -0.00340476
C        6.22207513       3.44511210       3.81112119      -0.00621085      -0.00028019      -0.00707805
C        5.00100549       5.61365282       4.00719942       0.00387140      -0.00097032       0.00799465
C        3.78457486       7.70489233       3.92002914      -0.00506276      -0.00457300      -0.00338414
C        2.51895226       9.81317621       3.72869848      -0.00003813       0.00579759      -0.01161369
C        9.91822399       1.29359971       3.69110339      -0.00090494      -0.00018267       0.00226517
C        8.68772246       3.43485828       3.70857913       0.00159851       0.00718306      -0.00316533
C        7.45381494       5.57479329       3.70574388      -0.00060551      -0.00236910      -0.00790407
C        6.22612714       7.71152415       3.67971836       0.00070428      -0.00096698       0.00906634
C        4.98308333       9.84217475       3.66196384      -0.00010609      -0.00860835      -0.00174505
Pt       2.51836874       5.61719595       5.55048848      -0.00609575      -0.01132344      -0.00212631
O        2.65076895       7.36352864       6.50867850      -0.00367380       0.00267171       0.00484983
O        1.33596984       7.71715364       6.95853001      -0.00545332      -0.00474742       0.00654655
H        1.57337940       8.26760741       7.73377527       0.00644851       0.00674339      -0.00602465
