51
Lattice="12.336457 0.0 0.0 -6.168228499999997 10.683685154694365 0.0 0.0 0.0 15.0" Properties=species:S:1:pos:R:3:initial_magmoms:R:1:forces:R:3 energy=-441.6686409577914 free_energy=-441.6686409577914 stress="-0.0041747379792775405 0.004433033549309131 2.825974723340623e-06 0.004433033549309131 0.0026886282426948063 -5.014470045902708e-07 2.825974723340623e-06 -5.014470045902708e-07 1.490567397943872e-08" pbc="T T T"
C       -0.02089299      -0.02085939       3.70436710       0.00000000      -0.00195985      -0.00583757       0.00772933
C       -1.24676984       2.12923240       3.48173140       0.00000000      -0.00071170       0.00311406       0.00500890
C       -2.48605908       4.27277057       3.71363685       0.00000000      -0.00873217       0.00159877      -0.00199881
C       -3.73058464       6.40400325       3.98527625       0.00000000       0.00782864       0.00150765      -0.00431947
C       -4.97034472       8.54200744       3.95354394       0.00000000      -0.00052445       0.01621237       0.00041298
C        2.44774497       0.02239909       3.87921922       0.00000000      -0.00126240       0.00134454       0.00171345
C        1.25169846       2.06276599       3.29283941       0.00000000       0.00786009      -0.01386558       0.00833990
C       -0.17633867       4.39290342       2.99533725       0.00000000      -0.00346903       0.00124019       0.00352261
C       -1.32962892       6.45417501       3.62897713       0.00000000       0.00291633      -0.00639822      -0.00709571
C       -2.50840890       8.55751078       3.94697155       0.00000000      -0.00093682      -0.00475657       0.00096111
C        4.91957016      -0.01262317       3.97491498       0.00000000      -0.01318947       0.00614425       0.00427848
C        3.74175537       2.10078425       3.94084117       0.00000000       0.00771866       0.00081785       0.00100288
O        0.99878708       6.52336041       3.16601093       0.00000000       0.00069449      -0.01167075       0.00115024
C       -0.04762821       8.53776659       3.78474781       0.00000000      -0.00313100      -0.00153494       0.00184126
C        7.39914103      -0.04731489       3.86945899       0.00000000      -0.00075453       0.00170294       0.00519557
C        6.19949149       2.08808480       4.08520881       0.00000000      -0.00164296      -0.00486813      -0.00257568
C        5.03675628       4.22445013       4.16200352       0.00000000       0.00359569      -0.00081513      -0.00138294
C        3.74468542       6.33411529       3.92872214       0.00000000      -0.00265560      -0.00031181       0.00168614
C        2.40784328       8.46432234       3.68747881       0.00000000       0.00114536      -0.00446553      -0.00433896
C        9.85290160      -0.04246725       3.71865336       0.00000000       0.00304222       0.00822865      -0.00793436
C        8.64963668       2.10516727       3.85125460       0.00000000      -0.00491326       0.00313964       0.00608756
C        7.43123434       4.24305761       4.07823779       0.00000000      -0.00013883      -0.01083634       0.00388039
C        6.16284280       6.37772795       4.04783256       0.00000000       0.00921321       0.00439371      -0.01202020
C        4.89006469       8.49570876       3.81237530       0.00000000       0.00106201       0.01089613      -0.01116929
C       -0.00202333       1.40387617       3.47753449       0.00000000       0.00172034      -0.01149629       0.00856707
C       -1.28182013       3.57937105       3.38985533       0.00000000      -0.00880223       0.00650570       0.00139407
C       -2.51914128       5.69576426       3.80122560       0.00000000       0.00245155      -0.00259946      -0.01240790
C       -3.74197136       7.83402852       3.98396037       0.00000000      -0.00346019       0.00546902      -0.00361808
C       -4.95821875       9.97067611       3.85147820       0.00000000      -0.00132917       0.00962921       0.00343734
C        2.48047649       1.45478252       3.71936745       0.00000000       0.01334288      -0.00449041       0.00334342
P        1.21874187       3.50581945       2.15658829       0.00000000       0.00347367       0.00143476      -0.00623386
C       -0.19543500       5.79376603       3.19214374       0.00000000       0.00075015      -0.00385610      -0.00416332
C       -1.29641047       7.85610106       3.81000418       0.00000000      -0.00058834      -0.00908971      -0.00346063
C       -2.49781198       9.98808110       3.96251148       0.00000000      -0.00878604      -0.00238622      -0.00234690
C        4.94519733       1.40879090       4.02839185       0.00000000       0.00078376       0.00100863       0.00780873
O        3.84542776       3.48139354       4.21360762       0.00000000       0.00175056      -0.00330585      -0.00274760
C        1.13788999       7.84112378       3.59317460       0.00000000      -0.00168372      -0.00656177       0.00449800
C       -0.01737241       9.95362182       3.90508498       0.00000000      -0.00893548       0.00553176       0.01050657
C        7.41621965       1.38594934       3.95505024       0.00000000      -0.00087345       0.00088911       0.00330021
C        6.21231899       3.50928766       4.15684333       0.00000000      -0.00240434      -0.00738061      -0.00490136
C        4.95864278       5.61223825       4.06659137       0.00000000      -0.00310987       0.00405526      -0.00372797
C        3.66335600       7.76636495       3.74697250       0.00000000       0.00440978       0.00093192       0.00157026
C        2.44617928       9.90224231       3.75708213       0.00000000       0.00576751       0.00220313       0.00048056
C        9.87379652       1.39976083       3.68378995       0.00000000      -0.00480212       0.00884024      -0.01227216
C        8.65096986       3.53494657       3.90407073       0.00000000      -0.00363921      -0.00315407       0.00564245
C        7.39603761       5.66903673       4.07175678       0.00000000       0.00981185      -0.00710252       0.00391720
C        6.13400111       7.80591484       3.94774408       0.00000000       0.00318969       0.01388487      -0.00283411
C        4.91330653       9.93686212       3.73574705       0.00000000      -0.00070684       0.00359250      -0.00634474
Pt       2.43156645       4.70436968       3.35473766       0.00000000       0.00338781       0.00675345       0.00932720
O        3.24443344       5.19636226       5.92249199       1.00000000       0.00268298      -0.00527431       0.00241030
O        2.67927237       5.84788645       4.87874415       1.00000000      -0.00545618       0.00098755      -0.00112016
