51
Lattice="12.336457 0.0 0.0 -6.168228499999997 10.683685154694365 0.0 0.0 0.0 15.0" Properties=species:S:1:pos:R:3:initial_magmoms:R:1:forces:R:3 energy=-442.44855713036304 free_energy=-442.44855713036304 stress="-0.008041075670752148 -0.001554580326089247 -1.5429919564808544e-06 -0.001554580326089247 -0.0011714320153616185 1.7899150591339846e-06 -1.5429919564808544e-06 1.7899150591339846e-06 -1.967363887751617e-05" pbc="T T T"
C       -0.08179081      -0.07220952       3.64958392       0.00000000      -0.01155109       0.00264663       0.00744946
C       -1.34225454       2.04686000       3.93624863       0.00000000      -0.00301856      -0.00729484       0.01006352
C       -2.59209184       4.20284196       3.84483699       0.00000000       0.00523727      -0.00050050      -0.01004051
C       -3.77214125       6.35355717       3.55572131       0.00000000       0.01276414      -0.00484751       0.00925272
C       -4.99600389       8.49831333       3.46528781       0.00000000       0.00644088      -0.00363304       0.00595015
C        2.39433848      -0.07700624       3.59681500       0.00000000      -0.00551282       0.00648433       0.00004160
C        1.16434474       2.00142266       3.98833831       0.00000000       0.01142304       0.00488338       0.01395334
C       -0.26256457       4.25403837       4.43436102       0.00000000      -0.01297630       0.00592557       0.00862180
C       -1.39501918       6.37659793       3.99626798       0.00000000       0.00034223       0.00073005       0.00739433
C       -2.54791246       8.48981737       3.64676994       0.00000000       0.00752273      -0.00390214      -0.00704771
C        4.86678859      -0.07865246       3.53956874       0.00000000      -0.00251586       0.00323601      -0.00623890
C        3.60683315       2.00500546       3.30061347       0.00000000      -0.00482002       0.01279568      -0.00683523
C        1.03644390       6.33796165       4.15690795       0.00000000      -0.00760340      -0.00121799      -0.00079160
C       -0.08224740       8.46691696       3.78600860       0.00000000       0.00008728      -0.01605508      -0.00751711
C        7.33189627      -0.10415868       3.57659068       0.00000000      -0.00104309       0.00024773      -0.00424773
C        6.10017795       2.05593460       3.30548971       0.00000000      -0.00595358       0.00585950      -0.00983802
C        4.98831548       4.27654465       2.92823596       0.00000000      -0.00634743       0.00491212      -0.00754087
N        3.80469477       6.35877214       3.29129979       0.00000000      -0.00178036       0.00497945       0.00047640
C        2.40399934       8.40019468       3.64925128       0.00000000       0.00154909       0.00461286      -0.01621170
C        9.78396528      -0.10144811       3.62889504       0.00000000       0.00065671       0.00277204      -0.01066835
C        8.55103031       2.04997821       3.60149321       0.00000000       0.00278230      -0.00552658       0.00612343
C        7.35390388       4.20781633       3.35958698       0.00000000       0.00535628      -0.00266968      -0.00861588
C        6.17844279       6.39224796       3.17475758       0.00000000       0.00206893       0.00084316      -0.00331796
C        4.87933339       8.47869424       3.40894972       0.00000000      -0.00073264      -0.00032821       0.00799385
C       -0.09012123       1.34244764       3.88072218       0.00000000       0.00204074       0.00182854       0.00432415
C       -1.39022892       3.47769889       4.10249211       0.00000000      -0.00412867      -0.00168098       0.00285543
C       -2.58602440       5.63427781       3.81168096       0.00000000       0.01144907      -0.00197844       0.00642816
C       -3.77109970       7.77914989       3.54727719       0.00000000       0.01203820      -0.00594429       0.00956016
C       -5.01169585       9.91180482       3.57519387       0.00000000      -0.00711497       0.00022641       0.00687259
C        2.38813257       1.34237100       3.64861461       0.00000000       0.00157783       0.00775839       0.00342527
P        1.26243744       3.50778589       4.94833996       0.00000000      -0.00097725      -0.00544230      -0.00456815
C       -0.20981183       5.66683116       4.27683647       0.00000000      -0.00549604       0.00573915       0.00836113
C       -1.33125418       7.78263044       3.81141662       0.00000000       0.00039889      -0.00791525       0.00729191
C       -2.53792340       9.90606066       3.58111417       0.00000000      -0.00240225       0.00088353      -0.00136769
C        4.86388355       1.34794090       3.36229844       0.00000000      -0.00603777       0.01233670       0.00102143
S        3.49359164       3.53027327       2.47524338       0.00000000      -0.00663488      -0.01648031       0.00517831
C        1.15436940       7.71892752       3.86519430       0.00000000       0.00486031      -0.00286866       0.00181228
C       -0.07150616       9.88074575       3.62422563       0.00000000      -0.00191125      -0.01231480      -0.00570167
C        7.32166296       1.33440845       3.48005902       0.00000000      -0.00220602       0.00193783       0.00529219
C        6.13087491       3.48987463       3.17335043       0.00000000      -0.00207003       0.00527261      -0.01686019
C        4.97742621       5.68891895       3.03708881       0.00000000      -0.00419581       0.00296237      -0.00508526
C        3.66239120       7.71760363       3.44854283       0.00000000      -0.00178951       0.00210227      -0.00815914
C        2.39415217       9.84119454       3.61179716       0.00000000       0.00445322       0.00555155       0.00719222
C        9.77966284       1.33226470       3.72725448       0.00000000      -0.00043993      -0.00331294       0.00367610
C        8.55087946       3.48257194       3.59881514       0.00000000       0.00755781      -0.00507188      -0.00705780
C        7.36711020       5.63736725       3.33888457       0.00000000       0.00803760       0.00022389      -0.01270261
C        6.12080914       7.79802800       3.32749083       0.00000000       0.00179964       0.00020714       0.00200344
C        4.85763856       9.89193969       3.56443601       0.00000000      -0.00927113      -0.00185707       0.00280766
Pt       2.47134556       5.01825152       3.93575828       0.00000000       0.00808229       0.00287919       0.00497295
O        3.82414665       6.45286510       9.50429689       1.00000000       0.00636135       0.00263095       0.00125113
O        4.94931597       6.91769366       9.72225956       1.00000000      -0.00635717      -0.00262652      -0.00123302
