52
Lattice="12.336457 0.0 0.0 -6.168228499999997 10.683685154694365 0.0 0.0 0.0 15.0" Properties=species:S:1:pos:R:3:forces:R:3 energy=-443.33915801852396 free_energy=-443.33915801852396 stress="-0.004681279887843141 -0.0017518122827121748 9.016427476264565e-07 -0.0017518122827121748 -0.0028273843265991423 -2.4672195077370704e-05 9.016427476264565e-07 -2.4672195077370704e-05 -1.5881481528160823e-07" pbc="T T T"
C        0.03508709       0.08166056       3.81343419      -0.00165617      -0.00028728       0.00954323
C       -1.22040835       2.20997942       3.58798387      -0.00170237       0.00130705      -0.00574071
C       -2.46150373       4.36078429       3.74033583      -0.00590495       0.00133680       0.00325788
C       -3.64329696       6.51158510       4.00140399       0.00610921      -0.00405317       0.00772199
C       -4.87385629       8.64972644       4.00209349       0.00497636       0.00521505       0.00701710
C        2.50824362       0.07246903       3.83227220       0.00248911      -0.00526358       0.00016996
C        1.26605524       2.14250501       3.39085602      -0.00392315       0.00181812       0.00144962
C       -0.19063567       4.38600642       2.92215356       0.00036675       0.00100225      -0.00199537
C       -1.27079149       6.52279973       3.39930923      -0.00222009       0.00058492      -0.00811550
C       -2.41229036       8.63799184       3.80388767      -0.00455460      -0.00651453       0.00580469
C        4.97801658       0.08859274       3.95201180       0.00633370       0.00228981       0.00670611
C        3.69555625       2.15004788       4.14707923      -0.00502164      -0.00192050      -0.00459020
S        1.21987221       6.64259360       2.24004056      -0.00304792      -0.00722969       0.00557442
C        0.03564403       8.65439691       3.58086706       0.00052935      -0.00383850       0.00649292
C        7.44278938       0.08462923       3.94819712       0.00064308       0.00201151       0.00132119
C        6.21201969       2.22482306       4.26344861       0.00629599      -0.00208685       0.00803480
C        5.11358411       4.44812073       4.66871471       0.00275878      -0.00512793      -0.00462904
C        3.84634845       6.50140521       4.14977487      -0.00897571       0.00017434      -0.00384983
C        2.50826392       8.61278039       3.73631968      -0.00034804       0.00623656       0.00372505
C        9.90676939       0.07819690       3.90003990      -0.00284127      -0.00015249      -0.00346600
C        8.67351156       2.22257403       4.00292793      -0.00151210       0.00202682       0.00063060
C        7.48421308       4.37476678       4.27648506      -0.00298993       0.00093780       0.00603435
C        6.28743073       6.55220862       4.35226885       0.00612656       0.00160246       0.00028311
C        4.98904856       8.63688204       4.03434347       0.00901321       0.00113605      -0.00855684
C        0.02182648       1.49840503       3.58192284      -0.00233607      -0.00257658      -0.00289705
C       -1.27825330       3.62836185       3.41240751      -0.00225310       0.00466398       0.00246012
C       -2.45434380       5.78986672       3.73470859       0.00218577      -0.00106967      -0.00457966
C       -3.64477601       7.93360958       3.94373098      -0.00383304      -0.00598151      -0.00090594
C       -4.89352545      10.05993628       3.86718729       0.00107613       0.00185363       0.00011558
C        2.49689354       1.49518753       3.77476183      -0.00677558      -0.00542618       0.00384138
S        1.28305265       3.57844700       2.40678026       0.00924669       0.00282650      -0.00743106
C       -0.19221049       5.77868490       2.89336644      -0.00379605      -0.00108127      -0.00416050
C       -1.19998260       7.93984432       3.57253219      -0.00402525      -0.00120974      -0.00709583
C       -2.41765981      10.06088458       3.87500290       0.00606016      -0.00384336      -0.00644194
C        4.96471110       1.51198945       4.14663350       0.00186147       0.00661502      -0.00265910
P        3.51204469       3.75560355       4.83639501       0.00312584       0.00193199       0.01002358
C        1.28437524       8.00931772       3.34286750       0.00113517       0.00275444      -0.00452271
C        0.04157973      10.06426144       3.85757721       0.00414472       0.00105677      -0.00470052
C        7.43713631       1.51342458       4.09713213       0.00382247      -0.00107155       0.00150477
C        6.25486403       3.65972126       4.44712908       0.00419565      -0.00591858       0.00312912
C        5.07004640       5.84532722       4.47874678      -0.00056650       0.00108464       0.00583597
C        3.75484951       7.89509539       3.95931665       0.00324642       0.00593625      -0.00165106
C        2.50558781      10.04594531       3.88740386      -0.00299421       0.00314959       0.00671838
C        9.90514092       1.50853634       3.84125333      -0.00059342       0.00148665       0.00140575
C        8.67844751       3.64954477       4.03184393      -0.00923812       0.00241299      -0.00404537
C        7.49081567       5.80479332       4.25397542       0.00465827      -0.00027383      -0.00135662
C        6.23799234       7.95275919       4.14289560       0.01029758       0.00362527      -0.00062974
C        4.97491541      10.05272396       3.91405587      -0.00130102       0.00011774       0.00284929
Pt       2.46313642       5.20650003       3.58043729      -0.01152680      -0.01248340      -0.00595668
O        3.20382408       3.65494582       6.41668940       0.00230742      -0.01294650      -0.00755699
O        1.83567358       2.95753747       6.61209659      -0.00369348       0.00495662      -0.00703517
H        1.45540386       3.64029674       7.20025191      -0.00537525       0.01820507       0.00291851
