51
Lattice="12.336457 0.0 0.0 -6.168228499999997 10.683685154694365 0.0 0.0 0.0 15.0" Properties=species:S:1:pos:R:3:initial_magmoms:R:1:forces:R:3 energy=-351698.8685837546 free_energy=-351698.8685837546 stress="211.92906987697862 -63.35068196434931 3.455780019993241 -63.35068196434931 459.55712281741353 -51.49033758429869 3.455780019993241 -51.49033758429869 356.6509277314772" pbc="T T T"
C       -3.49609448       5.19711944       4.47492265       0.00000000   64839.70203377  -50287.24218277   12572.42164960
C        0.55726747       1.00129949       2.41886281       0.00000000    1050.19370449    -344.63024282   -2750.20174132
C       -2.55198932       3.09684374       3.83005087       0.00000000 -168779.16361383  -27456.08948229    4816.33401827
C       -3.50218633       3.74184531       4.77305219       0.00000000  188679.41941178    5624.26069266    -735.96525203
C       -4.47807095       8.96344901       2.80533559       0.00000000  637606.30315377  376450.89800374  -18466.07304795
C        2.03590236      -1.61637549       2.47342327       0.00000000  250344.55379148   54107.08051462 -275908.87449121
C        0.04239329       3.22193226       5.53187568       0.00000000    -716.11306211   83553.94679195     228.06662474
C       -1.43796970       4.19686203       4.87284147       0.00000000  738088.83582516 -2327163.94464880 2998005.87320402
C       -3.07813532       4.28255317       4.09686875       0.00000000 -172049.44183755 -112101.11767471  -33639.82811809
C       -1.82868704       5.31476427       1.20817203       0.00000000   -1640.90288981    2591.47021786   -5063.73837600
C        6.95164016      -2.67109845       5.16837403       0.00000000    1982.45895754    1497.69214711    1212.20841533
C       -3.25128844       1.62962846      -2.36704531       0.00000000      -7.78487931      81.37379878      64.45318187
O        0.14320263       4.35689612       5.74353405       0.00000000  -76580.49794606  -10121.87191621   -7660.74024329
C        3.08413752       6.11415032      -0.79848156       0.00000000      -3.54047403      -5.05211507     -12.40455508
C        6.10523548       3.44308007       7.36520644       0.00000000   -1600.94322136    -254.81948130     820.40656375
C        9.29958970       2.55516455      -1.23522153       0.00000000    -534.36424456     296.14564653     619.51024247
C        4.88911816       7.62135001       2.19424442       0.00000000    3596.39298660     893.09528691   -1171.60385693
C        5.66636322      10.30434227      -0.87815120       0.00000000     714.73624369     328.45592067     608.50393375
C       -5.18478779      12.23671716      11.37067575       0.00000000      13.04609928     -42.79479921      78.14125237
C        7.99125132      -1.91465806       5.91815764       0.00000000     -76.22328897    -152.44713890      37.07903194
C        7.35634745       4.51320247       0.15923239       0.00000000     769.81652385    -923.03814120    1563.23577466
C        8.06336824       3.42559896       0.90814773       0.00000000   26290.96762840  -17688.20500337   83971.76694665
C        8.15486334       8.83845596       1.88207597       0.00000000  -45140.52000575   46631.42008405  348553.22909529
C        6.56350403      10.03244061       1.23017267       0.00000000  -10955.18652863   -3698.67963909   -7449.32193383
C        1.27825950       1.41881288       6.71612340       0.00000000   -2082.73076648    5746.80698452   -3873.69707677
C       -1.53812647       4.14139408       4.86435563       0.00000000 -606530.77882667 2475870.99153694 -2583807.38687095
C       -3.89329073       4.87288921      -2.51744606       0.00000000     -18.60068705     -76.68872366      48.82175411
C       -3.65828652       8.31039581       2.60879293       0.00000000 -211037.75989276  251780.22465967    9310.95281268
C       -3.94256241       9.42355923       2.72914962       0.00000000 -367224.28509553 -495574.35364850   12767.56170904
C        3.68826347      -3.70731643       2.11743390       0.00000000  -16987.09468441   21839.56700720     142.05942181
O       -0.34330707       4.75689329       4.65586718       0.00000000  289096.71634134  -22374.36258387   94562.47199006
C        0.85552732       6.41551924       6.28011037       0.00000000    5737.73534250    7826.56508403   -4873.65942652
C        2.61071707      10.57765024       4.13377595       0.00000000   -1557.06971437   -2854.17023052    -390.70624696
C        2.51763111       9.48267394       5.41435053       0.00000000      26.64505819    -235.16182014     -93.02174875
C        5.32760414       0.93988566       8.03374660       0.00000000      -4.64588267       8.41019401     -11.83752769
P        2.58348827       3.37069811       5.27890126       0.00000000  -15598.79577974    3202.34123020    6265.70084755
C        1.44241292       8.97838136       7.11399174       0.00000000    -109.99166930    -224.19046465     -10.63624412
C        1.20290571      16.64601505       1.73427935       0.00000000    -665.57577276   12029.06510263     885.38307144
C       14.52474571      -7.68974463      -2.15679938       0.00000000     -26.76100153      78.65537448     334.05560725
C        9.31916234       0.96732541       5.46258803       0.00000000   -1555.46553128    1440.04882306   -1018.98331378
C        5.87446218       8.10031735       2.41263844       0.00000000   22772.28862853  -11777.70531577    6021.42771830
C        6.41583789      10.41765040       0.22088986       0.00000000   -1921.13873093     993.99143185   -3880.42423203
C        3.90634039       7.45684625       1.90012236       0.00000000    1986.49589619     245.72518709     681.75408212
C        5.53044009       0.11291268      14.39314120       0.00000000     -84.05343625     -74.74245876      21.45701927
C        7.92671158       3.51757862      15.51257057       0.00000000  -27854.88651758   17954.35420932  -87896.79998623
C        6.91842737       7.07700111       3.44640613       0.00000000  -14263.99702868    8726.20131111  -17509.60499853
C        7.52369205       8.57801011       2.66588233       0.00000000 -254486.37697838 -259092.44035824  -64280.62877479
C        2.52670380       8.85400279       2.76550707       0.00000000    -164.65284522     140.33056212      10.11304869
Pt      -0.07396630       4.24685889       6.51937857       0.00000000  -84097.37514213  -11110.59738568 -192823.38227501
O       -0.78047090       3.69876894       5.85144556       1.00000000   83857.60731355  176757.26545308 -185261.66330972
O       -0.22850808       5.42313569       5.69534402       1.00000000 -233097.19696441 -203062.03780067  -85611.80536948
