51
Lattice="12.336457 0.0 0.0 -6.168228499999997 10.683685154694365 0.0 0.0 0.0 15.0" Properties=species:S:1:pos:R:3:initial_magmoms:R:1:forces:R:3 energy=-448.33254854364947 free_energy=-448.33254854364947 stress="-0.008450186421789652 -9.584484087601584e-05 3.97544849551612e-06 -9.584484087601584e-05 0.002623976938360399 -4.218074461494506e-06 3.97544849551612e-06 -4.218074461494506e-06 2.1489831848636438e-06" pbc="T T T"
C        0.00965061      -0.01629716       3.63421401       0.00000000      -0.00086677       0.00094096       0.00203535
C       -1.25229811       2.09786210       3.45187830       0.00000000       0.00055049       0.00455814       0.00928234
C       -2.49008179       4.25435257       3.73041243       0.00000000       0.00338993      -0.00542997      -0.00713213
C       -3.69049130       6.40962191       3.97114867       0.00000000       0.00457580       0.00598952       0.00042886
C       -4.91310669       8.56246772       3.90160321       0.00000000      -0.00087370      -0.00093745       0.00595495
C        2.48129270       0.02431913       3.64401924       0.00000000      -0.00361532      -0.00497318      -0.00332125
C        1.23236109       2.05196533       3.12901807       0.00000000       0.00286415      -0.00422561       0.00555019
C       -0.19614707       4.31365186       3.02202082       0.00000000      -0.00075570       0.00739772      -0.01255704
C       -1.30031228       6.42757583       3.60501210       0.00000000       0.00368772      -0.00428475      -0.00165375
C       -2.46739186       8.56544005       3.80756515       0.00000000       0.00126296       0.00577130       0.00396747
C        4.95057072      -0.00073888       3.68041789       0.00000000       0.00025044      -0.00788162       0.01730806
C        3.73551570       2.17665336       3.45607376       0.00000000       0.00728150       0.00177644       0.01056118
C        1.10043296       6.39508910       3.17389476       0.00000000      -0.00719841      -0.00054093      -0.00515736
C       -0.00233808       8.52195773       3.60805508       0.00000000      -0.00942481       0.00005635      -0.00405665
C        7.42523527      -0.05842993       3.69861597       0.00000000      -0.00004596       0.01029740      -0.00526752
C        6.20058127       2.10090145       3.78608705       0.00000000      -0.00984129      -0.00526912       0.00859418
C        5.01113161       4.26370598       3.75491189       0.00000000       0.00543757       0.00387848       0.00262525
N        3.89506423       6.39670675       3.56261798       0.00000000       0.00315498       0.00188617      -0.00527112
C        2.49323257       8.45283665       3.56639856       0.00000000      -0.00293579      -0.01060184      -0.00604824
C        9.87649912      -0.05767181       3.67072449       0.00000000       0.00301768      -0.00119051      -0.00343710
C        8.65042527       2.09266576       3.78152628       0.00000000      -0.00146048      -0.00015297       0.00265526
C        7.43064496       4.24737684       3.98926685       0.00000000       0.00067583       0.00153625      -0.00596423
C        6.22498456       6.41944023       4.01911642       0.00000000      -0.00716669       0.00428599      -0.00431288
C        4.96353104       8.51603524       3.79536042       0.00000000       0.00853802       0.00385584      -0.00219686
C       -0.00715025       1.39179518       3.39116847       0.00000000      -0.00155823      -0.00164314       0.00571225
C       -1.30130384       3.53593509       3.40098838       0.00000000       0.00713375       0.00419240       0.00107176
C       -2.48929577       5.68780799       3.79721239       0.00000000       0.00368155      -0.00540928      -0.00740704
C       -3.68793233       7.84433431       3.92224325       0.00000000       0.00418589       0.00750888       0.00091420
C       -4.91625234       9.98425076       3.73317540       0.00000000      -0.00289963      -0.00392416       0.01020380
C        2.47990510       1.43986489       3.39658704       0.00000000       0.00563255      -0.00210204      -0.00099408
P        1.16464344       3.55803321       2.16024721       0.00000000      -0.00497060      -0.00296807       0.00715356
C       -0.13180490       5.72039526       3.23653683       0.00000000       0.00253605       0.00009424      -0.00254340
C       -1.24867329       7.84370080       3.69377513       0.00000000      -0.00412827      -0.00109259      -0.00060437
C       -2.46001374       9.98914125       3.72463570       0.00000000      -0.00147572       0.00003841      -0.00357148
C        4.96245735       1.42249770       3.64511825       0.00000000      -0.00387881      -0.01177843       0.01225045
C        3.84865054       3.58609781       3.39566205       0.00000000       0.00889289       0.00596424       0.00052965
C        1.23083493       7.76544738       3.45351129       0.00000000      -0.01224689      -0.00412299      -0.00906629
C        0.01211544       9.93979792       3.67750083       0.00000000       0.00168214       0.00079949      -0.00599946
C        7.42899231       1.37015153       3.78039423       0.00000000      -0.00542929       0.00797341       0.00762638
C        6.21921526       3.52435775       3.89507254       0.00000000       0.00075101      -0.00255638       0.00048510
C        5.03145078       5.70487663       3.83939463       0.00000000      -0.00398486       0.00121323       0.00627001
C        3.75211758       7.76105974       3.64527002       0.00000000       0.00867308       0.00059419      -0.00474119
C        2.48602437       9.88559703       3.65847997       0.00000000      -0.00102979      -0.00489607      -0.01243282
C        9.87574647       1.37723399       3.64771195       0.00000000      -0.00089054       0.00335532       0.00140010
C        8.64759676       3.52573593       3.87332910       0.00000000       0.00083963      -0.00389396      -0.00383297
C        7.43465281       5.68215678       4.04235719       0.00000000      -0.00441426       0.00806300      -0.00285951
C        6.19777933       7.83841471       3.93819656       0.00000000       0.00084985       0.00029848      -0.00269870
C        4.94872631       9.93668615       3.70839479       0.00000000       0.00357529       0.00127999      -0.00472135
Pt       2.55554456       5.05790465       2.89628341       0.00000000      -0.00158545      -0.00324892       0.00304387
O        2.77009619       5.41600315       9.32671792       1.00000000      -0.01474506      -0.00221444      -0.00988860
O        1.75207464       5.26421799       8.64068833       1.00000000       0.01430158       0.00173257       0.01211317
