51
Lattice="12.336457 0.0 0.0 -6.168228499999997 10.683685154694365 0.0 0.0 0.0 15.0" Properties=species:S:1:pos:R:3:initial_magmoms:R:1:forces:R:3 energy=-437.45023764484745 free_energy=-437.45023764484745 stress="-0.005569892824743198 0.00030764506660906624 -4.396555862570475e-06 0.00030764506660906624 -0.0019089455227552768 -1.6781491828622702e-06 -4.396555862570475e-06 -1.6781491828622702e-06 -1.2804524404764726e-05" pbc="T T T"
C       -0.00194905       0.02269305       3.91162805       0.00000000       0.00523429      -0.00201274       0.00496729
C       -1.25135038       2.14912079       3.85319497       0.00000000       0.00294917      -0.00808831      -0.01019563
C       -2.48986480       4.29749166       4.09429905       0.00000000       0.00328213      -0.00674903       0.00666168
C       -3.70363789       6.44353949       4.12655831       0.00000000      -0.00827268       0.00538560       0.00049555
C       -4.93300695       8.58200893       3.98486216       0.00000000       0.00085778       0.00004248      -0.00065760
C        2.46549980       0.03688471       3.79404140       0.00000000      -0.00460359       0.00200302       0.00790199
C        1.18245541       2.06272450       3.29862968       0.00000000       0.00655415       0.00637564      -0.00967246
C       -0.19806143       4.32599842       3.37705848       0.00000000       0.00985220       0.00175098       0.00535496
C       -1.27251847       6.44922924       3.93999110       0.00000000       0.00293983       0.00181907       0.00356662
C       -2.47434145       8.58816357       4.03329951       0.00000000       0.00007394       0.00001658      -0.00199202
C        4.93228470       0.02031461       3.79371791       0.00000000      -0.00379883       0.00066112       0.00180311
C        3.72334278       2.05870063       3.15938055       0.00000000       0.00583971      -0.00439555      -0.00396872
C        1.07045907       6.45473794       3.21525682       0.00000000       0.00570397      -0.00060459       0.00061573
C       -0.01350316       8.55941580       3.77592200       0.00000000       0.00128570       0.01092119       0.00935572
C        7.39830253       0.00343444       3.84108159       0.00000000       0.00553887      -0.00017123       0.00815230
C        6.18111851       2.14689002       3.63882991       0.00000000       0.00681095      -0.00276859       0.00733110
C        5.20323257       4.32221091       2.96916719       0.00000000      -0.00471620      -0.00068283       0.01145280
P        3.95690508       6.65522142       2.09914798       0.00000000       0.00491315      -0.00602250       0.00710402
C        2.46747531       8.55911759       3.51966113       0.00000000      -0.00998069      -0.00443779       0.00344944
C        9.85905477       0.00385175       3.91223651       0.00000000      -0.00024459       0.00132139       0.00199977
C        8.62537585       2.14649501       4.00245127       0.00000000      -0.01151695       0.00386643      -0.00206662
C        7.41874530       4.29254462       3.92584254       0.00000000      -0.00465837       0.00409737       0.00203113
C        6.24780493       6.44857383       3.62744980       0.00000000      -0.00140424      -0.00175513      -0.00639780
C        4.95191801       8.58600808       3.68564816       0.00000000       0.00338103      -0.00605932      -0.00870781
C       -0.01444525       1.44205668       3.74045840       0.00000000       0.00819259      -0.00348292      -0.00904772
C       -1.28462723       3.57590674       3.84872172       0.00000000       0.01125179      -0.00632512       0.00404361
C       -2.47985770       5.72582375       4.11372808       0.00000000      -0.00437153       0.00063673       0.00663991
C       -3.70115397       7.87202510       4.08498332       0.00000000      -0.00194266       0.00474886      -0.00435272
C       -4.93036789      10.01097910       3.92857367       0.00000000       0.00022075      -0.00206968       0.00511860
C        2.45894396       1.43197620       3.39698796       0.00000000       0.00452143       0.00274970      -0.00179919
S        0.87023652       3.45716740       2.31213060       0.00000000      -0.01031588      -0.00644204       0.00350345
C       -0.10284291       5.73400328       3.52326473       0.00000000       0.00415231       0.00206854      -0.00553801
C       -1.24493240       7.87008084       3.94843039       0.00000000       0.00302439       0.00527988      -0.00598346
C       -2.47209772      10.00976872       3.89485120       0.00000000      -0.00691107      -0.00223738      -0.00486501
C        4.94126793       1.43496881       3.54747727       0.00000000       0.00759887      -0.00291047      -0.00542127
S        3.93180831       3.45669723       2.11906732       0.00000000       0.00054734       0.00179827      -0.00871474
C        1.20707257       7.83155266       3.49325916       0.00000000      -0.00720608      -0.00178393       0.00915928
C       -0.00441593       9.98035646       3.82393349       0.00000000       0.00192354       0.01000470       0.00758056
C        7.39107960       1.43542255       3.86932061       0.00000000       0.00026803      -0.00395014       0.00360868
C        6.24067904       3.56993954       3.55039153       0.00000000       0.00256031      -0.00049217       0.00161001
C        5.19765707       5.71968753       3.01258974       0.00000000      -0.00330601      -0.00095020      -0.00141205
C        3.73063564       7.95273354       3.30104945       0.00000000      -0.00749162       0.00712313      -0.01105838
C        2.46037781       9.97003175       3.80176334       0.00000000       0.00100874       0.00044949      -0.01535945
C        9.86330019       1.43442640       3.97971140       0.00000000      -0.01003539       0.00351782      -0.00246257
C        8.62718020       3.57126791       4.08235552       0.00000000      -0.00695953       0.00171602       0.00419587
C        7.42374210       5.72080491       3.96046085       0.00000000      -0.00666149       0.00275960      -0.00358176
C        6.19221526       7.87257612       3.77438169       0.00000000       0.00477539      -0.00707919       0.00107923
C        4.93149504       9.99284733       3.90122434       0.00000000       0.00426892      -0.00387809      -0.00490603
Pt       2.39344430       5.17295451       2.42690684       0.00000000      -0.00575791       0.00443067      -0.00214117
O        2.05582318       4.79300282       8.61759725       1.00000000      -0.00764170       0.01047245      -0.01237891
O        2.58315637       4.11481850       9.50664708       1.00000000       0.00826575      -0.01066778       0.01389871
