52
Lattice="12.336457 0.0 0.0 -6.168228499999997 10.683685154694365 0.0 0.0 0.0 15.0" Properties=species:S:1:pos:R:3:initial_magmoms:R:1:forces:R:3 energy=-457.6799881880769 free_energy=-457.6799881880769 stress="-0.0013177550149715215 8.10151879538509e-06 -7.108879306963005e-06 8.10151879538509e-06 -0.001084965122403988 -4.394343294568002e-05 -7.108879306963005e-06 -4.394343294568002e-05 8.730262795650679e-05" pbc="T T T"
C        0.01224422       0.00564878       3.53794562       0.00000000       0.00051756       0.00031746       0.00013945
C       -1.21796785       2.14718605       3.64801442       0.00000000       0.00208291       0.00087053       0.00001029
C       -2.44859449       4.28129381       3.64008442       0.00000000       0.00019884       0.00087944      -0.00009596
C       -3.68656450       6.41477875       3.53615604       0.00000000       0.00060889      -0.00062565       0.00093772
C       -4.92084221       8.55251324       3.49107392       0.00000000      -0.00057047      -0.00001555      -0.00042964
C        2.48118112       0.00332130       3.52835738       0.00000000      -0.00091612      -0.00030774      -0.00201235
C        1.24259311       2.12696437       3.70028570       0.00000000       0.00004787      -0.00214042      -0.00078465
C        0.02570703       4.29885884       3.86238284       0.00000000      -0.00002650       0.00086607       0.00050857
C       -1.22256541       6.42201919       3.62312948       0.00000000       0.00008810       0.00058945       0.00029512
C       -2.45282030       8.55248662       3.49441879       0.00000000       0.00060865       0.00096174      -0.00187223
C        4.95020879       0.00541480       3.53618203       0.00000000      -0.00050507       0.00124763      -0.00000289
C        3.71966911       2.12682514       3.69483558       0.00000000      -0.00072560       0.00106383      -0.00399312
C        2.48201116       4.12156600       4.26727170       0.00000000       0.00080621      -0.00449931      -0.00240571
N        1.12216219       6.50829062       4.06744610       0.00000000       0.00624080      -0.00334325       0.00297655
C        0.00949518       8.55195587       3.56887849       0.00000000      -0.00010112      -0.00213864      -0.00094046
C        7.41867824       0.00047177       3.58915797       0.00000000      -0.00025056      -0.00006664       0.00197770
C        6.18054936       2.14688190       3.63940707       0.00000000      -0.00071227       0.00038330       0.00212669
C        4.93662558       4.29836676       3.84731912       0.00000000      -0.00075285      -0.00063208       0.00124521
N        3.83896754       6.50652811       4.04092392       0.00000000      -0.00436079      -0.00185704      -0.00026271
C        2.48140663       8.51831612       3.68871224       0.00000000      -0.00111218      -0.00243459       0.00051577
C        9.88066048       0.00067868       3.59008983       0.00000000       0.00032566      -0.00134510       0.00029560
C        8.64961799       2.14327447       3.61755543       0.00000000      -0.00056575       0.00166385       0.00121746
C        7.41139330       4.28118944       3.63331235       0.00000000      -0.00057661       0.00074480       0.00122566
C        6.18547473       6.42174744       3.61110540       0.00000000      -0.00253781      -0.00028028       0.00035610
C        4.95308168       8.55175883       3.55836058       0.00000000      -0.00069050       0.00103372      -0.00093697
C        0.00974546       1.42713450       3.61496535       0.00000000       0.00053547      -0.00008906      -0.00090864
C       -1.20566522       3.57996563       3.71155391       0.00000000      -0.00134121      -0.00054674      -0.00022536
C       -2.45229713       5.70282863       3.59006109       0.00000000       0.00086259       0.00069379       0.00102486
C       -3.68672266       7.83866799       3.49419004       0.00000000      -0.00053382       0.00051442       0.00017094
C       -4.92198019       9.97806805       3.50398875       0.00000000      -0.00030166       0.00098458      -0.00092885
C        2.48097766       1.42200035       3.63528927       0.00000000       0.00055905       0.00026161      -0.00232427
C        1.23867086       3.54011068       3.93300723       0.00000000      -0.00115717       0.00063888       0.00068428
C        0.00216014       5.73433975       3.83644224       0.00000000       0.00393065       0.00113976       0.00172091
C       -1.22232080       7.84053006       3.54922819       0.00000000       0.00052213      -0.00145956       0.00021082
C       -2.45197693       9.97797900       3.50438475       0.00000000      -0.00082404       0.00045789      -0.00103418
C        4.95264740       1.42691773       3.60838575       0.00000000       0.00016993       0.00166301       0.00014256
C        3.72397238       3.53976993       3.92405694       0.00000000       0.00217555       0.00098983      -0.00073956
C        1.22317399       7.84164797       3.73264645       0.00000000       0.00196291      -0.00278335       0.00284903
C        0.01601328       9.97861072       3.54866650       0.00000000       0.00036941      -0.00135652      -0.00041122
C        7.41532686       1.43046546       3.60607421       0.00000000      -0.00081730       0.00314675       0.00325521
C        6.16812877       3.57963623       3.70018084       0.00000000       0.00133095      -0.00012542       0.00095059
C        4.96078637       5.73332810       3.81737625       0.00000000      -0.00451142      -0.00065497       0.00323821
C        3.73909807       7.84084850       3.71719332       0.00000000      -0.00408279      -0.00289084       0.00037622
C        2.48132223       9.95313034       3.61518875       0.00000000      -0.00027602      -0.00229038       0.00064014
C        9.88398996       1.43062134       3.61072732       0.00000000       0.00007882       0.00065527      -0.00165769
C        8.64969003       3.56847019       3.62255783       0.00000000       0.00024438       0.00014355       0.00133883
C        7.41537619       5.70287927       3.58381074       0.00000000      -0.00027149      -0.00107739       0.00056167
C        6.18508465       7.84051315       3.54002790       0.00000000      -0.00069493      -0.00105672       0.00166465
C        4.94665729       9.97870098       3.54674094       0.00000000       0.00075794       0.00007165       0.00033903
Pt       2.49189354       5.73908880       5.32797803       0.00000000       0.01692827      -0.03964055       0.03792923
O        1.51427787       3.72711732       9.68978298       1.00000000       0.00602075       0.00437809      -0.03103959
O        2.62097431       7.22551524       6.44121651       1.00000000      -0.01875824       0.04729692      -0.01791902
