52
Lattice="12.336457 0.0 0.0 -6.168228499999997 10.683685154694365 0.0 0.0 0.0 15.0" Properties=species:S:1:pos:R:3:forces:R:3 energy=-447.0989571755175 free_energy=-447.0989571755175 stress="-0.0023304152137608113 -0.00035684168288320234 3.956076029620191e-06 -0.00035684168288320234 0.006837470383828458 9.579637104156475e-06 3.956076029620191e-06 9.579637104156475e-06 -2.337546583212212e-05" pbc="T T T"
C        0.11074053       0.05697053       3.71621303       0.00176041      -0.00448860      -0.00055863
C       -1.13526207       2.17463022       3.58745059       0.00123076      -0.00308649      -0.00270496
C       -2.34991343       4.31825173       3.50679720      -0.00500440      -0.00128555      -0.00520946
C       -3.56930325       6.46895720       3.58518554      -0.00093906      -0.00103870      -0.00397701
C       -4.80679514       8.62206084       3.68724754       0.00448719      -0.00141051       0.00427584
C        2.57333728       0.10276017       3.76533949       0.00428373       0.00210953       0.00024479
C        1.29938536       2.21388578       3.75058959       0.00380075      -0.00269916      -0.00105746
C        0.08192317       4.31152319       3.44737514      -0.00244622      -0.00214521      -0.00550550
C       -1.11939624       6.45765541       3.44984858      -0.00647823       0.00352741       0.00479335
C       -2.34622398       8.61370887       3.62070210      -0.00408253       0.00008539      -0.00311091
C        5.04590001       0.05672250       3.86217856      -0.00050882       0.00280931      -0.00121120
C        3.79466351       2.15387093       4.29136546       0.00077742      -0.00174280       0.01067777
O        1.21865624       6.46229545       3.81085627      -0.00558570       0.00326105      -0.00430243
C        0.11053590       8.57387289       3.73384392      -0.00151418       0.00208134      -0.00538484
C        7.51858262       0.01267329       3.85267320       0.00146905      -0.00365361      -0.00319906
C        6.30260766       2.17306126       4.05578594       0.00153351       0.00204154       0.00192609
C        5.24061640       4.38443873       4.47628204       0.00004480       0.00121724       0.00075361
C        3.94995284       6.45912946       4.46688995       0.00830385       0.00747438       0.00344400
C        2.56154037       8.51630990       3.95024421       0.00126789       0.00057507      -0.00250569
C        9.97270739       0.01224060       3.77744377       0.00065771       0.00274093       0.01155186
C        8.74898122       2.16633397       3.73851195      -0.00569716       0.00356305      -0.00664128
C        7.56013309       4.32251711       3.82449957      -0.00416321       0.00393609      -0.00860088
C        6.35686349       6.48699149       3.91010759       0.00330905      -0.00429558      -0.00727678
C        5.05202060       8.58103268       3.89423446       0.00543981      -0.00342089      -0.00736758
C        0.10573162       1.49025870       3.66871458       0.00268710      -0.00395560       0.00296532
C       -1.12298903       3.60093970       3.46678480      -0.00369103      -0.00327375      -0.00044197
C       -2.34909435       5.74185730       3.47962634      -0.00457097      -0.00077548      -0.00195205
C       -3.57890499       7.90186034       3.60775228      -0.00038273      -0.00240033       0.00009945
C       -4.81620855      10.05363941       3.70362991       0.00462987      -0.00045446       0.00615099
C        2.55333193       1.53557739       3.93529098       0.00502789       0.00211553       0.00023191
O        1.25450825       3.59310805       3.64950995      -0.00257443      -0.00267163       0.00154490
C        0.06522506       5.72887154       3.46507587      -0.00654894       0.00087225       0.00447259
C       -1.12445703       7.88730930       3.58475396      -0.00427471       0.00551666      -0.01096155
C       -2.35971387      10.05052104       3.74554344       0.00023668      -0.00040983       0.00310152
C        5.03958501       1.47960577       4.08137900       0.00202182       0.00191776       0.00407466
P        3.87192853       3.65716892       5.30142319       0.00222604      -0.00813308      -0.00047268
C        1.31023529       7.85899121       3.83757480      -0.00124991       0.00019963      -0.00113074
C        0.11154080      10.00730495       3.82036177      -0.00032357       0.00080644       0.00260692
C        7.51766849       1.45283606       3.87596819       0.00007815      -0.00208354       0.00560987
C        6.36199761       3.60646274       4.11800805       0.00099080       0.00382188       0.00335612
C        5.18898837       5.78589996       4.28083775       0.00207804       0.00090905      -0.00307728
C        3.83548821       7.84633716       4.09609793       0.00398912       0.00733780       0.00979956
C        2.57396543       9.95682722       3.85212385       0.00174009      -0.00108117      -0.00618198
C        9.97945411       1.45037835       3.68400821      -0.00326737       0.00224759      -0.00648306
C        8.76315268       3.59801660       3.66944001      -0.00651662       0.00416945       0.00313334
C        7.56004204       5.75098854       3.75172412       0.00284501      -0.00039786      -0.00243102
C        6.31093490       7.90364559       3.81382708       0.00622316      -0.00548658      -0.00355687
C        5.04663134      10.00561515       3.77792569       0.00093874      -0.00341996       0.00248675
Pt       2.53983231       5.36925479       5.19085401       0.00454458      -0.00040860       0.00518985
O        0.76248554       4.99629152       5.92963980      -0.00426379      -0.00591366      -0.00099543
O        0.73173673       3.60405887       6.36896367       0.01584553       0.02255603       0.02240450
H        0.49600036       3.76371769       7.30856387      -0.02038498      -0.01775978      -0.00859726
