51
Lattice="12.336457 0.0 0.0 -6.168228499999997 10.683685154694365 0.0 0.0 0.0 15.0" Properties=species:S:1:pos:R:3:initial_magmoms:R:1:forces:R:3 energy=-449.701469391094 free_energy=-449.701469391094 stress="-0.011257786546399627 0.0006200056881264845 -7.065664685218024e-05 0.0006200056881264845 0.00643609328698021 7.66082380173108e-05 -7.065664685218024e-05 7.66082380173108e-05 0.0002037213091699473" pbc="T T T"
C       -0.03797944       0.04026571       3.74354736       0.00000000       0.00216041       0.00292855      -0.00748529
C       -1.30328677       2.12923739       3.71723299       0.00000000      -0.00275916      -0.01480991       0.00156075
C       -2.55107552       4.28717707       3.60144490       0.00000000      -0.00263987      -0.00526825       0.01566956
C       -3.75626651       6.45148151       3.55060409       0.00000000       0.00965006       0.00800931       0.00787794
C       -4.96477217       8.60966732       3.63474348       0.00000000       0.00487689       0.00764096       0.02000390
C        2.43452262       0.10450018       3.76062453       0.00000000      -0.00923479      -0.00361651      -0.02039493
C        1.17958755       2.23090418       3.85011250       0.00000000       0.02660890       0.00670536      -0.02497363
C       -0.16912484       4.29197054       3.80440338       0.00000000       0.00288053       0.00542404      -0.01143489
C       -1.35675911       6.45656571       3.69254570       0.00000000       0.00952550      -0.00253050       0.01229165
C       -2.52275144       8.60861962       3.68496137       0.00000000      -0.00924109      -0.00505363       0.00000860
C        4.90174279       0.03130851       3.75459628       0.00000000      -0.00862158      -0.00857777      -0.00579343
C        3.70995650       2.18533334       3.75975669       0.00000000      -0.00196681      -0.03446621      -0.01045729
C        1.06937024       6.36183496       3.93899856       0.00000000      -0.04614433       0.04982942      -0.03910628
C       -0.04746470       8.54156925       3.79475187       0.00000000      -0.00581064      -0.01064919      -0.01419755
C        7.37491031      -0.03895498       3.74192035       0.00000000      -0.00480442       0.02206110      -0.00163046
C        6.15664243       2.12851658       3.64743902       0.00000000       0.00200498      -0.00203283      -0.00320440
C        5.00567488       4.29930360       3.53015444       0.00000000       0.01937450      -0.02349597       0.00066725
N        3.81928286       6.39521721       3.80497378       0.00000000       0.06068563       0.08599996      -0.05115984
C        2.43736055       8.46293129       3.81829665       0.00000000      -0.01608293       0.00897770      -0.02001223
C        9.82283613      -0.03519363       3.73217891       0.00000000       0.00037431      -0.00551387      -0.00044095
C        8.59436427       2.11932136       3.63177781       0.00000000      -0.00740259      -0.00396691       0.00796431
C        7.37641348       4.28744183       3.52579743       0.00000000       0.00426947      -0.00916622      -0.00236302
C        6.16680290       6.45135881       3.52051859       0.00000000      -0.00507932      -0.01001003       0.00610787
C        4.90950656       8.54271453       3.69923863       0.00000000       0.01393224       0.00258161       0.00247301
C       -0.04231374       1.46927958       3.77800248       0.00000000       0.01680382      -0.00450810       0.02099263
C       -1.35269522       3.55055611       3.69358970       0.00000000      -0.00013589      -0.00197116       0.00402709
C       -2.55602637       5.72150569       3.59838357       0.00000000       0.01294063       0.00752631      -0.00340317
C       -3.74561107       7.88810648       3.60705953       0.00000000      -0.00240131      -0.00640519       0.02715700
C       -4.96248119      10.04362812       3.72020732       0.00000000       0.00138841      -0.00404139      -0.00655277
C        2.45100072       1.54608170       3.80830051       0.00000000      -0.00176404      -0.01351335       0.00496352
C        1.07869570       3.65420037       3.93435861       0.00000000      -0.02918496      -0.01782206      -0.01138408
C       -0.17720078       5.71171115       3.80506683       0.00000000       0.00488925       0.01170510       0.00434685
C       -1.30631444       7.87888101       3.72192496       0.00000000      -0.00495395      -0.00292326       0.01026892
C       -2.51323899      10.04233181       3.73905570       0.00000000      -0.01160069      -0.00322271       0.00191263
C        4.91130823       1.46183923       3.72843464       0.00000000       0.00634024      -0.01460475       0.00576700
O        3.81784157       3.58928386       3.68461150       0.00000000       0.05380017      -0.05492660      -0.06064142
C        1.17824677       7.78874222       3.86055168       0.00000000      -0.00324869      -0.00938877      -0.00516730
C       -0.03671849       9.96599835       3.76515630       0.00000000      -0.00303903      -0.00374665       0.01398290
C        7.37002874       1.39908634       3.66851836       0.00000000       0.00053071       0.00601496       0.00740048
C        6.16613697       3.55477657       3.55280254       0.00000000       0.01320019      -0.01203967       0.00198135
C        4.97313954       5.70717728       3.56112472       0.00000000      -0.00471179      -0.02368394       0.00295022
C        3.70078686       7.75721458       3.76714392       0.00000000      -0.01574445       0.02240860       0.00776644
C        2.43341586       9.90092543       3.76532757       0.00000000      -0.00376174       0.01072324      -0.00446126
C        9.81560282       1.39642067       3.68756195       0.00000000      -0.01079976      -0.00132778       0.01572696
C        8.58379778       3.55670070       3.57001727       0.00000000      -0.00266452      -0.01251774       0.01019397
C        7.36996469       5.71820979       3.50595470       0.00000000       0.00860313       0.00066329       0.01215945
C        6.14772454       7.87490962       3.61159072       0.00000000       0.02178394      -0.00257983      -0.00797121
C        4.89903361       9.96966159       3.72861895       0.00000000       0.00254751       0.00050364       0.00590815
Pt       2.40468227       5.02556238       4.14423674       0.00000000      -0.19054397       0.20111488       0.28077717
O        3.39324814       3.89764037       6.39255836       1.00000000       0.03365211       0.03575007      -0.10589825
O        3.47004238       5.08460179       5.87906466       1.00000000       0.07151876      -0.16818732      -0.09477392
