51
Lattice="12.336457 0.0 0.0 -6.168228499999997 10.683685154694365 0.0 0.0 0.0 15.0" Properties=species:S:1:pos:R:3:initial_magmoms:R:1:forces:R:3 energy=-24900.169954071498 free_energy=-24900.169954071498 stress="13.122113192375517 -1.1853829586036648 -19.74917839671912 -1.1853829586036648 59.24961976771307 -4.897546280256041 -19.74917839671912 -4.897546280256041 -9.66866879847888" pbc="T T T"
C        0.05718928      -0.12409156       1.70057935       0.00000000      -0.38052779      -5.09169036      -2.97876270
C       -1.38534927       3.41731544       4.60961825       0.00000000     732.50115569     297.14666769     355.57800012
C       -2.85820459       3.66500709       3.78135957       0.00000000    -407.51734970     313.86718770    -295.28044300
C       -3.85526110       6.78317267       3.64003687       0.00000000       6.83810498     -17.24253557      16.03862961
C       -4.45922084       8.36139785       0.38990572       0.00000000      -2.00108268       1.28489460       1.39476827
C        2.74942125      -0.42655598       0.38795683       0.00000000      -3.34630515      -0.98363955       3.44606578
C        1.67970719       1.39998471       0.68548677       0.00000000       0.37643923      -0.84041130       3.24824952
C        0.63775117       3.84364815       6.04187686       0.00000000   -5308.07074132    -292.91624557   -7906.41974345
C       -1.38876749       6.13105856       8.40088898       0.00000000   10778.84414707   -4203.39599200   -7617.80499753
C       -2.89376443       8.80666345       4.02277748       0.00000000      -4.60785193       9.32754729      -7.95495169
C        4.73437908       0.88655239       4.31716322       0.00000000      -4.96818168     -26.00694597       8.20425199
C        4.01484718       1.62445162       2.14164223       0.00000000       0.61114883      -4.01131645      -3.60499878
C        0.91828314       6.72958491       5.78114914       0.00000000   -3091.66374439   -6215.67167484    5725.12812556
C       -1.32309089       8.86514162       6.61555516       0.00000000      81.95599608    -113.75767718      95.81597905
C        7.20987593       0.20654969       6.48673835       0.00000000       7.56299196      20.04444478      -3.70264012
C        6.26419681       2.45863659       4.44071984       0.00000000       5.69611289      -0.43389373      -1.44668832
C        6.01690422       5.07464586       2.61434739       0.00000000      -1.83085783       6.42076855      -0.88933422
P        2.03542257       5.58039100       3.64360988       0.00000000     156.98494397     195.36904539    -343.57112808
C        2.19762656       9.06920600       2.75973239       0.00000000       8.50090818       9.24222784      -8.47679729
C       10.02912827      -0.04976414       3.56759751       0.00000000      -8.94853925      -9.54028999      -1.20212335
C        8.73622933       1.83602328       5.09471847       0.00000000      59.50665007      40.29277906       0.33354069
C        7.59555230       4.26291091       3.02483991       0.00000000    -100.81790519      52.56867478     -38.86607360
C        6.26568075       6.29495917       0.87052758       0.00000000      -0.26171963       1.80382171       2.92679692
C        5.49855618       8.71888965       0.99892818       0.00000000       1.43469657      -3.45451406      -3.15903443
C        0.49864277       0.99663603       1.98189622       0.00000000       7.37498866      -0.38103176     -13.63250238
C       -2.14696591       3.45099875       3.92468169       0.00000000      91.84581742     -66.35719373      32.43503190
C       -2.73853590       5.57828487       4.24239443       0.00000000     138.65703357      20.64072677     187.04974332
C       -3.24049740       7.92427876       2.35216798       0.00000000      -4.89214229       9.54595184      -6.88720642
C       -4.79913280       9.74466010       0.74644430       0.00000000       4.53721115       0.21938368      -1.14174924
C        3.36743989       0.73373456       0.49505324       0.00000000      -0.98643215       2.85090651       2.48363847
P        2.97332226       3.52342037       4.63202449       0.00000000    -290.28207912    1125.13507052    1395.29145490
C       -0.15154378       5.31638473       6.11808679       0.00000000    5466.89297010   13132.35061831  -27974.14476276
C       -0.13855533       8.96941411       8.18969483       0.00000000     -46.96658015    -102.91411152     -68.98286670
C       -2.64739407      10.40692392       2.13161727       0.00000000      -0.51412405       2.27424928      -1.45360800
C        5.17005570       1.83097418       3.96448973       0.00000000      24.86119306       5.41267034     -15.50108765
P        4.34853056       4.55901921       5.52219891       0.00000000   -1196.36249724     -21.48737759     203.64436385
C        1.03981559       5.24286105       8.75074616       0.00000000    9916.56920689   11178.11189086    4465.21036102
C        0.05361103      10.35581483       5.84205382       0.00000000     -19.58668552     -13.76766634       3.30496986
C        7.60792616       1.52185093       5.31497848       0.00000000     -25.54066456     -11.81908857      11.81635959
C        6.94161565       3.23429409       3.24044528       0.00000000     -33.33028235      -2.82820920      -3.61908995
C        4.92179569       6.16825026       2.39296331       0.00000000      10.47049519      -3.10468617      -3.76937865
C        4.30103560       9.31924096       2.59571566       0.00000000      -3.65283089       2.61861721       0.21749052
C        2.49948050      10.35599977       4.71257953       0.00000000       5.29332763      12.61376611      -4.88414722
C       10.14360261       1.22019659       4.32093535       0.00000000     -27.10611514      27.03826166      13.83632893
C        8.83945987       3.14442372       4.15482634       0.00000000    -126.60056669    -155.60397815      61.53973291
C        7.32784505       5.68834268       2.45074743       0.00000000       2.11504481      -2.37850586       4.58537366
C        6.67903441       7.78425834       0.08803894       0.00000000      -3.80629744      -2.21281513       4.85927451
C        4.99446077       9.91180876       1.39729881       0.00000000      -0.12067055      -3.36728069       1.22309797
Pt       1.66760007       4.49586934       6.15205782       0.00000000    -853.88697395   20085.56436656    5458.82897353
O        0.11013431       5.15201099       7.27559418       1.00000000  -70193.78226478 -396403.71736204   59179.62882253
O        0.00058425       4.90143941       7.36210740       1.00000000   54252.40142943  361131.54159428  -32908.69530946
