52
Lattice="12.336457 0.0 0.0 -6.168228499999997 10.683685154694365 0.0 0.0 0.0 15.0" Properties=species:S:1:pos:R:3:forces:R:3 energy=-452.3933522325713 free_energy=-452.3933522325713 stress="-0.00992031762092533 0.0015237970996162956 -2.5847517793477162e-06 0.0015237970996162956 0.002631836713458441 -2.4572207096471717e-05 -2.5847517793477162e-06 -2.4572207096471717e-05 -1.0711350241457773e-06" pbc="T T T"
C        0.01431312      -0.01164774       3.88749723       0.00204280      -0.00593955      -0.00981186
C       -1.23105160       2.09146044       4.09183969      -0.00415715       0.00231976      -0.00013908
C       -2.47080616       4.24691017       4.12828401      -0.00321569      -0.00129386       0.00087172
C       -3.69172530       6.39981981       3.93923105       0.00639606       0.00102273      -0.00523725
C       -4.91917810       8.54811637       3.76641705      -0.00098927      -0.00023386       0.00546108
C        2.48256613       0.03465455       3.85322789       0.00268269      -0.00052267      -0.00485841
C        1.24071546       2.16725202       3.93379741       0.00219355       0.00125032      -0.00136101
C       -0.05952225       4.25798375       4.10809312      -0.00026643       0.00531580      -0.00395036
C       -1.27595327       6.41898055       4.11931620      -0.00056831       0.00087249      -0.00300344
C       -2.47255644       8.55685134       3.96274196       0.00381683      -0.00371115       0.00854671
C        4.95459899      -0.01545360       3.86907809      -0.01011092       0.00758222       0.01321346
C        3.74904158       2.15044516       3.66569146       0.00306339       0.00364465       0.00200468
N        1.09299403       6.38106703       3.90824897      -0.00225932      -0.00456819      -0.00241453
C       -0.00366982       8.50436811       3.95271119       0.00330706       0.00063424       0.00538975
C        7.42723527      -0.06779460       3.93939027       0.00103316      -0.00150012       0.00110816
C        6.22813411       2.07592595       3.76583721       0.00210545      -0.00314434       0.00412974
C        5.12143642       4.19877820       3.27106039      -0.00479769      -0.00270745      -0.00529875
P        3.70125661       6.35583863       2.38684825      -0.00362356      -0.00402735       0.00665761
C        2.47599875       8.46255209       3.72020025       0.00288512      -0.00637066      -0.00156265
C        9.88292563      -0.06428454       3.93793508       0.00626239       0.00350472       0.00151800
C        8.66083287       2.08076226       4.01531451      -0.00135418      -0.00143053      -0.00797226
C        7.47332524       4.23347591       3.77760877      -0.00465830      -0.00224047       0.00589577
C        6.26906549       6.38995632       3.42352630      -0.00101715       0.00406606      -0.00339219
C        4.95795266       8.52186620       3.57664597      -0.00543356       0.00029403      -0.00367936
C        0.00747944       1.41007145       3.99377644      -0.00178493      -0.00443984       0.00253893
C       -1.25965517       3.52009253       4.15978499      -0.00209958       0.00467828       0.00111763
C       -2.48176058       5.68141879       4.10201952       0.00301304      -0.00156086      -0.00076413
C       -3.69504754       7.83368609       3.89787838       0.00458818      -0.00009967      -0.00790694
C       -4.91471491       9.98217182       3.83577138       0.00466253      -0.00403709       0.00733364
C        2.49362863       1.46732833       3.81607884       0.00656098       0.00118826       0.00113380
C        1.13677761       3.56782116       3.97397602      -0.00199095       0.00458859       0.00088920
C       -0.06818485       5.70408768       4.07615256      -0.00118036       0.00375119      -0.00370104
C       -1.24852102       7.83437607       4.03380182       0.00520270      -0.00123508      -0.00340270
C       -2.46026032       9.98460737       3.88896581      -0.00379431      -0.00234186       0.00758470
C        4.97559769       1.39978950       3.75530399       0.00069645       0.00520494       0.00525928
C        3.86753369       3.55737551       3.44976870      -0.00598651      -0.00032926      -0.00085164
C        1.20887633       7.74385336       3.84365857       0.00238823      -0.00632839       0.00208744
C        0.01386779       9.92772139       3.92164767      -0.00757141       0.00419529       0.00724673
C        7.43980675       1.35815131       3.92579523       0.00259783      -0.00314276      -0.00061735
C        6.28847575       3.48625418       3.58838510      -0.00564824      -0.00283655      -0.00165206
C        5.16091921       5.60957335       3.05675835       0.00304133      -0.00261314      -0.00980923
C        3.70980673       7.84770785       3.39223240      -0.00222876      -0.00176322      -0.01465833
C        2.48179939       9.88705816       3.90109154       0.00754585      -0.00097839      -0.00164961
C        9.88083987       1.36183908       4.04824673      -0.00256029       0.00403696       0.00199550
C        8.66431735       3.51578011       4.00720178      -0.00321079      -0.00405161      -0.00184231
C        7.46038090       5.66778612       3.72812270      -0.00110218       0.00183783       0.00589523
C        6.20947708       7.82495765       3.55872504      -0.00603389       0.00505726       0.00030738
C        4.95431265       9.93568486       3.82392774       0.00079482      -0.00364459       0.00619599
Pt       2.54353291       4.92871597       3.73257439       0.01497053       0.00253389      -0.00587126
O        3.01141179       5.59512266       5.65440203      -0.00374668      -0.00510577       0.00820301
O        1.81734094       5.49524239       6.45042059      -0.00435269       0.00068646      -0.00677101
H        2.08813216       4.81937634       7.10938601       0.00389215       0.01393232      -0.00040633
