51
Lattice="12.336457 0.0 0.0 -6.168228499999997 10.683685154694365 0.0 0.0 0.0 15.0" Properties=species:S:1:pos:R:3:initial_magmoms:R:1:forces:R:3 energy=-232392.2125244772 free_energy=-232392.2125244772 stress="225.79693719719228 188.38663291921242 -188.7145215911769 188.38663291921242 347.19972065844854 -212.8065759123635 -188.7145215911769 -212.8065759123635 477.40789380853516" pbc="T T T"
C       -3.16424536       4.27822403       5.86496477       0.00000000      14.13415867      -1.56692839       8.69446156
C       -3.78961323       7.22737007       5.05480516       0.00000000     -15.24105473      10.04315329      40.04388432
C       -3.01623005       2.33576665       2.49649161       0.00000000      -3.17688490       3.11328143      -1.82427634
C       -1.81775246       8.21940220       5.88894727       0.00000000     -21.64078823      -6.49886568      11.36892210
C       -5.63085158       9.06349444       3.19170016       0.00000000    -256.12351229   -2784.18636583    1533.21950308
C        0.50786599      -1.75749718       2.48847635       0.00000000    -965.95321444    1046.83578985   -5486.85668123
C        0.59419733       0.19035365      -1.25231049       0.00000000      25.62840283      29.00370838     -25.98942938
C       -1.26606282       1.91219794       4.04402001       0.00000000       1.98563761      10.87490737      -3.84806902
C       -6.05153730       7.59713570       3.59461630       0.00000000   -2050.46824379   -1202.37124750    1327.78079487
C        0.37500161       9.24987120       3.83790723       0.00000000    1272.76652326   -1450.14021466    -584.83193896
C        6.18300366      -5.13690647       0.75828012       0.00000000    -937.72751991    -256.15904055    -540.11605563
C        3.08290074       2.70785946      -2.10896933       0.00000000     -14.64860509     177.89290816     240.78254585
C        3.67076112       6.05808470       0.29953065       0.00000000  -62042.05853220   44375.04787282  187745.72827524
C       -1.69058427      10.05900383       6.58390585       0.00000000      -2.15312865      -1.18407128       1.02611858
C        9.21613119       3.69790439       1.81315881       0.00000000      16.97947631     -24.82803308     -36.14130338
C        7.35572397       1.21102887       3.71505080       0.00000000      18.51377221      -5.97870088       7.59691856
C        1.86618325       7.83233620      14.28151182       0.00000000   -3686.88278950    1559.07108872   -4721.38530236
N        4.01815353       7.56590974       1.56597133       0.00000000 -360896.61276184 -404407.54071029  198126.35838465
C        3.80790757       7.70880965       3.66892050       0.00000000  -29567.81821804  -48673.58873663 -110002.17217821
C        9.96668978      -1.19196591      13.70719656       0.00000000       5.48368088    -205.19337197     266.43289315
C        8.95080365       4.24494009       2.65306789       0.00000000       9.12197777       3.52201936      25.06618146
C        4.85410455       4.57385261       5.98283654       0.00000000    -502.88108063     704.14087077    -839.39021863
C        6.58342182       7.84174396       1.04441869       0.00000000   -1409.64754728    -306.05525704     669.26598928
C        4.86097026       8.87754619      -0.04987227       0.00000000    1002.66196955     408.78600025     -90.14189727
C       -1.27989888       0.19963921       7.58459431       0.00000000       6.18599369      28.03155214      32.58182544
C       -1.22745679       4.16164871       4.52825939       0.00000000     386.49318716     249.58176859    -289.70612349
C       -1.80449817       4.21256684       5.30089393       0.00000000     -61.53958943      -5.70276080      55.38544652
C       -3.28999915       8.51821461       3.20500841       0.00000000      74.67776559      49.55602781     -21.02475974
C       -5.46401378       9.55096696       3.58132053       0.00000000    2293.54981091    4572.42946196    2311.93808187
C       -0.60014535      -0.60522058       3.99149766       0.00000000    -928.45986067    -536.68428458    -648.01867901
C       12.02070998       2.16726021       1.57990486       0.00000000     399.84719653     508.90921906      22.92236230
C        3.46593722       7.15848937      11.14859597       0.00000000      -6.49611718       0.04651087    -107.01048142
C       -5.60724872      11.26980288       1.92182400       0.00000000       1.83153777     -57.11302814      52.58619867
C       -0.85957322       9.08156462       5.64725516       0.00000000      86.45101328     -21.02548851     -99.94567443
C        6.17474038       0.35984344       0.52405406       0.00000000      28.46333979     -82.71270396     -28.08588320
P        2.51708082       1.23153839       1.68216032       0.00000000     -31.74394466   -2303.02293488    -592.38139707
C        3.30300360       7.31609738       1.18739447       0.00000000   43696.08444334   46679.48732596  -14239.39491996
C        1.43858554      11.94159958       5.23055770       0.00000000       6.81236840      -2.27240505      -2.38619942
C        6.82960170      -0.68670163       7.04732722       0.00000000      -1.56431706       2.27923523       6.42292557
C        8.50772057       2.70031114       1.12998702       0.00000000       6.90449122      -7.31386740      -3.27627436
C        4.75379480       5.60295925       3.15302055       0.00000000  -27692.22535705   41821.46330363  -28091.62399947
C        4.41042231       8.12122918       5.20285203       0.00000000    3213.44940982    3294.77162531    1170.37228210
C        3.58996704       7.16156788       3.40755661       0.00000000   69815.00083330  101854.79339585   18334.25352169
C        7.23889562      -0.35265837      -2.13040459       0.00000000     -44.68762464      37.89308008     -45.79810555
C        3.31749222       5.83046049      10.13704263       0.00000000      -0.29687791       5.09182382     -15.48575114
C        7.45836810       7.33893837       2.38534352       0.00000000    -861.48160864    -690.32216406     135.58994551
C        4.72221002       4.05768996       8.86149441       0.00000000       0.13802309      -0.53263327       6.02909067
C        5.62819486       8.33988105       3.77075584       0.00000000    -305.38422440   -2320.56698260    -480.23644811
Pt       5.02092416       2.49675838       1.19968671       0.00000000     348.86507894     546.68355244    -375.47880457
O        3.01223692       6.36942236       2.21015439       1.00000000  118690.14939957 -1295847.58451614 2215382.58144046
O        2.94244482       6.21900688       2.34142243       1.00000000  250884.73391166 1513220.79583004 -2460141.47714213
