52
Lattice="12.336457 0.0 0.0 -6.168228499999997 10.683685154694365 0.0 0.0 0.0 15.0" Properties=species:S:1:pos:R:3:forces:R:3 energy=-443.5238915777279 free_energy=-443.5238915777279 stress="-0.005852637445110489 0.0021461410245564123 1.7703857132654657e-05 0.0021461410245564123 -0.010477141067802394 -2.070848401742867e-05 1.7703857132654657e-05 -2.070848401742867e-05 1.7325247692601053e-05" pbc="T T T"
C        0.07694171       0.02480387       3.75876970       0.00473366      -0.00146022      -0.00727601
C       -1.13591416       2.18758812       3.63661862      -0.00430429      -0.00553185       0.00263578
C       -2.36423262       4.32364830       3.70192275       0.00220797       0.00087321       0.00241807
C       -3.61245890       6.44807266       3.71670052      -0.00263278      -0.00070053       0.00249017
C       -4.86740082       8.56569183       3.74856362       0.00237796      -0.00387961      -0.00436160
C        2.53311524      -0.02453212       3.95993757      -0.00582549       0.01095074       0.00912694
C        1.34538776       2.08832293       3.55286411      -0.00754769       0.00096081       0.00134036
C        0.08100812       4.37281341       3.55678736       0.01221122      -0.00061949      -0.00236636
C       -1.16570742       6.46613976       3.90887111       0.00094100       0.00072413      -0.00381428
C       -2.40122218       8.57155566       3.99455774      -0.00442329       0.00033437      -0.01173140
C        5.01273329       0.02648950       4.08924111      -0.00152095       0.00292591      -0.01108314
C        3.76038056       2.06692191       4.04763959      -0.00227792       0.00731376       0.00075842
C        1.24989427       6.50026752       4.17184720       0.01021439      -0.00896248      -0.00728003
C        0.06110164       8.60501574       4.10621302       0.00563675       0.00017087      -0.00510201
C        7.48111632       0.06500792       4.03541061       0.00232073       0.00490434      -0.00130413
C        6.25620368       2.17820991       3.89116833       0.00229225       0.00683190      -0.00384681
C        5.11138979       4.32534619       3.39010164      -0.00158185      -0.00072360       0.01670979
P        3.47004787       6.35168356       2.97696031      -0.00003869       0.00840499      -0.00152739
C        2.53657451       8.63627824       3.96580721      -0.00584012      -0.00759112      -0.00035007
C        9.95680891       0.06527793       3.85177004      -0.00533231      -0.01308362      -0.00683341
C        8.72964771       2.18867956       3.80192340       0.00350774      -0.00408437       0.00563137
C        7.51661195       4.31055093       3.60696041       0.00078658       0.00151520       0.00309403
C        6.29344266       6.46364987       3.37567734       0.00473827      -0.00401792       0.00157316
C        5.00611213       8.59694062       3.65429074       0.00207523       0.00294668      -0.00130648
C        0.08971591       1.45196723       3.64191732      -0.00194798      -0.00229524       0.01247886
C       -1.11941641       3.62129305       3.62056406       0.00729275      -0.00088817      -0.00072909
C       -2.37980803       5.74314661       3.77768517      -0.00287583       0.00299730       0.00277654
C       -3.62696475       7.86362055       3.82161438      -0.00127012      -0.00562175      -0.00131008
C       -4.87042261       9.97762824       3.83564167       0.00354602      -0.00294222       0.00276136
C        2.53149798       1.37999870       3.88829257      -0.00541233       0.01135840      -0.00703600
P        1.54811204       3.66874388       2.78543954      -0.00523958      -0.00651423       0.00991474
C        0.07228584       5.76318919       3.87048292       0.00508894      -0.00259448       0.00225741
C       -1.16721379       7.87802118       4.03854211       0.00096455       0.00488072      -0.01709142
C       -2.39172156       9.98435161       4.05146999      -0.00715324       0.00396208      -0.00471534
C        5.02395821       1.44856360       4.03503602      -0.00186111       0.00783859      -0.00610023
P        3.57406785       3.77084687       4.03818030       0.00277830       0.00214506      -0.00402391
C        1.29514071       7.90809495       4.08870974       0.00104221      -0.00622464       0.00802452
C        0.07768213      10.02431793       4.09717929       0.00367148       0.00331997      -0.00148464
C        7.48807641       1.48153987       3.92565933       0.00350557       0.00472149       0.00218085
C        6.29039235       3.57903149       3.62014592       0.00098224       0.00402026       0.00702631
C        5.12191064       5.71572031       3.16995967       0.00403107      -0.00513112       0.00680932
C        3.74233737       7.95524278       3.67129355      -0.00012109       0.00043214       0.00183135
C        2.54897245      10.05376188       3.98386534      -0.00614043      -0.00893869      -0.00732417
C        9.96776930       1.48626544       3.77364788      -0.00371368      -0.01293751       0.00136007
C        8.74273452       3.60682693       3.70367448       0.00061121      -0.00051990       0.01560356
C        7.51388162       5.73446356       3.54087113      -0.00007051      -0.00090359       0.00547452
C        6.24758630       7.87708326       3.56251631       0.00214664      -0.00051427      -0.00122151
C        5.01152896      10.02051949       3.76785349       0.00181158       0.00172858      -0.00197754
Pt       2.74652439       5.48130852       5.13712304      -0.00990225       0.00327465      -0.00622158
O        1.56571586       4.29500361       6.24876905      -0.00132129       0.00082536      -0.00506932
O        1.38096281       4.98234829       7.54387565       0.00860130       0.00480210       0.00871260
H        1.58046809       4.23215205       8.14253526      -0.01176279       0.00151699      -0.00050212
