52
Lattice="12.336457 0.0 0.0 -6.168228499999997 10.683685154694365 0.0 0.0 0.0 15.0" Properties=species:S:1:pos:R:3:forces:R:3 energy=-452.15867699132485 free_energy=-452.15867699132485 stress="-0.008440448917164526 -0.0002950758548759834 3.3158587969231235e-05 -0.0002950758548759834 0.0027056422394765214 -2.3491270704534658e-05 3.3158587969231235e-05 -2.3491270704534658e-05 2.693842268455026e-07" pbc="T T T"
C       -0.02210440      -0.05139708       3.83485895       0.00368361       0.00076535      -0.00197296
C       -1.28447369       2.06193247       3.64389402       0.00120472       0.00129961       0.00509079
C       -2.52173454       4.21867733       3.90880715      -0.00404011       0.00524971      -0.01278959
C       -3.71947597       6.37408758       4.15715707      -0.00428407       0.00121738      -0.01658253
C       -4.94350435       8.52716121       4.09249481       0.00226714      -0.01085872       0.00976114
C        2.45048080      -0.01107818       3.86225884      -0.00592740       0.00052485      -0.00047050
C        1.20293461       2.01732987       3.34495098      -0.00378596      -0.00984614      -0.00750523
C       -0.23866713       4.27974712       3.17462722      -0.00539683      -0.00040021      -0.00016476
C       -1.33498190       6.39264393       3.76381764      -0.00379258       0.00215076      -0.00221707
C       -2.49689387       8.52889758       4.00480358       0.00326408       0.00397408      -0.00667645
C        4.91980352      -0.03838109       3.88484901      -0.00035119      -0.00558499       0.00181058
C        3.70415981       2.13900731       3.67372709       0.00464992      -0.00224167      -0.01351574
C        1.06179919       6.35870335       3.30252904       0.00772465      -0.00501970       0.00668752
C       -0.03308590       8.48525812       3.76180923      -0.00156847      -0.00600177       0.01425802
C        7.39352184      -0.09582172       3.87640489       0.00355178       0.00094474      -0.00479050
C        6.16930072       2.06433441       3.97790682       0.00277178       0.00620587      -0.00001202
C        4.98477352       4.22981694       3.91387544      -0.00383688      -0.00133301      -0.01155474
N        3.86676440       6.36245078       3.73435722       0.01318919       0.00426939      -0.00376540
C        2.45979315       8.41190333       3.70846251      -0.00449242       0.00303984      -0.00658899
C        9.84314720      -0.09554068       3.84952377       0.01148329       0.00046415      -0.00813470
C        8.61739849       2.05626041       3.96361671       0.01187070      -0.00387953       0.00727194
C        7.39985319       4.21286201       4.15826687       0.00139875       0.00430970      -0.00568781
C        6.19740010       6.38465003       4.16510636      -0.00599738       0.00111240       0.00271178
C        4.93369894       8.47958397       3.94933466      -0.00495179       0.00633750      -0.00659134
C       -0.03815881       1.35718182       3.59735079      -0.00341884      -0.00052375      -0.00166723
C       -1.33435282       3.50017425       3.57803196      -0.00557974       0.00055607       0.00084946
C       -2.52027691       5.65155051       3.97518508      -0.00478335       0.00411514      -0.00572082
C       -3.71782021       7.80855859       4.11727068       0.00883594      -0.00269280      -0.00190177
C       -4.94800664       9.94972710       3.93995145      -0.00170226      -0.00802051       0.00748448
C        2.44868475       1.40468613       3.62068216       0.00101447      -0.00000717      -0.00590134
P        1.14790873       3.51619572       2.36262485      -0.00553120      -0.01036423       0.00141588
C       -0.17260812       5.68845756       3.36909439       0.00075551      -0.00088447       0.00604298
C       -1.28024652       7.80786124       3.86506190      -0.00253477      -0.00005312      -0.00088807
C       -2.49028328       9.95269190       3.93397008      -0.00520042       0.00252626      -0.00125095
C        4.93051863       1.38510930       3.85581710       0.00525560      -0.00357436      -0.00062345
C        3.81594292       3.54562119       3.58719381      -0.00907854      -0.00105763       0.00162992
C        1.19597589       7.72824005       3.58555386      -0.00262933      -0.00198012       0.00316266
C       -0.01901231       9.90321402       3.85469260       0.00144804      -0.00611734       0.01073170
C        7.39689005       1.33333538       3.96705434       0.00613205       0.00399336       0.00060464
C        6.18858386       3.49032400       4.06389775      -0.00307086       0.00644088       0.01257864
C        5.00354594       5.67213160       3.97499295       0.00295302      -0.00661004       0.00308250
C        3.72143198       7.72168009       3.78265966      -0.00582400       0.00053640       0.01726542
C        2.45290634       9.84482219       3.82319635       0.00716615       0.00459609      -0.00425718
C        9.84264698       1.34024689       3.83376694       0.01058815      -0.00505137      -0.00035966
C        8.61565207       3.48995283       4.05042174       0.00558315      -0.00112401       0.01735645
C        7.40461192       5.64744534       4.20937594      -0.00560057       0.00467112      -0.00153938
C        6.16885199       7.80374272       4.10031518      -0.00890028       0.00087607       0.00434351
C        4.91687705       9.90020519       3.88661089       0.00754573       0.00515391       0.00370952
Pt       2.51218178       5.00860935       3.13418980       0.00956388       0.00818983      -0.00617954
O        2.43385601       6.06436936       5.93129115      -0.00901028       0.00130829      -0.00481765
O        3.57423223       5.65507001       6.55233781       0.00467110       0.00879622       0.01531459
H        3.41400147       5.82090119       7.50964514      -0.01728287      -0.00039829      -0.00903676
