51
Lattice="12.336457 0.0 0.0 -6.168228499999997 10.683685154694365 0.0 0.0 0.0 15.0" Properties=species:S:1:pos:R:3:initial_magmoms:R:1:forces:R:3 energy=-449.8810506624903 free_energy=-449.8810506624903 stress="-0.005982880551467408 -0.0010936523321786378 5.911224650042718e-05 -0.0010936523321786378 0.007101581378952519 4.446224303489499e-06 5.911224650042718e-05 4.446224303489499e-06 -0.00011033572315724317" pbc="T T T"
C       -0.04425292      -0.04662943       3.78733833       0.00000000      -0.00613204       0.00393282      -0.02243461
C       -1.30836820       2.05429756       3.86113026       0.00000000      -0.00381478       0.01120717      -0.02897347
C       -2.54244327       4.21509003       3.71091872       0.00000000      -0.00918711      -0.01963739      -0.00287636
C       -3.74355264       6.37013488       3.54677138       0.00000000      -0.02740485      -0.00351278       0.06805911
C       -4.97171560       8.52146254       3.58752231       0.00000000       0.00381172       0.01818113      -0.01072925
C        2.42559306      -0.00344363       3.83285688       0.00000000       0.00674960      -0.00412418       0.00379507
C        1.16576096       2.11524479       4.02626291       0.00000000       0.01318238       0.01111683      -0.02679499
C       -0.15162693       4.22635507       3.97934801       0.00000000       0.00267789       0.00470299       0.00002276
C       -1.32381682       6.37578143       3.76264974       0.00000000       0.01182579      -0.01254587       0.00495510
C       -2.51569565       8.52006017       3.69918101       0.00000000      -0.00864691       0.01916516       0.02555187
C        4.89660971      -0.04857923       3.77360302       0.00000000       0.02127338       0.00147449       0.00025714
C        3.67822066       2.13949821       3.89483102       0.00000000       0.02398053      -0.00979926      -0.02109213
N        1.07049318       6.31631685       4.00638414       0.00000000      -0.08234981       0.07014680      -0.02041173
C       -0.03381327       8.45298934       3.75919546       0.00000000      -0.00824033      -0.01421376       0.02518379
C        7.36896959      -0.10429291       3.71228859       0.00000000      -0.00782739       0.02318133      -0.00742408
C        6.14180196       2.06795660       3.65881463       0.00000000      -0.01105604      -0.00326907       0.02835015
C        4.95624460       4.25275436       3.53751475       0.00000000       0.01669960       0.01793647       0.01300465
O        3.78498083       6.37765296       3.32129571       0.00000000       0.07997420       0.04718747      -0.05195094
C        2.44396428       8.37953388       3.67109628       0.00000000       0.01491732      -0.01849839      -0.01143184
C        9.81626598      -0.10507047       3.72399858       0.00000000      -0.00246877       0.00619404      -0.03325623
C        8.58700605       2.05375688       3.67477650       0.00000000      -0.01522563       0.00580085       0.02541614
C        7.37096515       4.21921468       3.51414078       0.00000000      -0.01809358      -0.02929641      -0.01542656
C        6.15828259       6.37916053       3.35752401       0.00000000       0.00860488       0.01419652       0.02754986
C        4.90169703       8.48168049       3.51257111       0.00000000       0.02962381       0.00416330       0.02065422
C       -0.06170760       1.37215967       3.91755190       0.00000000       0.00368638       0.00233562      -0.02975466
C       -1.33809480       3.48646336       3.86288874       0.00000000       0.00859572       0.01243699      -0.03813535
C       -2.53331421       5.64465795       3.67051560       0.00000000       0.00555253      -0.00950888      -0.01684066
C       -3.74037469       7.80384946       3.59844656       0.00000000      -0.01129600       0.00012599       0.00650564
C       -4.96988398       9.95106322       3.74111139       0.00000000       0.00078546      -0.00810452       0.00919625
C        2.42583830       1.43121759       3.95620597       0.00000000       0.01213810      -0.00311429      -0.05108752
C        1.07131495       3.53816823       4.13599390       0.00000000      -0.04984192      -0.01218432      -0.03507554
C       -0.12390220       5.66196893       3.91527445       0.00000000       0.01184217       0.01237529       0.02351005
C       -1.29082414       7.79055523       3.73593722       0.00000000      -0.01078934      -0.00179548       0.02826243
C       -2.51432058       9.94853976       3.77856369       0.00000000       0.01955062       0.02501090      -0.04016409
C        4.90338906       1.38017212       3.77405791       0.00000000       0.00598206       0.00026728       0.00601887
C        3.76133915       3.56659250       3.91526658       0.00000000       0.05723440      -0.02203199      -0.02244712
C        1.17933231       7.68468803       3.80142753       0.00000000       0.01214084      -0.02567638       0.01953617
C       -0.03805770       9.88868913       3.73969674       0.00000000       0.00432591      -0.00605295       0.01706065
C        7.36636074       1.33321797       3.66896650       0.00000000      -0.01428615       0.01367584       0.01710059
C        6.15354056       3.50076846       3.54390462       0.00000000      -0.01113537      -0.02721745      -0.03952746
C        4.97440384       5.66311187       3.32816193       0.00000000       0.03518848       0.04048921       0.03992056
C        3.70070109       7.76421581       3.48803982       0.00000000       0.04782785      -0.00938776       0.03337318
C        2.42662625       9.83049518       3.69936846       0.00000000      -0.00340169      -0.00264398       0.01147293
C        9.80895251       1.33036903       3.75813651       0.00000000      -0.00502054       0.02227091      -0.00000224
C        8.58450492       3.48966038       3.62602364       0.00000000      -0.01598595      -0.01392304      -0.02214606
C        7.37681798       5.64846519       3.45484990       0.00000000      -0.03099125      -0.00782075       0.00976864
C        6.15023514       7.80333243       3.44870460       0.00000000       0.01280948       0.01676916       0.02915173
C        4.89496806       9.90285440       3.68213371       0.00000000      -0.00726524       0.00315396       0.01316997
Pt       2.43697171       4.85220509       4.38814703       0.00000000      -0.13164563      -0.21460690      -0.18811170
O        4.12999757       6.15922378       5.98460662       1.00000000      -0.02317581       0.03351349      -0.05244129
O        2.86976612       6.29466660       5.68649610       1.00000000       0.04430107       0.03795379       0.28168838
