52
Lattice="12.336457 0.0 0.0 -6.168228499999997 10.683685154694365 0.0 0.0 0.0 15.0" Properties=species:S:1:pos:R:3:forces:R:3 energy=-453.1486210442977 free_energy=-453.1486210442977 stress="-0.00568798208810937 -0.001927327477879577 -1.8946315465315648e-06 -0.001927327477879577 0.007192384257310188 -8.760107180371939e-07 -1.8946315465315648e-06 -8.760107180371939e-07 -1.5569751424315823e-05" pbc="T T T"
C        0.06846714       0.04893513       3.70618978      -0.00380972       0.00176666      -0.00731196
C       -1.19104804       2.15257723       3.55745791       0.00141804      -0.00208235       0.00035977
C       -2.40928720       4.31297998       3.48380310       0.00380612      -0.00617646      -0.00040092
C       -3.61382835       6.47489574       3.53742694       0.00587821      -0.01037868       0.00322552
C       -4.84281993       8.62717113       3.66768436      -0.00104201       0.00226630       0.00298871
C        2.53310670       0.12524493       3.75954138       0.00323120      -0.00397280      -0.01439741
C        1.25060316       2.18999658       3.64102998       0.00751969      -0.00085922      -0.01185949
C       -0.00132448       4.28137879       3.44658351      -0.01060500       0.00469418      -0.00677169
C       -1.17765899       6.45912415       3.52565394      -0.00333129      -0.00062505       0.00844594
C       -2.39631956       8.62811650       3.65874662      -0.00419633       0.00687101      -0.01235340
C        5.00050263       0.07416291       3.81421264      -0.00142143       0.00160682      -0.01011727
C        3.76246064       2.28194990       3.96023886      -0.00743971      -0.00739059       0.00175660
C        1.18087462       6.40308746       3.99890041       0.00952436       0.00420419       0.00597045
C        0.06238711       8.57809785       3.78933493      -0.00171613      -0.00668006      -0.00293716
C        7.47776544       0.00632097       3.81521655      -0.00517773      -0.00040301      -0.00362332
C        6.25082594       2.17320287       3.79870041      -0.00066664      -0.00019999      -0.00111520
C        5.07694813       4.33467686       3.94065880      -0.00111808      -0.00245780      -0.00979672
N        3.95717125       6.45943042       4.12375169      -0.00430367       0.00436322       0.00111741
C        2.54810905       8.50693718       3.94635604       0.00291699       0.00004516      -0.00138445
C        9.92966265      -0.00073486       3.76120034      -0.00625738       0.00171976      -0.01190963
C        8.69980849       2.15513048       3.65158255       0.00327459       0.01312269      -0.01309726
C        7.49545722       4.31843640       3.62371704       0.01017847       0.00454879       0.00519446
C        6.30241614       6.48564007       3.70626543      -0.00112455      -0.00099642      -0.01033307
C        5.02679334       8.57522362       3.80835999       0.00182426      -0.00332376       0.01449847
C        0.05046480       1.47089100       3.63227939       0.00646497       0.00243106      -0.00244396
C       -1.19188054       3.57807396       3.45924975      -0.00524245      -0.00568015       0.00094266
C       -2.39608694       5.74490572       3.48194914       0.00370082      -0.01336417       0.01055674
C       -3.61607763       7.90825620       3.60491723       0.00076675      -0.00283497      -0.00026036
C       -4.85260338      10.06049645       3.71115922       0.00020729       0.00395086      -0.00090234
C        2.50581002       1.56372778       3.81081316      -0.00032406      -0.01382309       0.00187232
O        1.17264320       3.55843946       3.45907881       0.00077213       0.00553143       0.01226267
C        0.03740878       5.70222793       3.59447118      -0.00254426       0.00405051       0.00816654
C       -1.16951452       7.88866498       3.64891961      -0.00586166       0.00292251       0.00893034
C       -2.40376132      10.06299886       3.75599952       0.00141836       0.00411845      -0.00980835
C        4.99577578       1.50687218       3.86974706      -0.00571124      -0.00162930       0.00777196
C        3.87650968       3.67642292       4.17491123      -0.00370154      -0.00538697      -0.00270694
C        1.28903106       7.80540084       3.91852849       0.00564734      -0.00068491       0.00218114
C        0.06557252      10.00752493       3.81359889      -0.00481102      -0.00691521       0.00293700
C        7.47769360       1.43742045       3.75350592       0.00342044       0.00418723      -0.00268939
C        6.28375828       3.59819089       3.76237026       0.00846824       0.00299082       0.00501767
C        5.10777841       5.77086285       3.90398939      -0.00220545       0.00151507      -0.00839332
C        3.81591914       7.82084582       3.96561833       0.00005340       0.00399320       0.00873120
C        2.53923051       9.94487614       3.84357192      -0.00392435      -0.00284050       0.00464921
C        9.92975327       1.43383738       3.64977987      -0.00279435       0.00925220      -0.00145738
C        8.70820976       3.59074847       3.56804714       0.00719895       0.00842298       0.00578715
C        7.50870715       5.75183914       3.59757468       0.00117486      -0.00318523       0.00855782
C        6.27136953       7.90280217       3.71621168       0.00086241      -0.00347241       0.00641197
C        5.00489820       9.99578123       3.75735848      -0.00742873      -0.00356207      -0.00574364
Pt       2.57547406       5.15782187       4.71323076       0.00530390       0.00680284       0.00483347
O        1.38249860       4.03367131       5.91122993      -0.00264774       0.01017294      -0.00016181
O        1.37351478       4.65096479       7.25233218       0.01736388      -0.00269604       0.00420194
H        1.80071914       3.93239124       7.76564871      -0.01298916      -0.00392966       0.00460731
