51
Lattice="12.336457 0.0 0.0 -6.168228499999997 10.683685154694365 0.0 0.0 0.0 15.0" Properties=species:S:1:pos:R:3:initial_magmoms:R:1:forces:R:3 energy=-443.29880958147476 free_energy=-443.29880958147476 stress="0.0006782316965935526 0.0014056825614945985 -1.3380274853503552e-05 0.0014056825614945985 0.002182851916173198 2.7634664691227585e-06 -1.3380274853503552e-05 2.7634664691227585e-06 -1.2913661234193054e-05" pbc="T T T"
C        0.02562343       0.06334836       3.72230347       0.00000000       0.00700667       0.00941477      -0.00274969
C       -1.20904913       2.18941384       3.64469257       0.00000000       0.00100701       0.00540706      -0.01064509
C       -2.43117045       4.32821153       3.58488491       0.00000000      -0.00132155      -0.01013281       0.00254870
C       -3.67497909       6.46240495       3.59845240       0.00000000      -0.01042587      -0.00386954       0.00720404
C       -4.92203590       8.60028366       3.71381866       0.00000000      -0.00129723      -0.00166409      -0.00139812
C        2.48448031       0.10228462       3.65824663       0.00000000       0.00774085       0.00029891      -0.01527380
C        1.22841581       2.21603789       3.62482194       0.00000000       0.00384254      -0.00130039       0.01055413
C        0.01803878       4.29463023       3.71819547       0.00000000       0.00486642       0.00183789      -0.00039941
C       -1.19816554       6.45183779       3.69741611       0.00000000      -0.00322883       0.00603237       0.00580553
C       -2.45769353       8.60448846       3.67103080       0.00000000      -0.00063739       0.00188007      -0.00675181
C        4.94867910       0.05335834       3.64756141       0.00000000       0.00510260      -0.01241787      -0.00554719
C        3.75771561       2.20034517       3.59592817       0.00000000      -0.00288006       0.00410281      -0.00870358
C        1.17511819       6.47751327       4.28395561       0.00000000      -0.00266618       0.00185755      -0.00515873
C        0.00502294       8.59557940       3.81347576       0.00000000       0.01289546       0.00177491       0.00445393
C        7.41675265       0.04994749       3.71156811       0.00000000      -0.00319146       0.00302043      -0.00570218
C        6.20112552       2.16957125       3.54189527       0.00000000      -0.00608799      -0.00455038       0.00179943
C        4.99688887       4.24330854       3.63267406       0.00000000       0.00072228       0.00177544      -0.00063521
P        3.57497615       6.30979841       4.54523303       0.00000000       0.01023303       0.00463478      -0.01367570
C        2.45863318       8.63417697       4.02748717       0.00000000      -0.01170999      -0.00204474      -0.00360634
C        9.89133327       0.05580201       3.76713966       0.00000000      -0.00337437      -0.00266348      -0.00062942
C        8.66478539       2.18550116       3.59199386       0.00000000      -0.00609170       0.00235789      -0.00334960
C        7.43687247       4.31876087       3.52587295       0.00000000      -0.00552124       0.00717960       0.00482894
C        6.18712618       6.43478698       3.72399007       0.00000000      -0.00212964      -0.00168905       0.00211279
C        4.96525421       8.61515541       3.92084942       0.00000000       0.00770832      -0.00853137      -0.00184511
C        0.02975753       1.49417679       3.66005727       0.00000000       0.00243081       0.01127699      -0.00042792
C       -1.19548382       3.61101554       3.63515771       0.00000000       0.00432915       0.00283601      -0.00108760
C       -2.43177117       5.74898741       3.59984847       0.00000000      -0.00587627      -0.00932895       0.01021787
C       -3.68598049       7.88934607       3.65152926       0.00000000      -0.00407717      -0.00034146       0.00839844
C       -4.91157385      10.04229159       3.70710045       0.00000000       0.00521545       0.00444096      -0.01066464
C        2.49191880       1.55242892       3.63141509       0.00000000       0.00513818      -0.00293701      -0.00355537
O        1.19752912       3.58903151       3.69662560       0.00000000      -0.00299156      -0.00590585      -0.00049486
C        0.03634823       5.72391437       3.86347220       0.00000000       0.00903469       0.00608532       0.00092230
C       -1.22278529       7.88266779       3.72304564       0.00000000       0.00685723       0.01155170       0.00155198
C       -2.45905135      10.04167393       3.66491843       0.00000000       0.00377412      -0.00492867      -0.01126989
C        4.95254473       1.48045059       3.57819455       0.00000000      -0.00629607      -0.01080789       0.00129937
O        3.80052470       3.56500945       3.70075762       0.00000000      -0.00306129       0.00513995       0.00551268
C        1.22784037       7.87711178       4.03738127       0.00000000       0.00144818      -0.00663873      -0.00195569
C        0.01457832      10.02015856       3.71811578       0.00000000       0.00803440      -0.00473957       0.00477984
C        7.42611567       1.46854915       3.59897546       0.00000000      -0.00367030       0.00157516      -0.00234644
C        6.20873659       3.58043933       3.51356157       0.00000000      -0.00208430       0.00332779       0.01244548
C        4.99470015       5.63811566       3.80387741       0.00000000       0.00589734       0.00698446      -0.00029082
C        3.70378034       7.97029560       4.13018434       0.00000000      -0.00587688       0.01034374      -0.00566280
C        2.47905530      10.03829933       3.82860715       0.00000000      -0.01268163      -0.00219888      -0.00323629
C        9.89975197       1.47809063       3.66032107       0.00000000      -0.00376282       0.00259776      -0.01124096
C        8.67198363       3.61073040       3.54490066       0.00000000      -0.00821853       0.00021019       0.00697931
C        7.42876788       5.74095885       3.58650104       0.00000000      -0.01062663       0.00129890       0.01286276
C        6.18294533       7.87640862       3.80265347       0.00000000       0.00388778      -0.01390285       0.00428932
C        4.95890966      10.03342165       3.80489388       0.00000000       0.00792369      -0.00210987       0.00615854
Pt       2.29308651       5.43783646       5.83583739       0.00000000       0.00268474      -0.00723067       0.01353483
O        2.51256726       3.18069814       5.85927608       1.00000000      -0.00462395      -0.00404789       0.01479996
O        1.45123303       3.86628776       6.28740134       1.00000000       0.00662997       0.00473862      -0.00475592
