52
Lattice="12.336457 0.0 0.0 -6.168228499999997 10.683685154694365 0.0 0.0 0.0 15.0" Properties=species:S:1:pos:R:3:forces:R:3 energy=-452.42560932043574 free_energy=-452.42560932043574 stress="-0.009927677811822808 -0.001774265346365856 2.9191553497797097e-05 -0.001774265346365856 0.0017832762263119031 -1.123704474403801e-05 2.9191553497797097e-05 -1.123704474403801e-05 1.0464407684700276e-06" pbc="T T T"
C       -0.00256948       0.00672567       3.92869209      -0.00416726       0.00700593      -0.01048892
C       -1.26979533       2.10327849       4.01225156      -0.00304141       0.00505693      -0.00772202
C       -2.50900529       4.25566864       4.06910687       0.00134156      -0.00222133       0.00077520
C       -3.69907721       6.42053829       3.99536852       0.01195842      -0.00240557      -0.00018841
C       -4.91499817       8.57726150       3.92261624      -0.00124109      -0.00240017       0.00609260
C        2.46942119       0.03219291       3.89814295       0.00020636       0.00113742      -0.00685972
C        1.21040971       2.17010665       3.86205817       0.00113521       0.00290430      -0.00151150
C       -0.09573346       4.25960256       4.07297275       0.00383606      -0.00159660       0.01439075
C       -1.29225962       6.42320365       4.13338112       0.00254536       0.00465257       0.00452361
C       -2.47273361       8.57018179       4.01808804       0.00645959       0.00103331       0.00070374
C        4.93927923      -0.00728593       3.78584206       0.00426869      -0.00658778       0.00896925
C        3.69094294       2.07988304       3.40515834      -0.00175337      -0.00396251      -0.01310859
C        1.11642233       6.36658896       3.95100340      -0.01248852       0.00142403       0.00555140
C       -0.00348755       8.51859805       3.94355516       0.00962150      -0.00390829       0.00082779
C        7.40641326      -0.04921096       3.78835770      -0.00196493      -0.00175991       0.00844881
C        6.18431931       2.11624594       3.53986997      -0.00526211       0.00012756       0.01135801
C        5.10237503       4.35148718       3.10288217      -0.00340473       0.00135081      -0.00898472
N        3.90424178       6.42037259       3.49905462       0.00823537      -0.00114312      -0.00570108
C        2.48545132       8.45859243       3.78748778       0.00366636      -0.00548619       0.01049031
C        9.85802743      -0.04741267       3.86985065      -0.00361754      -0.00442109      -0.00845908
C        8.62039123       2.10386282       3.85886184       0.00108219      -0.00406820       0.00935438
C        7.42354844       4.27128445       3.72629212       0.00035512       0.00443218       0.00110425
C        6.26279971       6.46084438       3.59535467       0.00143086       0.00534676      -0.00664835
C        4.96439858       8.53879114       3.75718567      -0.00522189       0.00059717      -0.00492538
C       -0.01769174       1.42754455       3.95632542      -0.00440539       0.00762373      -0.00605405
C       -1.29830583       3.52552166       4.09101594       0.00221525       0.00243653       0.00392242
C       -2.50012357       5.69040396       4.10324946       0.01006140      -0.00341523      -0.00589422
C       -3.69433196       7.85318684       3.99941837       0.00560481      -0.00180740       0.00850717
C       -4.92654045      10.00026147       3.94091257      -0.00227088       0.00228857      -0.00014748
C        2.46219051       1.45206528       3.73925632      -0.00234398       0.00061067      -0.01260062
C        1.13430225       3.59013096       3.90256607       0.00525599       0.00146572      -0.00967199
C       -0.09013239       5.69396734       4.09228966      -0.00626410      -0.00218818       0.01328356
C       -1.24934393       7.84461062       4.05247816       0.00871227       0.00358790       0.00381414
C       -2.46666342       9.99175849       3.91177898       0.00251844      -0.00065085      -0.00297529
C        4.94169685       1.40758871       3.55651362      -0.00259056      -0.00678563       0.00526357
P        3.63588864       3.58245607       2.42227321       0.00450438      -0.00487571      -0.00606705
C        1.23191214       7.75534613       3.89288105       0.00399972      -0.00220254       0.00430872
C        0.00090236       9.94117583       3.83701345       0.00442456      -0.00742558       0.00063776
C        7.39700340       1.38949624       3.72674457      -0.00096712      -0.00090132      -0.00202828
C        6.21931671       3.56038630       3.44031774      -0.00504191       0.00270733       0.00495327
C        5.08132578       5.77190781       3.30226297       0.00246284       0.00147984      -0.00455749
C        3.75216439       7.77112521       3.66945311       0.00067026      -0.00397668      -0.00566867
C        2.46893762       9.89156199       3.81722111      -0.00327177      -0.00478739      -0.00144548
C        9.84319022       1.38102882       3.93268827       0.00043408      -0.00386081       0.00509964
C        8.61716762       3.53832503       3.90812293      -0.00051047      -0.00096926       0.00244113
C        7.44066461       5.70358363       3.78257783       0.00694930       0.00661405      -0.00140267
C        6.20881260       7.86414717       3.76662670      -0.00574967       0.00105902       0.01008465
C        4.93748308       9.95376580       3.86905714      -0.00337078       0.00019765      -0.00158595
Pt       2.53244455       4.94449774       3.77558841      -0.01261913       0.01430910      -0.00188543
O        3.00738362       5.50933547       5.68381561      -0.01075126      -0.00142598       0.00083717
O        2.41706048       4.59582080       6.62056666       0.00202064       0.00474799      -0.00114531
H        2.45082992       5.13033188       7.44358675      -0.01365668       0.00103625      -0.00801551
