52
Lattice="12.336457 0.0 0.0 -6.168228499999997 10.683685154694365 0.0 0.0 0.0 15.0" Properties=species:S:1:pos:R:3:initial_magmoms:R:1:forces:R:3 energy=-449.7202083961751 free_energy=-449.7202083961751 stress="0.0014823289157988324 0.006179569264892167 5.694249280232011e-06 0.006179569264892167 -0.00010565992355768275 2.611719841930874e-05 5.694249280232011e-06 2.611719841930874e-05 -5.4625895615693824e-05" pbc="T T T"
C       -0.23649185       0.19161794       3.68277460       0.00000000      -0.00564944      -0.00074767       0.00506102
C       -1.43036778       2.35234216       3.68669639       0.00000000       0.00336770       0.00442731       0.01104898
C       -2.65882449       4.47315915       3.71223590       0.00000000       0.00252881      -0.00108559      -0.00022437
C       -3.94803998       6.58933152       3.73844398       0.00000000       0.00266353      -0.00420196      -0.00246946
C       -5.21357036       8.71187200       3.72009506       0.00000000      -0.00526332       0.00124168      -0.00096338
C        2.21672616       0.17233614       3.74392732       0.00000000      -0.00794507       0.00364366      -0.00906640
C        1.02490276       2.34985074       3.85269437       0.00000000       0.00098284      -0.00284457      -0.00579361
C       -0.16947099       4.54033884       3.76802332       0.00000000       0.00412647      -0.00307746      -0.01357467
C       -1.47527832       6.61938296       3.57734399       0.00000000       0.00664015      -0.00136717      -0.01887084
C       -2.72900516       8.72876565       3.60280109       0.00000000      -0.00426207       0.00297882      -0.00521305
C        4.69295023       0.18012379       3.61189851       0.00000000      -0.00161750      -0.00476872      -0.00210908
C        3.48621176       2.26979674       3.89550777       0.00000000       0.00303842      -0.00611344       0.00417014
C        2.33012294       4.40334838       4.16392388       0.00000000       0.00051928       0.00097758      -0.01242170
O        0.89101235       6.71116295       3.36260535       0.00000000       0.00657713       0.00087363      -0.00834173
C       -0.28055579       8.75594486       3.30418283       0.00000000       0.00362842       0.00040853       0.00289366
C        7.16281540       0.19103994       3.44811131       0.00000000      -0.00137454       0.00359138       0.00211061
C        5.96692412       2.29145108       3.76213018       0.00000000      -0.00380891      -0.00274908       0.00883935
C        4.76725619       4.37330597       4.08423950       0.00000000      -0.00080878       0.00048018      -0.00844119
S        3.57920561       6.73746780       1.90349066       0.00000000      -0.00088078       0.00765304       0.00346630
C        2.16960242       8.76136901       3.12023676       0.00000000       0.00249814       0.00132578       0.01236091
C        9.64033450       0.19882030       3.47628580       0.00000000       0.00006224       0.00645906      -0.00109792
C        8.43277922       2.32379208       3.64387914       0.00000000      -0.00436661       0.00462705       0.00021555
C        7.20878448       4.44256860       3.84064153       0.00000000      -0.00119842      -0.00118509       0.00347884
C        5.90739035       6.56500644       3.90603052       0.00000000       0.00119748       0.00347092       0.01123771
C        4.67937612       8.72222075       3.46687471       0.00000000       0.00018310       0.00162490      -0.01196262
C       -0.21034224       1.63006978       3.73674462       0.00000000       0.00054682      -0.00103356       0.00449949
C       -1.40259091       3.79272574       3.71822793       0.00000000       0.00266306       0.00154778       0.01395051
C       -2.69775306       5.89055553       3.68951663       0.00000000       0.00656486      -0.00255740      -0.01119952
C       -3.96987966       8.01214380       3.69833124       0.00000000      -0.00389520      -0.00126056       0.00774510
C       -5.19120573      10.14439440       3.71976496       0.00000000      -0.00653000       0.00158587      -0.01611972
C        2.23386125       1.59726681       3.83744551       0.00000000       0.00078255      -0.00052054       0.00992299
C        1.06948570       3.80168083       3.93437943       0.00000000      -0.00027309      -0.00385401      -0.00678706
C       -0.25219713       5.94565417       3.59292451       0.00000000       0.00754602      -0.00179182      -0.01072940
C       -1.50460094       8.03478774       3.47757682       0.00000000       0.00063459       0.00154150      -0.00547166
C       -2.72090793      10.15443921       3.64911063       0.00000000      -0.00758850       0.00411159      -0.00724342
C        4.71958497       1.58518452       3.76085793       0.00000000       0.00018186      -0.00671881      -0.00771284
C        3.52068373       3.67288040       4.07039587       0.00000000      -0.00066847      -0.00184029      -0.00461282
C        0.92394777       8.09488485       3.14431968       0.00000000       0.00546718       0.00151473       0.00917993
C       -0.24866227      10.17546651       3.43472687       0.00000000       0.00202523      -0.00162242       0.01123676
C        7.19326628       1.60231614       3.61617126       0.00000000      -0.00584175       0.00455277      -0.00566734
C        5.99549897       3.70081901       3.90578863       0.00000000      -0.00088370      -0.00221115       0.00434866
C        4.74557371       5.78192620       4.15707081       0.00000000       0.00469821       0.00017226       0.02197191
C        3.45111037       8.05427637       3.01432470       0.00000000      -0.00301383      -0.00601133       0.01143048
C        2.22031917      10.16498962       3.32779996       0.00000000       0.00060079       0.00300124       0.00881498
C        9.66630515       1.62239684       3.59471789       0.00000000      -0.00033861       0.00839116       0.00268291
C        8.44425302       3.74459440       3.73414675       0.00000000      -0.00024352       0.00102210       0.01335205
C        7.16657121       5.86811004       3.84956689       0.00000000       0.00009854      -0.00140587      -0.00185321
C        5.87309272       7.99153124       3.71126655       0.00000000      -0.00415376       0.00221546       0.00159215
C        4.69757267      10.15247311       3.54259061       0.00000000      -0.00315582      -0.00030134      -0.00605292
Pt       2.88822005       6.32614623       4.48536265       0.00000000       0.01350971       0.00218684      -0.10497596
O       14.63546865      -5.37145270      11.68392837       1.00000000       0.00000000       0.00000000       0.00000000
O        2.08380758       7.30635810       5.73594781       1.00000000      -0.00957145      -0.01635696       0.10336490
