53
Lattice="12.336457 0.0 0.0 -6.168228499999997 10.683685154694365 0.0 0.0 0.0 15.0" Properties=species:S:1:pos:R:3:forces:R:3 energy=-465.2455838324385 free_energy=-465.2455838324385 stress="-0.00026082631794060464 -0.000425358992126907 -1.5624881417217962e-05 -0.000425358992126907 -0.00037899526432201125 -2.7103642693969263e-05 -1.5624881417217962e-05 -2.7103642693969263e-05 3.1280012275004105e-05" pbc="T T T"
C       -0.06570477       0.05219110       3.63155078      -0.00218583      -0.00120667      -0.00308753
C       -1.29757660       2.19357035       3.74295526      -0.00230035      -0.00227916       0.00009537
C       -2.52877803       4.32689201       3.72956864       0.00388041      -0.00155001      -0.00458627
C       -3.76462297       6.46100562       3.61174541       0.00080481      -0.00200029       0.00172283
C       -4.99811405       8.59884586       3.57314806      -0.00078353       0.00041651       0.00499088
C        2.40372024       0.04836283       3.58944109      -0.00396389      -0.00512580       0.00019595
C        1.16607658       2.17160204       3.77144403       0.00167207      -0.00063268      -0.00573907
C       -0.05241786       4.34054460       3.96341213       0.00608502       0.00631921       0.00400605
C       -1.30324523       6.46754238       3.72023802       0.00189617       0.00220265      -0.00503310
C       -2.52897109       8.59746114       3.56724674      -0.00523951      -0.00193262      -0.00322706
C        4.87088670       0.05317363       3.62232208      -0.00262062      -0.00593751       0.00025009
C        3.63386122       2.17714678       3.76245389       0.00117566      -0.00143056       0.00087198
C        2.39921308       4.16761864       4.34797886      -0.00378597       0.00269712      -0.00263012
N        1.02031838       6.54977643       4.24708078       0.00441474      -0.00137312       0.00033713
C       -0.06975074       8.59927081       3.70609613      -0.00346222      -0.00013245       0.00275834
C        7.33812559       0.04601999       3.72633739       0.00431262       0.00103837      -0.00469103
C        6.09687556       2.19627134       3.73636748       0.00518806      -0.00316337      -0.00762364
C        4.85235829       4.34885148       3.93181285      -0.00461150      -0.00104114      -0.00618645
N        3.80975028       6.56278989       4.29966745      -0.00416336       0.00280952       0.00091007
C        2.40464700       8.56575681       3.93073818      -0.00269275       0.00482196      -0.00754373
C        9.80109143       0.04533920       3.73276362       0.00056749      -0.00048386      -0.00358128
C        8.56767797       2.18971496       3.72501518       0.00251610       0.00039278       0.00241364
C        7.32954411       4.32884830       3.72146053      -0.00003423      -0.00330185      -0.00204922
C        6.10923790       6.47126406       3.71374761      -0.00029690      -0.00113168      -0.00888731
C        4.87956157       8.60146143       3.72720511       0.00167016       0.00351746      -0.00209829
C       -0.06785612       1.47460083       3.69907947      -0.00026356      -0.00090376       0.00108609
C       -1.28540549       3.62509502       3.80239921       0.00644593       0.00063209       0.00672385
C       -2.53110603       5.74815349       3.67349896       0.00264374      -0.00159126      -0.00043110
C       -3.76383135       7.88417372       3.56418730      -0.00203416      -0.00144593       0.01200240
C       -4.99982232      10.02481728       3.57927315      -0.00357893      -0.00236034       0.00599633
C        2.40138175       1.46882909       3.69726135       0.00135004      -0.00489356       0.00185183
C        1.17108498       3.59223404       4.01407784       0.00073039       0.00095645      -0.00045215
C       -0.07934245       5.77590500       3.96611491       0.00303131       0.00394674       0.00107915
C       -1.29862714       7.88513525       3.64562038      -0.00568644       0.00217141       0.00614568
C       -2.52919571      10.02423324       3.57373784      -0.00580392      -0.00478607       0.00284292
C        4.86822333       1.47722771       3.69235364       0.00290497      -0.00264079      -0.00119689
C        3.62770662       3.59879993       3.99911146      -0.00563737       0.00031969       0.00364505
C        1.13920270       7.88620585       3.94438195      -0.00127196      -0.00310074      -0.00695270
C       -0.06256814      10.02502103       3.66647072       0.00047934       0.00033824       0.01376629
C        7.33304030       1.47728812       3.71999426       0.00739042      -0.00128982      -0.00066708
C        6.08213563       3.63006551       3.78627476      -0.00051731      -0.00359734       0.00188153
C        4.88527502       5.78249995       3.94934527      -0.00387335      -0.00005077      -0.00635823
C        3.67289963       7.88502112       3.96499185      -0.00110887       0.00627583       0.00363593
C        2.40209722       9.99823431       3.78939194       0.00213150       0.00377048       0.00132874
C        9.80318530       1.47626158       3.72338167      -0.00316622      -0.00244370       0.00098760
C        8.56807187       3.61507494       3.71432803       0.00001498      -0.00055513       0.00918866
C        7.33657158       5.75008866       3.66675793       0.00143255      -0.00348767       0.00430419
C        6.10734812       7.88942189       3.65856275       0.00053230       0.00049469      -0.00070250
C        4.86788290      10.02479329       3.68052454      -0.00047279       0.00259477       0.00489165
Pt       2.38130438       5.81195156       5.47183040      -0.00321519       0.00176129      -0.00729277
O        4.01349947       5.29290997       6.57579062       0.00227188       0.01793761       0.00290011
O        3.70459787       4.24667386       7.55405750       0.00427213       0.01597742      -0.00738913
H        3.69211839       4.79012177       8.37098821       0.00295596      -0.01552264      -0.00440362
