52
Lattice="12.336457 0.0 0.0 -6.168228499999997 10.683685154694365 0.0 0.0 0.0 15.0" Properties=species:S:1:pos:R:3:forces:R:3 energy=-440.4133294220437 free_energy=-440.4133294220437 stress="-0.00862808515764382 -0.004714067544570066 7.085696503458941e-06 -0.004714067544570066 -0.00431468784550983 -1.2758302648504224e-06 7.085696503458941e-06 -1.2758302648504224e-06 -1.5842772240939457e-05" pbc="T T T"
C        0.00246598      -0.00815350       3.93070847      -0.00160018      -0.00031703      -0.01613682
C       -1.28009478       2.10799161       4.10511052      -0.00049839      -0.00001245      -0.00130660
C       -2.51449882       4.25609309       3.81145901      -0.00243896      -0.00853133      -0.00487817
C       -3.68808268       6.41340261       3.57459808       0.00050142      -0.00381134       0.00315459
C       -4.90248899       8.56224427       3.67737283       0.00191986       0.00530296       0.00069948
C        2.47892053      -0.02004043       3.88666883      -0.00541060       0.00555628       0.00041733
C        1.22504772       2.05776415       4.36611050      -0.00395103       0.00060136      -0.00120782
C       -0.15605551       4.29327364       4.33953782      -0.00461648       0.00890344       0.00332659
C       -1.26165167       6.39151114       3.68306779      -0.00362299      -0.00099378       0.00316791
C       -2.44184989       8.53544032       3.64960955      -0.00419160      -0.00216883      -0.00589438
C        4.93489318      -0.00678125       3.66425057      -0.00628578      -0.00452647      -0.00734308
C        3.65182889       2.08585161       3.65549392      -0.00041133       0.00445199       0.00760073
S        1.33310173       6.16715480       3.04332106       0.00593359       0.00801720       0.00379647
C        0.01405543       8.52053413       3.57052507       0.00298218       0.00316073       0.00241416
C        7.39407038      -0.01100832       3.65093155       0.00668729       0.00563738       0.00044305
C        6.14348416       2.13693247       3.47457812       0.00095425      -0.00712328      -0.00705606
C        5.00705743       4.34542963       3.23213292       0.01536877      -0.00864201       0.00849742
C        3.87341470       6.44842189       3.79716148       0.00233992       0.00988313       0.01377524
C        2.47905224       8.53015818       3.67085122      -0.00639830      -0.00391722      -0.00274053
C        9.86109344      -0.01099505       3.81244476      -0.00084889      -0.00252953       0.00022175
C        8.61023890       2.12260227       3.71175873      -0.00380659       0.00282509      -0.00795537
C        7.40900421       4.27414001       3.45968265       0.01192693       0.00173633       0.00034145
C        6.24249697       6.45716235       3.42740421       0.00346231       0.00056702      -0.00860349
C        4.97078968       8.56308244       3.68563889       0.00290085      -0.00120002       0.00317703
C       -0.01995326       1.40320514       4.15840100      -0.00328278      -0.00293699       0.00664573
C       -1.32833960       3.53157204       4.11736556      -0.00424479       0.00183327       0.00979655
C       -2.49091612       5.67938685       3.69207656      -0.00331575      -0.01072290       0.00286026
C       -3.67855766       7.83718860       3.62413045      -0.00304791       0.00061928      -0.00125943
C       -4.92382266       9.96939313       3.84915956      -0.00369721       0.00745445      -0.00725988
C        2.45791765       1.40417203       4.03011423       0.00251444       0.00353318       0.01131420
P        1.13265728       3.56088258       5.36030403       0.00040218      -0.00306720       0.01202801
C       -0.10472016       5.59855414       3.82780689       0.00291297       0.00890191       0.00342379
C       -1.21738417       7.81148977       3.59249867       0.00087325       0.00059084      -0.00358186
C       -2.45626508       9.96368007       3.72909807      -0.01009527      -0.00366693       0.00280309
C        4.91130830       1.43179943       3.58366948      -0.00319804      -0.00596406      -0.00256891
S        3.43979679       3.66733248       2.95244309      -0.00901692      -0.00189895      -0.00415884
C        1.26625556       7.85255722       3.49940022      -0.00416515      -0.01009178       0.00172413
C        0.00203000       9.95863696       3.62482114       0.00640643       0.00691954      -0.01145998
C        7.37571577       1.42168578       3.60315085      -0.00089964       0.00442485      -0.00198972
C        6.16975491       3.56157578       3.34427017       0.01797379      -0.00344456       0.00345062
C        5.01678337       5.74561720       3.42020698       0.00052081      -0.00101681       0.00342521
C        3.73939159       7.82433354       3.70315568      -0.00407622       0.00951082      -0.00845158
C        2.46454761       9.96363482       3.71674673      -0.00079017      -0.00506494      -0.00210858
C        9.84317162       1.40916744       3.87996943      -0.00450611      -0.00034203      -0.00092914
C        8.61038250       3.54563550       3.65336702      -0.00074371      -0.00317336      -0.00188884
C        7.43322917       5.70286801       3.45892903       0.00532239      -0.00075804      -0.00405562
C        6.20822001       7.86514919       3.59077533       0.00638173      -0.00102210       0.00218345
C        4.94216525       9.97525219       3.80853684       0.00184143      -0.00507440      -0.00045653
Pt       2.63437078       5.10329167       4.67719605       0.00008819      -0.00052807       0.00517897
O        2.63627827       5.24693200       7.66558828      -0.01186213       0.01093328      -0.00882916
O        2.58785672       5.08309708       9.03457977       0.00522256      -0.00212136       0.00630550
H        3.53013415       5.09575038       9.31540130       0.00558542      -0.00669654      -0.00005231
