52
Lattice="12.336457 0.0 0.0 -6.168228499999997 10.683685154694365 0.0 0.0 0.0 15.0" Properties=species:S:1:pos:R:3:forces:R:3 energy=-452.90441978886383 free_energy=-452.90441978886383 stress="-0.006095906571988724 0.0021795753673024827 -2.1666936471259566e-05 0.0021795753673024827 0.007757920401165549 4.767307374524581e-05 -2.1666936471259566e-05 4.767307374524581e-05 7.311191739155039e-05" pbc="T T T"
C       -0.03790327       0.11396214       3.83578091       0.01821001       0.00508041       0.00013792
C       -1.28506078       2.21294796       3.77395458       0.00316965      -0.00796040       0.00162524
C       -2.52677157       4.35485432       3.60228400      -0.00036179      -0.00360781       0.01370196
C       -3.75721877       6.51021751       3.57411378      -0.01458476       0.00418378      -0.00929968
C       -4.97730104       8.66476311       3.71642134      -0.01046477      -0.00009394       0.00028194
C        2.42325912       0.16991265       3.79877323      -0.00806846      -0.00662044       0.00105930
C        1.18188766       2.33066034       3.91771792      -0.00872074      -0.00434500      -0.00428153
C       -0.11041726       4.36098113       3.84241557       0.00400545       0.00503398       0.00224332
C       -1.33352271       6.51887636       3.68069850      -0.00155237      -0.00800510       0.01283530
C       -2.53271335       8.66599588       3.70173970       0.00154630      -0.00730923       0.00300868
C        4.89338088       0.08449961       3.74959396       0.00995092       0.00215162      -0.00565870
C        3.71180791       2.21627655       3.71432802       0.00351539      -0.01178483       0.00229955
N        0.99981332       6.49058497       4.08343412      -0.01058957       0.00715101      -0.01109752
C       -0.06500436       8.61096989       3.82130869       0.00068609      -0.00887002       0.00513841
C        7.37005080       0.03504373       3.77945364      -0.00821657      -0.00112358       0.00855202
C        6.15460748       2.18735512       3.61282240       0.00869092       0.01170079      -0.00172408
C        4.98333939       4.32304791       3.55358794      -0.00104208       0.02796164      -0.00180634
C        3.75848978       6.43347511       4.04668411       0.02099410      -0.00640174       0.00780381
C        2.41003470       8.54146248       3.96066850      -0.00221064       0.00266699      -0.00083522
C        9.82178213       0.04167535       3.83121575       0.00417016      -0.00217059      -0.00364167
C        8.60115761       2.19042658       3.65397009      -0.00734123      -0.00252269       0.01251301
C        7.37873229       4.34726318       3.52410495      -0.01715672      -0.00258630       0.00743502
C        6.14917265       6.49556053       3.61374609       0.00600379       0.00133482       0.00235949
C        4.89703460       8.61405256       3.84371790       0.01008065       0.00640944       0.00777430
C       -0.02835861       1.55464230       3.84967815       0.00576660      -0.00371173       0.01349782
C       -1.31092045       3.63252777       3.71363388       0.01023240      -0.00460277      -0.00049386
C       -2.54181188       5.78548274       3.59129050      -0.00752440       0.00450092      -0.00765503
C       -3.75761451       7.94512892       3.65027112      -0.01115056       0.00368258       0.00521055
C       -4.97078589      10.10350962       3.79660403      -0.00080856      -0.00400193      -0.00998084
C        2.44382609       1.62065857       3.83474306      -0.01245989      -0.00111919      -0.01751128
N        1.06508812       3.71103600       4.06245784      -0.00399865      -0.00180335      -0.01273626
C       -0.14313989       5.79819939       3.83513682       0.00107200       0.00083998      -0.00071972
C       -1.30883305       7.94124352       3.72340094       0.00396854      -0.01371587       0.01415331
C       -2.52639724      10.10167219       3.75583215       0.00213981       0.00018699       0.00373984
C        4.90845598       1.50731068       3.69288452       0.01519020       0.00664062      -0.01462647
O        3.80586663       3.60139014       3.64932824       0.00992025       0.03162257       0.01456484
C        1.14183881       7.85340755       3.96151895      -0.00476502       0.00233553      -0.00166394
C       -0.04246737      10.03303398       3.78342802       0.00044049      -0.00851823       0.00015719
C        7.37044656       1.46894239       3.67349316      -0.00170299      -0.00289345       0.00855571
C        6.16436523       3.60875129       3.52698454      -0.01063681       0.00530405       0.01294720
C        4.95206636       5.73808807       3.68993321       0.01433922       0.01057200      -0.01775051
C        3.66837465       7.85025135       3.95717450       0.00905960       0.00596284       0.01848868
C        2.42330445       9.98073271       3.86070889      -0.00634230       0.00369340      -0.00528008
C        9.82596408       1.47468258       3.75039549      -0.00442038      -0.00328535       0.00040121
C        8.59586539       3.62503844       3.57212699      -0.01072633       0.00123904       0.01465597
C        7.36456447       5.77876021       3.54017191      -0.01015755      -0.00673132       0.00578478
C        6.13506371       7.92751109       3.72329382       0.00123780      -0.00223365      -0.00579128
C        4.89659671      10.04432712       3.84679900       0.02028462       0.00973111      -0.01204562
Pt       2.42588997       5.18719736       4.60296096      -0.00167183      -0.00979943      -0.01681910
O        2.58270333       3.73235383       6.00763746      -0.03551884      -0.01173317      -0.02232333
O        3.95829272       3.65343140       6.44961448      -0.00931843       0.00671283       0.00288375
H        3.80366185       3.45085935       7.39832293       0.03683731      -0.01914776      -0.02006810
