51
Lattice="12.336457 0.0 0.0 -6.168228499999997 10.683685154694365 0.0 0.0 0.0 15.0" Properties=species:S:1:pos:R:3:initial_magmoms:R:1:forces:R:3 energy=-448.25942130213946 free_energy=-448.25942130213946 stress="-0.008813493687510873 0.0005430107684716351 -1.9394122551052525e-05 0.0005430107684716351 0.002908697151368033 2.11028495864331e-05 -1.9394122551052525e-05 2.11028495864331e-05 2.6500772508406363e-06" pbc="T T T"
C        0.07456547       0.09416594       3.80779604       0.00000000       0.00680639      -0.00284510      -0.00349591
C       -1.16882466       2.19441055       4.01277769       0.00000000      -0.00388066       0.00157880      -0.00199544
C       -2.40518880       4.34567026       4.10371101       0.00000000      -0.00780669       0.00062781      -0.00903606
C       -3.62487323       6.50403908       3.95173392       0.00000000      -0.00151992      -0.00782185      -0.00535798
C       -4.85134241       8.65336085       3.74534855       0.00000000       0.00194112      -0.00238239      -0.00953168
C        2.54536086       0.13545035       3.73049653       0.00000000       0.00365498       0.00390226       0.01482145
C        1.29303636       2.26243330       3.73311094       0.00000000      -0.00247265      -0.00375141       0.00056546
C        0.00185733       4.35252786       3.92319308       0.00000000      -0.00242886      -0.00265386       0.00262475
C       -1.20285334       6.51851557       4.01666449       0.00000000       0.00358884       0.00369181      -0.00782528
C       -2.40260954       8.65865061       3.87966938       0.00000000      -0.00419318      -0.00302934       0.00597615
C        5.01723128       0.08811987       3.75363479       0.00000000      -0.00398518       0.00259318       0.00057576
C        3.80409496       2.25643486       3.50288430       0.00000000       0.00601312       0.00232180       0.00029550
N        1.14844471       6.46687737       3.57942206       0.00000000       0.00117163       0.00228408      -0.00272647
C        0.06439436       8.60182379       3.79218743       0.00000000       0.00191503       0.00473152       0.00119651
C        7.48821809       0.03496360       3.84021034       0.00000000      -0.00284146      -0.00022579      -0.00324117
C        6.28113744       2.18404030       3.72882205       0.00000000       0.00907105       0.00051743       0.00352039
C        5.17035753       4.31308323       3.25102040       0.00000000      -0.00001095      -0.00165977       0.00936103
P        3.88305787       6.51921862       2.21959606       0.00000000      -0.00002503      -0.00861083       0.00031997
C        2.53903350       8.56575173       3.56578443       0.00000000      -0.00008486       0.00580115      -0.00293447
C        9.94043150       0.03790513       3.86935412       0.00000000       0.00199187       0.00540740      -0.01675037
C        8.71602382       2.18309906       3.99365423       0.00000000       0.00217858      -0.00722262      -0.00385686
C        7.52068990       4.33917887       3.82893240       0.00000000      -0.00023941      -0.00518094      -0.00239620
C        6.33258275       6.49562306       3.45897128       0.00000000      -0.00541885       0.00540945       0.00703644
C        5.02744735       8.62890249       3.53005578       0.00000000      -0.00823601       0.00980775      -0.00454963
C        0.06268986       1.51132167       3.87628755       0.00000000      -0.00445207      -0.00267499      -0.00862160
C       -1.19657044       3.61960716       4.08063144       0.00000000      -0.00750377       0.00207934      -0.00017088
C       -2.41163823       5.78325411       4.07238596       0.00000000       0.00262506       0.00036786      -0.00502726
C       -3.62597561       7.93775269       3.87255202       0.00000000      -0.00195221      -0.00848271       0.00204290
C       -4.85055799      10.08628011       3.76265597       0.00000000       0.00792925      -0.00221227      -0.00089733
C        2.54697213       1.56682267       3.63428751       0.00000000       0.00422466       0.00293591       0.00577746
C        1.16569646       3.65362607       3.67407948       0.00000000      -0.00209445      -0.00358989       0.00193609
C       -0.00109649       5.79608594       3.88601310       0.00000000       0.00277064      -0.00008198       0.00457303
C       -1.17669252       7.93206458       3.91213624       0.00000000       0.00134060       0.00561656       0.00792492
C       -2.39615781      10.08592363       3.77825694       0.00000000      -0.00298107      -0.00033858       0.01144877
C        5.03465580       1.50503351       3.65281029       0.00000000       0.00736397       0.00341130       0.00621393
C        3.92077146       3.65071093       3.23610377       0.00000000      -0.00105456       0.00395775       0.00655105
C        1.27362370       7.83969467       3.63165896       0.00000000       0.00237615       0.00349099       0.00310267
C        0.07791501      10.02824586       3.79502987       0.00000000      -0.00458142       0.00274422       0.00353174
C        7.49598159       1.46218439       3.88063090       0.00000000       0.00463158      -0.00330997      -0.00137421
C        6.33310994       3.59973304       3.61506112       0.00000000       0.00203773      -0.00234832       0.00141884
C        5.22969332       5.72641155       3.05788187       0.00000000       0.00398916      -0.00219851      -0.00081347
C        3.78640252       7.95616513       3.28610272       0.00000000      -0.00453113      -0.00117756      -0.00043484
C        2.54209130       9.99080060       3.79459655       0.00000000      -0.00017959       0.00673614      -0.00667345
C        9.94013072       1.46527787       3.99306334       0.00000000       0.00168921      -0.00140109      -0.00036412
C        8.71904434       3.61890708       4.02028456       0.00000000      -0.00476324      -0.00915278       0.00735642
C        7.51850153       5.77315834       3.78176592       0.00000000      -0.00329207      -0.00418879      -0.00202094
C        6.27664585       7.93052565       3.55304161       0.00000000      -0.00765775       0.00900105       0.00304025
C        5.01458336      10.03982689       3.76796516       0.00000000       0.00241033       0.00633091      -0.00303901
Pt       2.50685428       5.00168492       3.10549987       0.00000000      -0.00633929       0.00477073      -0.01050644
O       -0.03559567       3.44385193       6.75957246       1.00000000       0.01211181      -0.00512040      -0.00132551
O        0.72827069       2.49201336       6.63237275       1.00000000       0.00069358      -0.00845544       0.00375510
