52
Lattice="12.336457 0.0 0.0 -6.168228499999997 10.683685154694365 0.0 0.0 0.0 15.0" Properties=species:S:1:pos:R:3:forces:R:3 energy=-444.05410133745727 free_energy=-444.05410133745727 stress="-0.0011919175936801424 -0.0006841858958668792 -3.569463431881282e-05 -0.0006841858958668792 -0.0013507349158447123 3.85374812447455e-07 -3.569463431881282e-05 3.85374812447455e-07 1.2606509876570038e-05" pbc="T T T"
C        0.00974882      -0.15516139       3.93224312       0.00044571      -0.00291723      -0.00235901
C       -1.22538534       1.98562109       4.04069783      -0.00030703       0.00317117       0.00630743
C       -2.46835915       4.12966925       3.86059791      -0.00578740      -0.00054577       0.00663618
C       -3.68980194       6.26466223       3.72450115      -0.00166355      -0.00154592       0.00190611
C       -4.92463152       8.39671874       3.77503692       0.00254889      -0.00165195      -0.00252066
C        2.48777213      -0.18132265       3.81475196       0.00127251       0.00188087      -0.00205220
C        1.28319463       1.90661587       4.19663382      -0.00302600      -0.00335104      -0.00161168
C       -0.07739116       4.21123544       4.28286533       0.00253169      -0.00696635       0.00379468
C       -1.25094458       6.29228339       3.87667235       0.00439724       0.00094852      -0.00196450
C       -2.45264662       8.39642323       3.74527214       0.00224324       0.00024011      -0.00017185
C        4.95583856      -0.15930240       3.66493735      -0.00431226      -0.00038665      -0.00355213
C        3.68828021       1.92271056       3.48722544       0.00173215       0.00246091       0.00212263
N        1.11439298       6.33982722       4.40173927      -0.00089502      -0.00337683       0.00154285
C        0.02108783       8.38663126       3.82995435       0.00529051       0.00337748      -0.00771590
C        7.42318688      -0.16231813       3.73261024      -0.00638427       0.00106039       0.00606740
C        6.17365591       1.99816493       3.52097999       0.00092073      -0.00077050       0.00614506
C        4.98212835       4.21885306       3.33357384       0.00589469       0.00275847       0.00477330
O        3.79977011       6.29716270       3.72187899      -0.00364347      -0.00106400      -0.00023891
C        2.50185085       8.33794499       3.85905433      -0.00136031      -0.00181283      -0.00728188
C        9.87637078      -0.16263774       3.85102914      -0.00503201       0.00136806       0.01016826
C        8.64572025       1.98672271       3.75939132      -0.00388527       0.00170608       0.01181150
C        7.40789724       4.13220591       3.62401085      -0.00302938       0.00328007      -0.00093135
C        6.19578046       6.28609683       3.64158642      -0.00138200       0.00010255      -0.00177082
C        4.94844994       8.39533130       3.75333602       0.00243337      -0.00258170      -0.00708126
C        0.00839299       1.26129165       4.08510570      -0.00141400      -0.00260511       0.00574816
C       -1.24142509       3.42581147       4.06190732      -0.00063897       0.00111481      -0.00702911
C       -2.46379795       5.55348325       3.80437424       0.00031249      -0.00018768       0.00137520
C       -3.68655941       7.68588137       3.74350473       0.00179193      -0.00123781      -0.00636078
C       -4.92445020       9.81400023       3.85798944       0.00291585      -0.00038320      -0.00382025
C        2.49549733       1.22507617       3.85544123      -0.00036163       0.00201794      -0.00272915
P        1.44664010       3.49545519       4.84891855       0.00033517       0.00131614       0.00849452
C       -0.03697150       5.62736847       4.15377296       0.00228535      -0.00695465      -0.00335119
C       -1.22310977       7.69464788       3.80446459       0.00607359       0.00317922      -0.00997766
C       -2.44301084       9.81188866       3.72660079      -0.00162385      -0.00040713      -0.00075557
C        4.94811849       1.27161662       3.53745116       0.00064837      -0.00081921      -0.00049303
S        3.49724807       3.50013715       2.78079119      -0.00005179       0.00017652      -0.00141918
C        1.23530173       7.65247816       4.00874393       0.00111605      -0.00422556      -0.00255397
C        0.02378412       9.81066994       3.72645648      -0.00396656       0.00311247       0.00147330
C        7.40795406       1.27754462       3.66088262      -0.00129762      -0.00032812      -0.00007322
C        6.16585772       3.43414311       3.48007255       0.00091061       0.00179981       0.01049611
C        4.99485267       5.60637232       3.52507508      -0.00166618       0.00244214      -0.00067366
C        3.74663941       7.68542387       3.73941083       0.00107271      -0.00053661       0.00111494
C        2.48369931       9.78331312       3.80865191      -0.00697541      -0.00003698      -0.00122762
C        9.88140290       1.27501384       3.88671304      -0.00043676       0.00411216       0.00025475
C        8.64313084       3.41334018       3.74177623      -0.00716441       0.00105291       0.00239126
C        7.41809149       5.55061553       3.65838542      -0.00282251       0.00114604       0.00177014
C        6.18829965       7.70016818       3.73025687       0.00301170      -0.00265275      -0.00656583
C        4.94187781       9.82000665       3.85532010      -0.00183779      -0.00157752      -0.00113074
Pt       2.44683048       5.17447285       5.47289166      -0.00008750       0.00743877      -0.00116584
O        3.26382467       6.80249654       6.19349459       0.00200723       0.00246482       0.00281192
O        2.19213731       7.49251071       6.89845336       0.00906461      -0.01423655       0.00057681
H        2.70326119       7.74849734       7.69546324       0.00979653       0.00943119      -0.00920352
