51
Lattice="12.336457 0.0 0.0 -6.168228499999997 10.683685154694365 0.0 0.0 0.0 15.0" Properties=species:S:1:pos:R:3:initial_magmoms:R:1:forces:R:3 energy=-437.0061835982562 free_energy=-437.0061835982562 stress="-0.00418139707337407 -0.002213727166090974 2.6622437727721396e-05 -0.002213727166090974 -0.0015889340577967454 8.097012898672856e-06 2.6622437727721396e-05 8.097012898672856e-06 1.9899457674483933e-06" pbc="T T T"
C        0.01357748      -0.03046828       3.64673976       0.00000000       0.00433329       0.00212710       0.00247931
C       -1.24642493       2.09701925       3.40413573       0.00000000       0.00197714       0.00431407       0.00792709
C       -2.49608634       4.24802704       3.51316653       0.00000000      -0.00220698      -0.00593857       0.00146852
C       -3.66877056       6.39839407       3.77034605       0.00000000       0.00158440       0.00748917      -0.00129441
C       -4.89291292       8.53721502       3.80407639       0.00000000      -0.01027077       0.00951727       0.00668161
C        2.49021309      -0.03781284       3.67042293       0.00000000       0.01491892       0.00100778       0.00420681
C        1.24973327       2.02933034       3.26590683       0.00000000      -0.00901407      -0.00239670       0.00746890
C       -0.21979295       4.27135594       2.71912891       0.00000000       0.00504209      -0.00933532      -0.00265943
C       -1.29620458       6.41063509       3.16755397       0.00000000       0.00004882      -0.00014393       0.01081617
C       -2.42919057       8.52568833       3.59785385       0.00000000      -0.00330288      -0.00107757       0.00260600
C        4.96002012      -0.02303677       3.78357410       0.00000000      -0.00191509      -0.00108430      -0.00979415
C        3.68563734       2.06390406       3.98514708       0.00000000      -0.00084145      -0.00203223       0.00012434
S        1.25054430       6.50243953       2.10220764       0.00000000       0.00247095       0.00608234      -0.00329300
C        0.02404710       8.53485208       3.40440284       0.00000000       0.00238665       0.00192945       0.00240917
C        7.42465571      -0.03425924       3.79461662       0.00000000      -0.00696877      -0.00479674      -0.00665741
C        6.18852520       2.11591816       4.08800809       0.00000000       0.01047937      -0.00582146       0.00079227
C        5.05710725       4.34166868       4.42825991       0.00000000      -0.00278666       0.00076018      -0.00748951
N        3.86900207       6.41160419       3.96868151       0.00000000       0.00746044      -0.00201681      -0.01156184
C        2.49822028       8.48496870       3.59372838       0.00000000       0.00023660      -0.00445349       0.00748645
C        9.88475015      -0.03710015       3.74090714       0.00000000      -0.00429541       0.00723120       0.00191057
C        8.64687585       2.10920582       3.81419902       0.00000000       0.00708053       0.00420798       0.00161689
C        7.44866188       4.26386834       4.05433285       0.00000000      -0.00665365       0.00334630      -0.00838269
C        6.26441862       6.44522595       4.13908276       0.00000000       0.00330203      -0.00609834      -0.00147263
C        4.97319747       8.52225792       3.86155736       0.00000000      -0.00264746      -0.00011018      -0.00143032
C       -0.00229870       1.38603689       3.42245521       0.00000000      -0.00429340      -0.00246795       0.00447151
C       -1.31029051       3.51358677       3.20342555       0.00000000       0.00298733      -0.00609569       0.00021762
C       -2.48322582       5.67687385       3.49599394       0.00000000      -0.00148914      -0.00207524       0.00559537
C       -3.66338474       7.82014272       3.72756641       0.00000000      -0.01008208       0.00787352       0.00195763
C       -4.91309706       9.95085977       3.69068193       0.00000000       0.01128275       0.00932053       0.00387686
C        2.48017696       1.38396308       3.64204711       0.00000000      -0.00313005      -0.00187464       0.00001561
S        1.29191110       3.47391286       2.29768218       0.00000000       0.00467479       0.00343592       0.00563111
C       -0.21232520       5.66396953       2.67806971       0.00000000      -0.00671642      -0.00705415       0.00082249
C       -1.21755840       7.82572583       3.36374171       0.00000000       0.00149067       0.00533956       0.00408374
C       -2.43470090       9.94887780       3.69362484       0.00000000       0.00681824      -0.00509197      -0.00272003
C        4.94677495       1.40284946       3.98541224       0.00000000       0.00278891      -0.00244852       0.00215120
P        3.47076840       3.63384390       4.80967162       0.00000000       0.00597044       0.00261527      -0.00100747
C        1.27600306       7.88368370       3.19333038       0.00000000       0.00447548      -0.00254942       0.00009094
C        0.02411755       9.94788553       3.68942613       0.00000000      -0.00831445      -0.00474037       0.01628366
C        7.41517365       1.39902552       3.92674581       0.00000000       0.01258755      -0.00659470       0.00302568
C        6.21872394       3.55329767       4.23567507       0.00000000      -0.00240253      -0.00175790      -0.01079794
C        5.04645145       5.75520637       4.27210723       0.00000000       0.00214379      -0.00330329      -0.01125554
C        3.75607857       7.76997451       3.79395564       0.00000000       0.00027779      -0.00192976       0.01270776
C        2.48929522       9.92391598       3.74457113       0.00000000      -0.00608004      -0.00015232      -0.01021954
C        9.88034866       1.39479745       3.66284490       0.00000000       0.00282158       0.00938539      -0.00655879
C        8.64492583       3.53780319       3.81679095       0.00000000      -0.00806127       0.00220090      -0.01048893
C        7.46358467       5.69184744       4.02515412       0.00000000       0.00277813       0.00172484      -0.01471865
C        6.22011762       7.84113810       3.94889597       0.00000000      -0.00751200      -0.00523137      -0.00164133
C        4.95292643       9.94076121       3.74877592       0.00000000      -0.00169469       0.00457739      -0.00556144
Pt       2.50132189       5.02632150       3.41112377       0.00000000      -0.00167342       0.00776489       0.00126416
O        2.40989004       4.78862864       8.98712156       1.00000000      -0.01088504       0.01021459       0.00468880
O        1.87514181       5.86391633       8.69278602       1.00000000       0.00081903      -0.01379271       0.00412677
