52
Lattice="12.336457 0.0 0.0 -6.168228499999997 10.683685154694365 0.0 0.0 0.0 15.0" Properties=species:S:1:pos:R:3:forces:R:3 energy=-448.5803670588393 free_energy=-448.5803670588393 stress="-0.006169237852278791 -0.003121339981998412 -1.705154220320818e-05 -0.003121339981998412 0.0051896738075032966 -1.3813643169896752e-05 -1.705154220320818e-05 -1.3813643169896752e-05 -9.900632204989694e-07" pbc="T T T"
C        0.01349112      -0.01276266       4.00799381      -0.00178252      -0.00459005       0.00663990
C       -1.25833716       2.08299424       4.07739862       0.00526605      -0.00630070      -0.00767861
C       -2.48953812       4.23731110       4.07819671       0.00465962       0.00093531       0.00111109
C       -3.67349683       6.39792451       4.01351211       0.00408709       0.00022451      -0.01188082
C       -4.89930540       8.55355021       3.97787410      -0.00827137       0.00656339       0.00571796
C        2.48537088       0.01900201       3.95594486       0.00429489       0.00108519      -0.00380119
C        1.20120455       2.15952766       3.95970588       0.00246067       0.00451398      -0.00015495
C       -0.07315009       4.22330968       4.07020769      -0.00434523       0.00401216      -0.00625321
C       -1.24657158       6.39072249       4.07499315       0.00308840      -0.00150561      -0.00696060
C       -2.44172630       8.54312426       4.02233435      -0.00229155       0.00279884      -0.00106635
C        4.95830632      -0.03092119       3.79363454       0.00433854       0.00679893      -0.00237354
C        3.69103919       2.06940247       3.44207166      -0.00403001       0.00171016      -0.00302220
N        1.13529936       6.32636538       3.89003458       0.00086949       0.00267824       0.00130966
C        0.03290879       8.47415720       3.89280236      -0.00468151      -0.01077945       0.01060928
C        7.42362804      -0.07369334       3.79268899       0.00033698      -0.00790349      -0.01067960
C        6.19365619       2.10599323       3.55528477      -0.00348647       0.00524100       0.00021085
C        5.13103870       4.36373334       3.05210387      -0.00796382      -0.00638599      -0.00191684
O        3.92854803       6.45930163       3.27438450       0.00088456       0.00417957       0.01016246
C        2.51400639       8.40878653       3.76144401      -0.00026327      -0.00080068       0.00193273
C        9.86742438      -0.07357338       3.91651964       0.00674623      -0.00433626       0.00253425
C        8.62962433       2.08529855       3.88893652      -0.00081895       0.00067498       0.00101892
C        7.43514865       4.25657329       3.73690892      -0.00043893      -0.00045429      -0.00489524
C        6.27850925       6.44656691       3.60938312      -0.00602344      -0.00383507      -0.00128450
C        4.97705136       8.52233410       3.80969543      -0.00523427      -0.00471105      -0.00347259
C       -0.01118512       1.40927078       4.04349717       0.00551907      -0.00442886       0.00498119
C       -1.27846227       3.50492480       4.11671054       0.00170850      -0.00428279      -0.00733561
C       -2.46581740       5.66689815       4.09144078       0.00650901      -0.00027786       0.00227162
C       -3.66847678       7.83038193       4.02687459      -0.00535978       0.00449834      -0.00349249
C       -4.90750812       9.98265323       4.01007633      -0.00003904       0.00685095       0.00278484
C        2.46865010       1.44813901       3.80716836      -0.00007152      -0.00094096       0.00082101
N        1.08972570       3.52273099       4.02396575      -0.00107449       0.00729282       0.00345447
C       -0.04362583       5.66493516       4.00804042       0.00277331       0.00315000       0.00026498
C       -1.21483744       7.81093717       4.01299122      -0.00596299      -0.00488755       0.00244548
C       -2.44658356       9.97129717       3.93496830       0.00692131       0.00484445      -0.00076333
C        4.94928654       1.39097127       3.57891950      -0.00394294       0.00983266      -0.00080347
P        3.61897078       3.57372231       2.43473847       0.01113519       0.00866687       0.00348390
C        1.24403113       7.69827168       3.82198575       0.00042459      -0.00022128       0.00607959
C        0.02363333       9.91036035       3.82034141      -0.00157887      -0.01037975      -0.00715043
C        7.40694679       1.37210443       3.74438237      -0.00269207      -0.00140531      -0.00249474
C        6.23613312       3.55293201       3.43294536      -0.00389806       0.00057957      -0.00078552
C        5.15491205       5.76641357       3.18747031      -0.00694442      -0.00210969      -0.00542369
C        3.78762302       7.81373023       3.65345213      -0.00427129      -0.00232257       0.00332398
C        2.48394886       9.85848696       3.82779338       0.00607468      -0.00350863      -0.00077570
C        9.85343057       1.36255455       3.98319525       0.00187748      -0.00322377       0.00671693
C        8.63117372       3.51963806       3.92820090       0.00184031       0.00348816      -0.00121543
C        7.46062154       5.68482815       3.80826514      -0.00069468      -0.00176958       0.00007051
C        6.23121615       7.84792594       3.81732036      -0.00546934      -0.00029456      -0.00373618
C        4.95147907       9.94010480       3.93727718       0.00072742      -0.01020297       0.00993107
Pt       2.59462548       4.85344465       3.82105788      -0.00190499      -0.00068119       0.00742464
O        2.90196960       5.73715621       5.61882924       0.00078693       0.00294230       0.00063947
O        1.74630314       5.39945747       6.43858902       0.01210302      -0.00523720       0.00773373
H        2.20351036       4.86066231       7.11645904      -0.00189752       0.01421477      -0.00425765
