51
Lattice="12.336457 0.0 0.0 -6.168228499999997 10.683685154694365 0.0 0.0 0.0 15.0" Properties=species:S:1:pos:R:3:initial_magmoms:R:1:forces:R:3 energy=-440.0546986440817 free_energy=-440.0546986440817 stress="-0.001371801189159771 -0.001127743518090809 -1.094550586336572e-05 -0.001127743518090809 -0.0014147821549763814 2.352563239907727e-05 -1.094550586336572e-05 2.352563239907727e-05 1.2591542748769683e-05" pbc="T T T"
C       -0.02608141      -0.09406706       3.82040647       0.00000000      -0.00811070      -0.01153329       0.00413097
C       -1.26466036       2.04538978       3.96067663       0.00000000       0.00744997       0.00578150      -0.00482494
C       -2.50761984       4.18981503       3.80058563       0.00000000      -0.00236185       0.00396370       0.00926314
C       -3.72484549       6.32568179       3.65410284       0.00000000      -0.00746774      -0.00442976       0.00257823
C       -4.95788411       8.45869619       3.66958723       0.00000000       0.00353400      -0.00088813      -0.00159357
C        2.45108074      -0.12219365       3.69954384       0.00000000       0.00409867      -0.00389259       0.00237369
C        1.24297181       1.96437872       4.09556659       0.00000000      -0.00361585       0.00884937      -0.00266987
C       -0.11383118       4.27073274       4.20933521       0.00000000      -0.01213203      -0.00040230       0.01008473
C       -1.28478227       6.34982129       3.80318611       0.00000000       0.00413811      -0.00086302      -0.00924838
C       -2.48613570       8.45484188       3.63985310       0.00000000       0.00002784       0.00168372       0.00371927
C        4.91929511      -0.10064049       3.56943196       0.00000000       0.00546500      -0.00044282       0.01026636
C        3.65321195       1.98691884       3.41719862       0.00000000       0.00059452      -0.01171675      -0.00322507
N        1.08511344       6.39171544       4.31736535       0.00000000       0.00871727      -0.00601079       0.00981015
C       -0.01115077       8.44192374       3.74245207       0.00000000      -0.00395744       0.00469609       0.00185593
C        7.38403604      -0.10195074       3.65594828       0.00000000      -0.00326782       0.00681907      -0.00242170
C        6.13518032       2.06116377       3.47484124       0.00000000      -0.00249589      -0.00037497       0.00006034
C        4.93870185       4.28573521       3.33640293       0.00000000       0.00703132      -0.00226576      -0.00598020
O        3.76135172       6.36376668       3.74236506       0.00000000       0.00225442       0.00146753      -0.00475381
C        2.46438885       8.40077574       3.78011129       0.00000000       0.00051077      -0.00550926      -0.00337964
C        9.84022948      -0.10195841       3.75830792       0.00000000      -0.00900254       0.01138587      -0.00504737
C        8.60541922       2.04767979       3.70300160       0.00000000       0.00365551       0.00235342       0.00131319
C        7.36700396       4.19478111       3.59119491       0.00000000       0.01141547      -0.00691803       0.00278051
C        6.15850596       6.34925757       3.60097067       0.00000000      -0.00804718       0.00394378       0.00533127
C        4.91364884       8.45719130       3.64911353       0.00000000       0.00234145       0.00376080      -0.00736252
C       -0.03021950       1.32020800       3.98627268       0.00000000       0.00092935      -0.00660154      -0.00251734
C       -1.28011095       3.48612675       3.99229641       0.00000000      -0.00653814       0.00502080      -0.00773453
C       -2.49924731       5.61329311       3.73671074       0.00000000      -0.00163490       0.00147511       0.00597525
C       -3.72041790       7.74649340       3.64770856       0.00000000      -0.00003724      -0.00251800      -0.00481084
C       -4.96052643       9.87529572       3.73982154       0.00000000       0.00042357      -0.00412673       0.00182772
C        2.45681829       1.28313188       3.75542004       0.00000000      -0.00099142      -0.00250630      -0.00130602
P        1.40292198       3.54937166       4.76251834       0.00000000      -0.00231882       0.00156031       0.00364809
C       -0.06572829       5.68995696       4.08486754       0.00000000       0.00298346      -0.00482731      -0.00142866
C       -1.25641498       7.75111243       3.71072165       0.00000000      -0.00206032       0.00241085       0.00841320
C       -2.47891655       9.87052689       3.61453009       0.00000000       0.00813685       0.00017670       0.01339504
C        4.91119654       1.33285522       3.46554227       0.00000000      -0.00033432      -0.00769595      -0.00061432
S        3.45785237       3.58446180       2.75657177       0.00000000      -0.00698941       0.01253595      -0.00208641
C        1.20166976       7.70360811       3.94339907       0.00000000      -0.00317671      -0.00232652       0.00174705
C       -0.01233736       9.86789434       3.63906277       0.00000000       0.00009720       0.00600868       0.00843742
C        7.36860070       1.33879437       3.60347201       0.00000000      -0.00189845       0.00703244      -0.01035954
C        6.12322475       3.49806138       3.45792832       0.00000000       0.00844152      -0.00246268      -0.00749066
C        4.95427916       5.67167346       3.52828097       0.00000000      -0.00365326      -0.00027511      -0.00213863
C        3.71307836       7.74536115       3.65958950       0.00000000       0.00660022       0.00135344      -0.00727783
C        2.44573860       9.84250924       3.71663005       0.00000000      -0.00574495       0.00127753       0.00567826
C        9.84270083       1.33501390       3.80935428       0.00000000       0.00556472       0.01184677       0.00887941
C        8.60219365       3.47428087       3.69490541       0.00000000       0.00904971      -0.00354062      -0.00677205
C        7.38130245       5.61373543       3.61312860       0.00000000      -0.00739042      -0.00465350      -0.00195051
C        6.15470951       7.76352108       3.64142571       0.00000000       0.00288842       0.00553107       0.00805497
C        4.90658171       9.88218445       3.74639692       0.00000000      -0.01439665       0.00099061      -0.00569197
Pt       2.48115203       5.13298318       5.46489249       0.00000000       0.00412006       0.00255244      -0.00229031
O        2.84263702       7.50212548       6.18557210       1.00000000       0.00422861      -0.00601977      -0.01468251
O        3.61599127       6.46539287       6.31422577       1.00000000       0.00292604      -0.01167605       0.00003498
