52
Lattice="12.336457 0.0 0.0 -6.168228499999997 10.683685154694365 0.0 0.0 0.0 15.0" Properties=species:S:1:pos:R:3:forces:R:3 energy=-442.49840110900965 free_energy=-442.49840110900965 stress="-0.004291056249901553 -0.002413497787629589 -3.3360340041718994e-06 -0.002413497787629589 -0.002115772790608852 7.608780089298021e-06 -3.3360340041718994e-06 7.608780089298021e-06 -1.7175394338139112e-05" pbc="T T T"
C        0.04056725       0.07554360       3.83936631      -0.00286032      -0.00392828      -0.01091531
C       -1.22090608       2.19938457       3.58254875      -0.00043603       0.00338929       0.00097472
C       -2.47207798       4.34837551       3.69058452      -0.00597364       0.00078290       0.00023495
C       -3.64446694       6.49968861       3.96068433       0.00309665       0.00489584       0.00325390
C       -4.86708930       8.64054624       4.00615019      -0.00570335       0.00263135      -0.00971998
C        2.51626011       0.05810411       3.86101764      -0.00609569       0.00336538       0.00871651
C        1.27445575       2.13302991       3.43204338       0.00023956      -0.00618556       0.01030809
C       -0.19908200       4.37612012       2.88980074       0.00381719       0.00227663      -0.01535052
C       -1.27510254       6.51196370       3.34946145       0.00513676      -0.00762355       0.00922052
C       -2.40369797       8.62275902       3.79598743      -0.00545373       0.01107014       0.00757456
C        4.98717380       0.06911581       3.98348403       0.00394428       0.00569697      -0.00026452
C        3.70127508       2.12893267       4.19699082      -0.00312984       0.00503971      -0.00011243
S        1.25042362       6.62380826       2.24931777      -0.01031894       0.00144067      -0.01236582
C        0.04994765       8.63282265       3.59650218       0.00023803      -0.00718555      -0.00165533
C        7.44971501       0.06614371       3.98283015       0.00145835       0.00183359      -0.00313177
C        6.21222653       2.21667538       4.28058384       0.00537550      -0.00459645      -0.01141324
C        5.10013362       4.45805438       4.64777380       0.00827650      -0.00661969      -0.00174877
N        3.89571198       6.51795340       4.15402004      -0.00519963      -0.00717558      -0.00694579
C        2.52334672       8.58625665       3.77240658       0.00501415       0.00104283      -0.00437274
C        9.91016901       0.06653695       3.92135053      -0.00632763       0.00224375       0.00751539
C        8.67113963       2.21111241       3.99395360      -0.00189587       0.00687031       0.00566231
C        7.47486178       4.36677994       4.24367525       0.00206054      -0.00255723       0.00187781
C        6.29173726       6.55237727       4.33917140       0.00411791      -0.01068551      -0.00262515
C        4.99903318       8.62925010       4.05666570       0.00399372      -0.00189610       0.00180480
C        0.02578095       1.49108490       3.60226632       0.00165494      -0.00442714       0.00387212
C       -1.28612822       3.61521151       3.37814943       0.00485473       0.00760599       0.00667397
C       -2.46062619       5.77749529       3.67880566       0.00066418      -0.00189715       0.01088610
C       -3.63908615       7.92097828       3.92422933      -0.00383572       0.00795285       0.00830848
C       -4.88754192      10.05238683       3.88857159      -0.00516589       0.00055071      -0.00589246
C        2.50116358       1.47862804       3.82347075       0.00012650      -0.00262035      -0.00727231
S        1.31419830       3.58193554       2.46272962      -0.00809785       0.00303426      -0.00534471
C       -0.19777567       5.76793656       2.84386797       0.01179312       0.00404056      -0.00026031
C       -1.19232730       7.92462000       3.55756466      -0.00832061      -0.00152092      -0.00872172
C       -2.40873927      10.04393299       3.89410041      -0.00229926       0.01472389      -0.00466112
C        4.97161013       1.49313056       4.18294366      -0.00159688       0.00499591      -0.00199782
P        3.51240215       3.74077312       4.86412185      -0.00806295       0.00876770      -0.00162121
C        1.30049498       7.98579045       3.36849544       0.00571468      -0.00467572       0.00623009
C        0.05124745      10.04365807       3.88736268       0.00397580      -0.00316379       0.00059270
C        7.43849536       1.50073149       4.11570148       0.00255795       0.00147235      -0.01374357
C        6.24408165       3.65995004       4.43201087       0.00724492      -0.00750999      -0.01342550
C        5.07389173       5.86286867       4.46643367      -0.00231613      -0.00685351       0.00309335
C        3.78239406       7.87569882       3.98351475       0.00288229      -0.00312788       0.00495958
C        2.51472468      10.02585380       3.92378947      -0.00240219       0.00103050       0.00637386
C        9.90528069       1.49780476       3.84053634      -0.00420805       0.00611772       0.00797520
C        8.66901731       3.63895419       3.99497990      -0.00121158       0.00329127       0.01502436
C        7.48810951       5.79525508       4.21894945       0.00798308      -0.00445714       0.00363652
C        6.24558230       7.94797871       4.14902098       0.00344542      -0.00654567       0.00401462
C        4.97956945      10.04690283       3.93860916      -0.00420628       0.00098852      -0.00125551
Pt       2.51305049       5.16181316       3.55193893       0.00729319      -0.01193889      -0.00228654
O        3.19078471       3.68784449       6.44144395       0.00814483       0.00123307       0.00435196
O        1.75550190       3.12230391       6.62676214      -0.01135532       0.00197951       0.00660884
H        1.42573674       3.86048264       7.17858685       0.00136860      -0.00317251      -0.00264117
