51
Lattice="12.336457 0.0 0.0 -6.168228499999997 10.683685154694365 0.0 0.0 0.0 15.0" Properties=species:S:1:pos:R:3:initial_magmoms:R:1:forces:R:3 energy=-442.73712333369133 free_energy=-442.73712333369133 stress="-0.009726872489864995 0.003342225691569958 1.0346511674928492e-05 0.003342225691569958 -0.0005951047045486722 1.4470066747700097e-05 1.0346511674928492e-05 1.4470066747700097e-05 7.529540471291011e-06" pbc="T T T"
C       -0.03787358      -0.01744701       3.76389897       0.00000000      -0.00090660       0.00533326      -0.00176458
C       -1.27484509       2.11450208       3.73580841       0.00000000      -0.00312512      -0.00461985       0.00398474
C       -2.52167781       4.26164860       3.98449918       0.00000000      -0.00153659      -0.00788378       0.01109977
C       -3.77245679       6.40317570       4.04332187       0.00000000      -0.00413869      -0.00487057      -0.00825689
C       -4.99182713       8.53693756       3.86016921       0.00000000      -0.00153697       0.01280396      -0.00235610
C        2.42780203       0.01986444       3.87459779       0.00000000       0.01310977      -0.00128091      -0.00070864
C        1.21012729       2.08534921       3.44389776       0.00000000       0.00224296      -0.00883952      -0.00126606
C       -0.20371214       4.35060310       3.38469364       0.00000000      -0.01800557      -0.00287863       0.00423357
C       -1.36091953       6.44188072       3.95446182       0.00000000       0.00032829       0.01567644      -0.00430978
C       -2.53958394       8.56108768       4.05469943       0.00000000      -0.00678744       0.00344296      -0.00008621
C        4.90039198      -0.01554835       3.98951937       0.00000000      -0.00483709      -0.00446529       0.00999272
C        3.72718034       2.15345146       3.71886003       0.00000000       0.00051884      -0.00524886       0.00902426
N        1.01025116       6.41218426       3.69915378       0.00000000      -0.00478301       0.01220934       0.00116548
C       -0.06215631       8.51921200       3.95864219       0.00000000      -0.00776375       0.00499124       0.00566635
C        7.38150566      -0.05977672       3.99406172       0.00000000      -0.00688736      -0.00744532       0.00316743
C        6.17517761       2.07618065       3.93984839       0.00000000      -0.00705075       0.00552093       0.00780826
C        5.03906366       4.17646371       3.48447089       0.00000000       0.01690967       0.01347515      -0.00836244
P        3.69825017       6.35195553       2.38108805       0.00000000       0.00306531       0.01212036       0.00663072
C        2.42002561       8.47846078       3.68244866       0.00000000       0.00633404      -0.01220653       0.00529834
C        9.83486852      -0.04724281       3.85051888       0.00000000       0.00166532       0.00416508      -0.00001734
C        8.62157042       2.09219751       4.00848489       0.00000000       0.00338322       0.00453504       0.00361523
C        7.39913779       4.23716562       3.96342299       0.00000000      -0.00016040       0.00071557      -0.01296569
C        6.16475670       6.37024415       3.60798455       0.00000000      -0.01086282      -0.00314264       0.00636228
C        4.89158405       8.51770817       3.58492167       0.00000000       0.00703730      -0.01323877       0.00167626
C       -0.03360631       1.40987636       3.64824421       0.00000000      -0.00244194      -0.00628678      -0.00714840
C       -1.31181233       3.55536747       3.72683673       0.00000000      -0.00781105      -0.01132176      -0.00018881
C       -2.55394407       5.68910454       4.04297115       0.00000000       0.00842611       0.00211395      -0.00475960
C       -3.76810445       7.83407468       4.00889206       0.00000000      -0.00930874      -0.00292673       0.00535576
C       -4.97487727       9.97039559       3.84087575       0.00000000       0.00563500       0.01043543      -0.00441268
C        2.44592622       1.44573127       3.69086052       0.00000000       0.00282050      -0.00985116       0.00053717
P        1.15028209       3.60215528       2.47074112       0.00000000       0.01258809      -0.00016231      -0.01347127
C       -0.18116660       5.75911601       3.64579632       0.00000000      -0.00764123       0.00821755      -0.00319449
C       -1.31354425       7.84901843       4.03192056       0.00000000      -0.00547738       0.00453717      -0.00784209
C       -2.52006436       9.98473434       3.99471617       0.00000000       0.00805713      -0.00029968      -0.00402608
C        4.93085427       1.39925633       3.89584672       0.00000000      -0.00724603      -0.00030662       0.00749605
N        3.86040725       3.50814330       3.59520319       0.00000000       0.02159159      -0.01883594       0.00509295
C        1.14550885       7.76851819       3.77915468       0.00000000       0.00073697       0.01086611      -0.00764354
C       -0.03617763       9.93762181       4.00377649       0.00000000      -0.01022886      -0.00791191      -0.00362376
C        7.39779421       1.36512444       4.02218563       0.00000000      -0.00401366       0.00127609      -0.01233900
C        6.21507810       3.48358894       3.80492027       0.00000000       0.00935543      -0.00319699      -0.00724678
C        5.05148116       5.58719856       3.25243141       0.00000000      -0.00286414       0.00420106      -0.00705667
C        3.64757245       7.84825223       3.37167816       0.00000000       0.00958195      -0.01383118       0.00953039
C        2.43421335       9.90203470       3.87831651       0.00000000       0.00312823      -0.00327556      -0.00730335
C        9.84946497       1.38657857       3.89540239       0.00000000       0.00225189       0.01113885      -0.00601675
C        8.61710610       3.52346298       4.03976051       0.00000000       0.00277422      -0.00120181       0.00418709
C        7.36821171       5.66646256       3.91337197       0.00000000      -0.00789534       0.00096522       0.00272823
C        6.13238732       7.81124949       3.65695110       0.00000000      -0.00021549       0.00194310       0.00827991
C        4.89854415       9.94197876       3.75266381       0.00000000      -0.00398557      -0.00205904       0.00241768
Pt       2.38365708       4.90409102       3.69352084       0.00000000       0.00376764       0.01952138       0.01921601
O        3.87166816       5.09783907       5.97995677       1.00000000       0.01633343      -0.00802119      -0.00374891
O        2.91384397       5.78572568       5.42245657       1.00000000      -0.01413134      -0.00459590      -0.00445074
