52
Lattice="12.336457 0.0 0.0 -6.168228499999997 10.683685154694365 0.0 0.0 0.0 15.0" Properties=species:S:1:pos:R:3:forces:R:3 energy=-441.4032617946947 free_energy=-441.4032617946947 stress="-0.0031632143880177955 -0.0013963743421616423 -2.782814155300188e-05 -0.0013963743421616423 -0.0037355293942925114 -4.9253645454003604e-05 -2.782814155300188e-05 -4.9253645454003604e-05 6.60011203428721e-05" pbc="T T T"
C        0.07208362      -0.14450681       4.07019360      -0.00131695      -0.00622317      -0.00027646
C       -1.17028927       2.00005051       3.97384759      -0.00082017       0.00402843       0.02706078
C       -2.43031273       4.13133704       3.71968611      -0.00243151       0.00290303       0.00712441
C       -3.64381954       6.27156073       3.76753735       0.00980048       0.00397220      -0.00035478
C       -4.85681170       8.40055275       3.96214526      -0.01023516       0.00164596       0.00350727
C        2.54898074      -0.18292047       3.97379310       0.00010309      -0.00737804       0.01678413
C        1.32829843       1.94129768       4.13481277       0.00873026      -0.00031970      -0.00189284
C       -0.01560673       4.17793867       3.54490972       0.00357210      -0.00720039       0.00962064
C       -1.21357201       6.28169221       3.39914438       0.01732677      -0.00603857       0.00500178
C       -2.38289303       8.38863852       3.75186839      -0.00600017       0.00419100       0.00901914
C        5.01067265      -0.15935164       3.84478539      -0.00676577       0.00298671      -0.01816230
C        3.75605154       1.91823094       3.65513862      -0.00458591      -0.00335616       0.00924157
S        1.42539117       6.27552077       2.60085237       0.00382382      -0.00072223       0.00291504
C        0.07940845       8.39964601       3.62713769       0.00924758      -0.00937632      -0.00662818
C        7.47108773      -0.14401308       3.90975001      -0.01017518      -0.00259246      -0.01373521
C        6.22341389       2.00399188       3.78421450      -0.00663321      -0.00317053      -0.01228631
C        5.01567305       4.20390914       3.68662262      -0.00937314       0.01057029       0.01065148
N        3.87165076       6.32918070       4.28458824       0.00997684       0.00853084       0.00149815
C        2.54278476       8.39158648       3.88328948       0.00753383      -0.00686883      -0.01115588
C        9.93788304      -0.13863310       4.03772912      -0.01041022      -0.00509094       0.00890406
C        8.69394949       1.99788243       3.90975716      -0.00348961       0.00231296       0.00890743
C        7.45263810       4.14074492       3.84006038      -0.01068053      -0.00089008      -0.00273712
C        6.24744874       6.29156568       3.95330300       0.00585571       0.00511651      -0.00618721
C        5.01205853       8.40635434       4.02886273      -0.00600773      -0.00242943       0.00801132
C        0.06714305       1.28273497       4.08401757       0.00567973       0.00002447       0.01579946
C       -1.20095831       3.41429948       3.75143037       0.00073816       0.00154036       0.00174116
C       -2.43112924       5.55486265       3.61762515       0.01118931       0.00135927       0.00137466
C       -3.62711578       7.68835515       3.82143925      -0.00740165       0.00627253       0.01000270
C       -4.86297682       9.81737995       4.02414915      -0.00080714      -0.00413078      -0.00228412
C        2.55088820       1.23128165       3.96101647       0.00109331      -0.01232854      -0.00116647
P        1.46533799       3.65816161       4.37618156      -0.00928248       0.01036976      -0.00495278
C       -0.04187706       5.53520813       3.18368247       0.01279069      -0.00851407       0.00187058
C       -1.16054587       7.69309474       3.55180468       0.00379735      -0.00302611       0.00490315
C       -2.38331205       9.80581043       3.86582372      -0.00366095       0.00402708      -0.00695554
C        5.00512182       1.27430656       3.77341348      -0.00985284       0.00102642      -0.01415200
S        3.63174247       3.48753778       2.89212645       0.00988396       0.00710098       0.01776407
C        1.33820240       7.75700183       3.49843315       0.01739776      -0.01052722      -0.00515168
C        0.07802177       9.81986405       3.82502708      -0.00844409      -0.00516470      -0.00853991
C        7.45526589       1.29091628       3.88888944      -0.00487537      -0.00068984      -0.00702682
C        6.20901240       3.43608081       3.78275332      -0.01469553      -0.00353667       0.00511542
C        5.00055898       5.60672704       3.97474853       0.00613282       0.01464693       0.00106996
C        3.78675437       7.67424227       4.04328986       0.00432830       0.00114699      -0.00693419
C        2.53927074       9.82202498       3.97457099      -0.00912713      -0.00669537      -0.01399686
C        9.93465493       1.28864566       3.98793966      -0.00276353       0.00018888       0.00337197
C        8.68288136       3.42043650       3.83462668      -0.00672265       0.00251931      -0.00439945
C        7.46107291       5.56218928       3.85857894       0.00887496       0.00270523       0.00789709
C        6.24538340       7.70085212       4.00369626      -0.00900970       0.00094928       0.00214465
C        5.00409990       9.83339193       4.05407692      -0.00715988      -0.00454934      -0.01288401
Pt       2.36867378       5.28149095       5.27530727       0.00128181      -0.01055642      -0.00508031
O        2.65595200       6.91894465       6.33620234       0.00442139       0.01614069      -0.01784644
O        1.38987356       7.40187742       6.83849344      -0.01094905       0.00045139      -0.01296285
H        1.43954068       7.04355619       7.75075238       0.03009725       0.01464844      -0.00355235
