51
Lattice="12.336457 0.0 0.0 -6.168228499999997 10.683685154694365 0.0 0.0 0.0 15.0" Properties=species:S:1:pos:R:3:initial_magmoms:R:1:forces:R:3 energy=-443.86073040759754 free_energy=-443.86073040759754 stress="-0.00390739118708282 1.008320242054418e-06 8.207752678510501e-06 1.008320242054418e-06 0.004166382358998202 -9.273869627259163e-06 8.207752678510501e-06 -9.273869627259163e-06 -1.594806328719572e-06" pbc="T T T"
C        0.04609667       0.02219997       3.59882775       0.00000000      -0.00092371      -0.00676997      -0.00321214
C       -1.19871032       2.11782309       3.39185849       0.00000000       0.00870683       0.00048610       0.00811638
C       -2.43247972       4.26521553       3.25039615       0.00000000       0.00328463      -0.00139092      -0.00042060
C       -3.65066658       6.41947735       3.39617290       0.00000000      -0.00412637      -0.00724210       0.00310670
C       -4.88380978       8.56906670       3.60532877       0.00000000      -0.00377174       0.00252684      -0.00458228
C        2.50592687       0.04714036       3.64152152       0.00000000      -0.00394774       0.00498786      -0.00680426
C        1.24095179       2.21534511       3.76037818       0.00000000      -0.00756666       0.00299071      -0.00156156
C       -0.00387274       4.25579281       3.43036020       0.00000000      -0.00297448      -0.00077165       0.00407146
C       -1.21034544       6.42457911       3.27510548       0.00000000       0.00304835      -0.00952627       0.00349967
C       -2.43133062       8.56957132       3.42949015       0.00000000       0.00669868       0.00048576      -0.00308766
C        4.98401000      -0.00994234       3.65374013       0.00000000       0.00337013       0.01352289      -0.01369804
C        3.75273904       2.06451461       4.15884419       0.00000000      -0.00427801       0.00434278      -0.00481901
N        1.10650313       6.38210833       3.83932098       0.00000000      -0.00270048      -0.00470305      -0.00311050
C        0.03855155       8.51014159       3.55876363       0.00000000       0.00260273       0.00300450      -0.01034926
C        7.45105545      -0.04336936       3.60163398       0.00000000       0.00229430       0.00601847      -0.01700528
C        6.24970634       2.10553179       3.83780819       0.00000000      -0.00189944       0.00056016       0.00193048
C        5.25790260       4.27782306       4.53632201       0.00000000       0.00804064      -0.00074167       0.00521883
P        3.83444860       6.48363661       5.25920638       0.00000000      -0.00267015       0.00003466       0.00369841
C        2.50153726       8.48821473       3.86078976       0.00000000      -0.00363680      -0.00718933      -0.00475205
C        9.90585472      -0.03452624       3.56814151       0.00000000       0.00627797      -0.00191840      -0.00672230
C        8.67898774       2.10893919       3.45107840       0.00000000      -0.00014716       0.01339602       0.00137207
C        7.49445033       4.26422730       3.63441448       0.00000000      -0.00849600      -0.00274701       0.00274670
C        6.32269865       6.42887788       3.98571603       0.00000000       0.00481352       0.00432635       0.01624875
C        4.99549970       8.56021261       3.88998288       0.00000000      -0.00059388      -0.01083217      -0.00393764
C        0.03845607       1.45149030       3.55789828       0.00000000       0.00373085      -0.00502469      -0.00715334
C       -1.21032690       3.53769315       3.27322687       0.00000000       0.00243017      -0.00191477       0.00860178
C       -2.43233488       5.69683021       3.25082385       0.00000000       0.00047864      -0.00702537      -0.00006387
C       -3.65742158       7.85194612       3.45147272       0.00000000      -0.00155597       0.00162573       0.00308434
C       -4.88504066      10.00443960       3.60084886       0.00000000      -0.00448636       0.00210223      -0.00515628
C        2.50175721       1.47356291       3.85972302       0.00000000      -0.00685733       0.00405303       0.00217381
N        1.10587879       3.57913736       3.83877589       0.00000000      -0.00254810       0.00420465      -0.00440056
C       -0.00382720       5.70633271       3.43140149       0.00000000      -0.00124270      -0.00728489       0.00460564
C       -1.19867294       7.84421588       3.39273941       0.00000000       0.00657155      -0.00919939       0.01244004
C       -2.43048396       9.99586702       3.56759548       0.00000000       0.00299867       0.00701370      -0.00085310
C        4.99550752       1.40158298       3.88923540       0.00000000      -0.00006129       0.00694230      -0.00071256
P        3.83578459       3.47737671       5.26012394       0.00000000      -0.00423349      -0.00728831       0.00820389
C        1.24104599       7.74618277       3.76104435       0.00000000      -0.00779006      -0.00306304       0.00642592
C        0.04584603       9.93927154       3.59835743       0.00000000       0.00234599       0.00794085       0.00445151
C        7.45245257       1.39187682       3.60463750       0.00000000       0.00027766       0.00933235       0.00279648
C        6.32334032       3.53271102       3.98660642       0.00000000       0.00171598      -0.00641718       0.01175628
C        5.25757634       5.68381793       4.53616069       0.00000000       0.00533082       0.00017734       0.00443519
C        3.75267742       7.89698584       4.15870095       0.00000000      -0.00454841      -0.00543476       0.00094451
C        2.50564616       9.91423058       3.64154488       0.00000000       0.00140964      -0.00154586       0.00084432
C        9.90526433       1.39170875       3.42866636       0.00000000       0.00445652       0.00528824       0.00186438
C        8.68592670       3.54185712       3.39640575       0.00000000      -0.00372497       0.01071481      -0.00028588
C        7.49413392       5.69753965       3.63412576       0.00000000      -0.00590087      -0.00531589       0.00140985
C        6.24944204       7.85603381       3.83775875       0.00000000       0.00071670      -0.00219037       0.00361683
C        4.98403340       9.97158860       3.65447023       0.00000000       0.00511833      -0.01392752      -0.01234081
Pt       2.36924054       4.97950622       4.68048733       0.00000000       0.01020853       0.01026089      -0.00778443
O        1.24256659       5.01504080       7.21052473       1.00000000       0.00205424       0.00875680      -0.00109214
O        0.76097501       4.96807933       6.01727156       1.00000000      -0.00829992      -0.00563143      -0.00375867
