52
Lattice="12.336457 0.0 0.0 -6.168228499999997 10.683685154694365 0.0 0.0 0.0 15.0" Properties=species:S:1:pos:R:3:forces:R:3 energy=-454.9462630717033 free_energy=-454.9462630717033 stress="-0.01110830852410002 -2.7060503665938748e-05 1.4158140004576609e-05 -2.7060503665938748e-05 0.007165979065206602 1.2854632598022423e-05 1.4158140004576609e-05 1.2854632598022423e-05 -1.5292166254960356e-07" pbc="T T T"
C       -0.00203148       0.06775278       3.80602937       0.00564807       0.00355166      -0.00456678
C       -1.26160904       2.15981280       3.78992312      -0.00254597      -0.00128035      -0.00282046
C       -2.49802422       4.31681345       3.70845460      -0.00242136       0.00079905       0.00176513
C       -3.70309026       6.48104665       3.68110598       0.00166499       0.00480042       0.00057630
C       -4.92355446       8.64098893       3.74116442      -0.00210395      -0.00260162      -0.00686955
C        2.46610746       0.14481355       3.79242210       0.00217309      -0.00243935       0.00221926
C        1.19929259       2.26347174       3.83625532      -0.00000448       0.00120880       0.00416920
C       -0.10308844       4.31526123       3.80529491       0.00440744      -0.00765792       0.00356896
C       -1.29239891       6.48364688       3.75770467       0.00189116       0.00244476       0.00407359
C       -2.48127755       8.64079747       3.75989500       0.00089696       0.00087868       0.00046912
C        4.93466921       0.06780281       3.77194845      -0.00452449      -0.00015345       0.00605293
C        3.73389273       2.26534223       3.77040934      -0.00292271      -0.00507251       0.00884920
N        1.07692681       6.42802505       3.90827887      -0.00158718       0.00263392      -0.00198054
C       -0.01307027       8.57073288       3.81469415       0.00313361       0.00517049      -0.00647508
C        7.41086857      -0.00957208       3.77977479      -0.00263797      -0.00490335      -0.00033012
C        6.19331103       2.15927668       3.69654315       0.00431758      -0.00122656       0.00831616
C        5.03043080       4.31314833       3.64524726      -0.00762499       0.00589878       0.00094882
N        3.85719706       6.42727290       3.81679998       0.00530684       0.00351585       0.00342398
C        2.46596417       8.47811893       3.83585246       0.00235454       0.00227000      -0.00297826
C        9.85755456      -0.00982116       3.79953601      -0.00133214       0.00046031      -0.00050564
C        8.63399492       2.14816757       3.72219904       0.00320141      -0.00229531       0.00060479
C        7.42898774       4.31625905       3.63383345      -0.00055819       0.00025969       0.00173050
C        6.22187728       6.48456640       3.64823084       0.00327875      -0.00045592      -0.00008580
C        4.94531926       8.57120631       3.77862202      -0.00472616      -0.00013602      -0.00720027
C       -0.01236024       1.49579359       3.81908447       0.00082874       0.00463917      -0.00499883
C       -1.29240388       3.58263041       3.76267738      -0.00177369      -0.00256043       0.00010320
C       -2.49827841       5.74894787       3.70630339      -0.00056012       0.00275044       0.00332562
C       -3.70257021       7.91825961       3.72205554      -0.00028118       0.00197989       0.00126957
C       -4.92548082      10.07663256       3.78662575       0.00500187      -0.00160084      -0.00314882
C        2.46660741       1.58855285       3.80853879      -0.00331736      -0.00305898      -0.00228417
N        1.07733421       3.63779320       3.89700592       0.00213702      -0.00186366      -0.00754019
C       -0.10424655       5.75117455       3.80793104       0.00547942      -0.00267540      -0.00070292
C       -1.26158072       7.90699587       3.77931886       0.00373031       0.00455053      -0.00065570
C       -2.47887236      10.07671778       3.77791008      -0.00072858      -0.00196867       0.00659642
C        4.94490241       1.49536200       3.74264524       0.00083858      -0.00184276       0.00187856
N        3.85844678       3.63768829       3.80517306       0.00018783      -0.00248031      -0.00221274
C        1.19911455       7.80163104       3.85383812       0.00381571       0.00504716      -0.00241357
C       -0.00175587       9.99869068       3.78908423      -0.00576860       0.00099715       0.00209656
C        7.41274828       1.42561365       3.72853071       0.00538829      -0.00566457       0.00164743
C        6.22280291       3.58130402       3.63241482      -0.00455601       0.00494688       0.00149122
C        5.03195978       5.75188144       3.65660067      -0.00349046       0.00768654      -0.00363554
C        3.73335785       7.80109862       3.80926922      -0.00113593      -0.00045420      -0.00258952
C        2.46590254       9.92268264       3.80745387      -0.00147554      -0.00039737      -0.00006195
C        9.85530508       1.42584431       3.77265951      -0.00036802      -0.00036633      -0.00186572
C        8.63376794       3.58468525       3.67981823      -0.00066889      -0.00247995       0.00298129
C        7.42860698       5.74930604       3.63841456       0.00400797       0.00069137      -0.00143403
C        6.19284407       7.90734202       3.72082868      -0.00398759      -0.00319635      -0.00094458
C        4.93427194       9.99871360       3.80117542       0.00024768       0.00286717      -0.00211514
Pt       2.46765154       5.03554505       4.02385790       0.00304981      -0.00458591       0.00168330
O        2.74024304       5.02591941       6.07227588       0.00348529      -0.00140223      -0.00205008
O        2.89186097       3.65120334       6.49950719      -0.01884287       0.00067520       0.00173916
H        2.58278837       3.72761853       7.42726724       0.00347145      -0.00590363       0.00088573
