52
Lattice="12.336457 0.0 0.0 -6.168228499999997 10.683685154694365 0.0 0.0 0.0 15.0" Properties=species:S:1:pos:R:3:forces:R:3 energy=-448.1861140575072 free_energy=-448.1861140575072 stress="-0.003729968315836593 4.5301617660441794e-05 -1.5228011111456243e-05 4.5301617660441794e-05 0.004179642319534721 3.100887268433612e-06 -1.5228011111456243e-05 3.100887268433612e-06 2.053327026254973e-05" pbc="T T T"
C        0.11383909      -0.01955622       3.67175804       0.00253227       0.00376968       0.00997624
C       -1.13012087       2.07953546       3.48129591       0.00031485       0.00179351      -0.00529360
C       -2.36343657       4.22661811       3.36054876       0.00680765       0.00416020       0.00701520
C       -3.58097839       6.37988652       3.51589232      -0.00185250      -0.00481527      -0.00355652
C       -4.81566488       8.52882002       3.69994859      -0.00205479      -0.00607903       0.00474719
C        2.57446365       0.00716675       3.71964092      -0.00879992      -0.00315225       0.00103496
C        1.30947932       2.17437547       3.83899580      -0.00001059       0.00253856      -0.00182908
C        0.06938459       4.21589519       3.51681375      -0.00303632       0.00763318       0.00638003
C       -1.14153581       6.38505556       3.37394698       0.00423480      -0.00426532      -0.00528705
C       -2.36166617       8.53011049       3.52574984      -0.00279670      -0.00083750      -0.00400111
C        5.05233098      -0.04567986       3.73286219       0.00449009       0.00075988       0.00757196
C        3.81866365       2.02533286       4.24698776       0.00828079      -0.00408147       0.00187252
N        1.17505115       6.34815835       3.91884825       0.00596360       0.00108062      -0.00494619
C        0.10748771       8.47474371       3.63928562      -0.00563961      -0.00106464       0.00017812
C        7.51953961      -0.07925112       3.68422140      -0.00325804       0.00264111       0.00450055
C        6.31773341       2.06840597       3.94107742      -0.00363524      -0.00037945       0.00215441
C        5.32298354       4.23889932       4.65121441      -0.00014972      -0.00559412      -0.00697740
P        3.89685577       6.45202710       5.35849515      -0.00738991       0.00150227       0.00061395
C        2.57019947       8.45154550       3.94107854      -0.00688284       0.00284934       0.00104180
C        9.97463579      -0.07293923       3.65069829       0.00698159      -0.00734212      -0.01298848
C        8.74810573       2.07251539       3.55443336      -0.00727173       0.00031724      -0.00388380
C        7.56331278       4.22594534       3.75506809       0.00435258       0.00043086       0.01078396
C        6.39137619       6.39052245       4.10613979      -0.00168842       0.00429712      -0.01262037
C        5.06234035       8.51917729       3.97534478       0.00241382       0.00216102       0.00778604
C        0.10727910       1.41003213       3.63546209       0.00277536       0.00190060      -0.00602387
C       -1.14080123       3.49986272       3.36612245       0.00349268       0.00426556       0.00459682
C       -2.36300713       5.65812987       3.36585689       0.00116529       0.00242663      -0.00416497
C       -3.58795264       7.81226120       3.55804091      -0.00083504      -0.00569646      -0.00419022
C       -4.81684793       9.96367891       3.67874036      -0.00762794      -0.00768984       0.00853102
C        2.56942819       1.43211655       3.93967685       0.00205012       0.00061470       0.00516218
N        1.17672983       3.53728249       3.92467690      -0.01177360       0.00082704      -0.00119720
C        0.06969586       5.66819825       3.51604629       0.00745504       0.00207355      -0.00432079
C       -1.12999464       7.80505580       3.48846800      -0.00232079      -0.00576730      -0.00329738
C       -2.36097691       9.95747984       3.65024771      -0.00121757       0.00416815      -0.00142298
C        5.06279927       1.36478259       3.97768767       0.00508020      -0.00183456      -0.00004872
P        3.89643050       3.43141416       5.35695615       0.00165349      -0.00105596       0.01198385
C        1.31019704       7.70983281       3.83774436      -0.00559523       0.00279135      -0.00443973
C        0.11415112       9.90363042       3.67755483       0.00039018      -0.00015995       0.00663745
C        7.52100504       1.35576571       3.70216138      -0.01034261       0.00044188      -0.00132297
C        6.39152119       3.49439243       4.10574420      -0.00039887      -0.00414353      -0.00831168
C        5.32088825       5.64631227       4.64878096       0.01112415      -0.00243014       0.00136061
C        3.81979973       7.85920861       4.24835942      -0.00288646       0.00322765      -0.00131841
C        2.57421554       9.87689040       3.72347122      -0.00069210       0.00106159      -0.00167044
C        9.97413912       1.35449131       3.52121318      -0.00312498      -0.00233467      -0.00158617
C        8.75462070       3.50496001       3.50937536       0.00498416       0.00443569       0.00707974
C        7.56361158       5.65874719       3.75738195       0.00001975       0.00130531       0.00384557
C        6.31767536       7.81601831       3.93981368      -0.00290789       0.00333020      -0.00187966
C        5.05164995       9.92977632       3.72924707       0.00974053       0.00026955       0.01055198
Pt       2.41931335       4.94399452       4.81584149      -0.00587936      -0.00317430      -0.00035701
O        0.77763434       4.83363204       6.14188176       0.00997900       0.01495870      -0.00811171
O        0.60336429       6.13529756       6.71224734      -0.00075285      -0.01596341      -0.00835016
H        0.42344046       5.88742484       7.64335646       0.00453963       0.00382857      -0.00200847
