52
Lattice="12.336457 0.0 0.0 -6.168228499999997 10.683685154694365 0.0 0.0 0.0 15.0" Properties=species:S:1:pos:R:3:forces:R:3 energy=-441.042124697203 free_energy=-441.042124697203 stress="-0.007509802522059656 0.0031174460722314078 2.136251168397751e-05 0.0031174460722314078 -0.0020743834822920613 -3.9306034496407907e-05 2.136251168397751e-05 -3.9306034496407907e-05 1.713775811546599e-05" pbc="T T T"
C        0.09339131       0.09080992       3.77960924      -0.00628684       0.00764959       0.00011898
C       -1.12747017       2.23167445       3.56555637      -0.00845747      -0.00947000       0.00954714
C       -2.37145297       4.36993341       3.64766937       0.00255152       0.00927730       0.01166338
C       -3.60089441       6.51064576       3.82957228      -0.00990412       0.00621423      -0.00918965
C       -4.84749024       8.64256881       3.86430833       0.00432482       0.00382228      -0.00393386
C        2.55694825       0.10342788       3.89517083      -0.00142681      -0.00920929       0.02199606
C        1.35424408       2.17812151       3.52234946      -0.00030896       0.00881760      -0.00631443
C        0.01214933       4.42702112       3.19931743       0.00355294      -0.02574974       0.00066897
C       -1.20491562       6.55200425       3.49993142       0.00858951       0.00318193       0.00131292
C       -2.39327136       8.66166591       3.79294996       0.01100562       0.00313799       0.01326149
C        5.02906801       0.09874905       3.98863820       0.00363952       0.00168372      -0.00781381
C        3.78811535       2.17295759       4.33356761      -0.02350809       0.00014951       0.01076041
N        1.11866087       6.52780043       3.82447003      -0.00547945       0.00610522      -0.00040326
C        0.06058537       8.65060481       3.75593850       0.00255777       0.00264733      -0.00519882
C        7.50280543       0.07881216       3.93709177      -0.00208552      -0.00691340       0.00934904
C        6.30308716       2.20513331       4.27438876       0.00194549      -0.00838653       0.00341066
C        5.22629487       4.37647985       4.68862522       0.01164866       0.00385489       0.00282967
P        3.79005307       6.20750057       3.31001376       0.02705316       0.00541853       0.01327261
C        2.53996227       8.60508883       3.80967223       0.00175323       0.00014186       0.00259831
C        9.96582119       0.08024202       3.80870059      -0.00357791      -0.01032346       0.00622857
C        8.75429066       2.21914565       3.90564621       0.00477556      -0.00042223      -0.01005506
C        7.56539180       4.35546969       4.11806351       0.00292985       0.00502450       0.01060568
C        6.33283784       6.50580213       4.08472405      -0.00952984       0.00696333      -0.00049559
C        5.02424088       8.62498647       3.83142086      -0.00100214      -0.01127547       0.00736299
C        0.10536920       1.51940905       3.61941668      -0.00149429       0.00684460      -0.01522753
C       -1.14279908       3.66288169       3.44631503      -0.00811838      -0.01130251      -0.00096061
C       -2.39512921       5.79846797       3.63566346      -0.00088589       0.01137238       0.00274264
C       -3.61476095       7.93696311       3.82600686       0.00414208       0.00845838      -0.00628874
C       -4.84420083      10.06945456       3.83681728      -0.00304094       0.00478301      -0.00593199
C        2.56501051       1.53003311       3.92796806      -0.01422700      -0.00959899       0.00732590
S        1.42370292       3.62386275       2.56841344       0.00116477      -0.00147711       0.00364210
C        0.00475876       5.84775805       3.40480684       0.00690875      -0.00991730      -0.00235496
C       -1.17397464       7.96080789       3.67612951       0.00797359       0.00562243      -0.00138641
C       -2.37785356      10.08081109       3.90789536       0.00840557      -0.00103746      -0.00412550
C        5.04018380       1.51602473       4.21498644      -0.01058492       0.00456243      -0.01356333
S        3.79707412       3.60140443       5.36346327      -0.00564344       0.01751221      -0.00144173
C        1.26460208       7.89230536       3.77671885       0.00100026       0.00693367       0.00522194
C        0.08987056      10.06702771       3.89774368       0.00080189      -0.00593434      -0.00710046
C        7.51606485       1.50423878       4.04913587       0.00462100      -0.00476511      -0.01932178
C        6.36949547       3.62160167       4.41041903       0.00451501      -0.00096466      -0.00486423
C        5.16741379       5.72811907       4.30192428       0.00299586      -0.00008246      -0.00274571
C        3.77981861       7.93728876       3.75655906      -0.00168024      -0.00231023      -0.01158485
C        2.55689760      10.04251248       3.85561674      -0.00376210      -0.00509251       0.00403633
C        9.98474176       1.51529641       3.75478869      -0.00498099      -0.01186489      -0.00094297
C        8.76585585       3.64419884       3.89234045       0.00322378       0.00525334      -0.00168626
C        7.54700591       5.78282823       4.03287084      -0.01369712       0.00568523      -0.00856535
C        6.27135694       7.92199608       3.90098939       0.00390247      -0.00205745      -0.00547965
C        5.02720663      10.05715487       3.80681700      -0.00450519      -0.01104954       0.00647239
Pt       2.42432621       5.25562767       4.70629039       0.01455454      -0.00242718      -0.00659592
O        0.95039898       4.57097324       5.84748105       0.00890231      -0.01007746       0.02561706
O        1.22842437       3.21804533       6.27925371      -0.01016745       0.01519268       0.01300823
H        0.65319660       3.16863657       7.07379969      -0.00508444       0.00539915      -0.02948104
