51
Lattice="12.336457 0.0 0.0 -6.168228499999997 10.683685154694365 0.0 0.0 0.0 15.0" Properties=species:S:1:pos:R:3:initial_magmoms:R:1:forces:R:3 energy=-444.36235171807493 free_energy=-444.36235171807493 stress="-0.003234936896826007 0.001385162616716422 -5.348366471023687e-06 0.001385162616716422 0.007589475208578931 9.064722767606725e-06 -5.348366471023687e-06 9.064722767606725e-06 1.252612312008322e-05" pbc="T T T"
C       -0.04873119      -0.04694020       3.80377558       0.00000000      -0.00184053       0.00170899       0.00120017
C       -1.29684442       2.08205335       3.91753668       0.00000000       0.00229930      -0.00197376       0.00695416
C       -2.53637395       4.23712925       3.62882641       0.00000000      -0.00484316       0.00375543       0.00353849
C       -3.76024782       6.38445026       3.45224829       0.00000000      -0.01057395       0.00344077       0.00148767
C       -4.98762352       8.52838545       3.55250218       0.00000000       0.00941671      -0.00526619       0.00108450
C        2.42862033       0.01055089       3.77010325       0.00000000      -0.00479235       0.00261919      -0.00254929
C        1.19020602       2.04780164       4.25268645       0.00000000       0.00373014       0.00372110      -0.00101501
C       -0.20888819       4.31919152       4.24486287       0.00000000       0.00242084      -0.00364443       0.00989312
C       -1.33697484       6.40893744       3.68842088       0.00000000      -0.00729711       0.00069961       0.01460076
C       -2.52806238       8.54190068       3.58688457       0.00000000       0.00353012      -0.00078358      -0.00341691
C        4.89183747      -0.02022906       3.68848372       0.00000000       0.00500127      -0.00225186      -0.00076041
C        3.70791343       2.18346707       3.89582330       0.00000000      -0.00837007       0.00151668      -0.00784367
N        1.03767096       6.39519349       4.14077969       0.00000000      -0.00373269       0.00510349       0.00875743
C       -0.05278017       8.49209012       3.72711375       0.00000000       0.00044159       0.00051545       0.01183544
C        7.37273310      -0.08262474       3.68069632       0.00000000       0.00525136       0.00060218       0.00040584
C        6.14621893       2.08031353       3.57078661       0.00000000       0.00207642       0.00604294       0.00376555
C        4.94721821       4.23444573       3.51806809       0.00000000       0.00197979      -0.01035078      -0.00754652
O        3.71631711       6.32617475       3.52099894       0.00000000       0.01382507      -0.00501009      -0.00496679
C        2.43670049       8.40298774       3.77774606       0.00000000      -0.01044841      -0.00261941       0.00562147
C        9.82096242      -0.08641120       3.74429487       0.00000000      -0.00820013      -0.00679627       0.00113824
C        8.60110080       2.07377398       3.61062199       0.00000000       0.00333156      -0.00285572       0.00154517
C        7.36897580       4.22690002       3.40818181       0.00000000       0.00413874       0.00996202      -0.00995872
C        6.12119780       6.37551342       3.39336340       0.00000000      -0.00038882      -0.00199100       0.00345474
C        4.87949502       8.46337941       3.63525103       0.00000000       0.00086145      -0.00032193      -0.00032586
C       -0.05340509       1.37178034       4.00318489       0.00000000       0.00620424       0.00121975       0.00242546
C       -1.33286774       3.52895599       3.91860845       0.00000000       0.00190308       0.00149939       0.00240908
C       -2.54117356       5.66734790       3.56024877       0.00000000      -0.01348872       0.00535428       0.00526705
C       -3.75524218       7.81836286       3.50802336       0.00000000       0.00615833      -0.00382019       0.00369022
C       -4.97418646       9.95821194       3.70900597       0.00000000      -0.00170345      -0.00159757      -0.00561262
C        2.44151692       1.43796834       3.99093069       0.00000000      -0.00413876       0.00617415      -0.01460320
P        1.09213483       3.57127780       5.20312922       0.00000000      -0.00796212      -0.00898138      -0.00907675
C       -0.14644079       5.72501107       4.01030903       0.00000000       0.00034980      -0.00059021       0.00076967
C       -1.30429647       7.81970510       3.64680248       0.00000000       0.00154444       0.00042084      -0.00384999
C       -2.51896665       9.97041967       3.67163468       0.00000000      -0.00183630       0.00085852      -0.00163014
C        4.90616971       1.40829323       3.70804062       0.00000000      -0.00204459       0.00251853      -0.00848820
N        3.83515535       3.55445818       3.94165990       0.00000000      -0.00672787       0.00058549      -0.01225989
C        1.15456127       7.73393202       3.87380088       0.00000000      -0.00891705       0.00321967       0.01361595
C       -0.04316809       9.91926638       3.68592554       0.00000000       0.00939542      -0.00238856      -0.00794353
C        7.37592473       1.35214869       3.60028515       0.00000000       0.00240013       0.00165525       0.00645396
C        6.15719605       3.49941581       3.44357493       0.00000000       0.00795262       0.00587545       0.00375084
C        4.94033084       5.64319556       3.40463922       0.00000000       0.00805832      -0.01179046      -0.01117867
C        3.67327253       7.74306376       3.68177887       0.00000000      -0.00362782       0.00565905      -0.00656659
C        2.42887310       9.85231956       3.72978554       0.00000000      -0.00495503      -0.00455119       0.00165989
C        9.82810225       1.35872029       3.75060169       0.00000000       0.00127857      -0.00598123       0.00184266
C        8.59637923       3.50617978       3.52164670       0.00000000      -0.00047252       0.00076693      -0.00345943
C        7.35607351       5.65691244       3.38751894       0.00000000      -0.00518161       0.00588701       0.00015905
C        6.12696997       7.80114047       3.50371142       0.00000000       0.00746680      -0.00398742       0.01740857
C        4.88705775       9.89995325       3.73305090       0.00000000      -0.00568179      -0.00041878       0.00075436
Pt       2.53761269       5.01758362       4.67715271       0.00000000       0.00962891       0.01212256      -0.00855374
O        3.45025634       5.73560639       7.10848872       1.00000000       0.00767168      -0.00737271      -0.00100132
O        3.83544853       5.98647112       5.88658152       1.00000000      -0.00109188       0.00183999      -0.00288226
