51
Lattice="12.336457 0.0 0.0 -6.168228499999997 10.683685154694365 0.0 0.0 0.0 15.0" Properties=species:S:1:pos:R:3:initial_magmoms:R:1:forces:R:3 energy=-450.67770012845364 free_energy=-450.67770012845364 stress="-0.009389685246374015 -3.9139624476479864e-05 4.572466490435658e-05 -3.9139624476479864e-05 0.008282696405869523 -8.581061849367841e-07 4.572466490435658e-05 -8.581061849367841e-07 -5.0831983400527156e-05" pbc="T T T"
C       -0.03225884       0.05161425       3.76529595       0.00000000      -0.00132462       0.00285879       0.00054200
C       -1.29144698       2.14613562       3.75376832       0.00000000       0.00166373      -0.00108822      -0.00209530
C       -2.52646747       4.30116668       3.63559167       0.00000000       0.00036516       0.00025823      -0.00051857
C       -3.73413130       6.46438378       3.58162789       0.00000000       0.00009636      -0.00003267      -0.00030676
C       -4.95514928       8.62342051       3.66407540       0.00000000      -0.00191174       0.00044112      -0.00115967
C        2.43516863       0.12834911       3.74405179       0.00000000      -0.00124189       0.00395994       0.00063480
C        1.17045932       2.24836922       3.82774807       0.00000000      -0.00560399      -0.01099337       0.00082687
C       -0.12795958       4.29970939       3.79905205       0.00000000      -0.01014353      -0.00351600       0.00073102
C       -1.32068942       6.46710899       3.70320670       0.00000000      -0.00189221      -0.00141357       0.00118295
C       -2.51152645       8.62396964       3.69346683       0.00000000      -0.00051585      -0.00080267      -0.00206115
C        4.90427522       0.05266567       3.70898378       0.00000000       0.00097594       0.00408214       0.00357705
C        3.70216965       2.25738171       3.70666524       0.00000000       0.00712712      -0.01065989       0.00288469
N        1.04544041       6.41361194       3.90942377       0.00000000      -0.00224948       0.00886431      -0.00522063
C       -0.04298494       8.55517075       3.77088263       0.00000000       0.00301481       0.00175708       0.00151755
C        7.38067213      -0.02462753       3.72256323       0.00000000       0.00150905       0.00052827       0.00158323
C        6.16244686       2.14453696       3.59174007       0.00000000      -0.00393744       0.00110709       0.00020853
C        4.98735024       4.29668579       3.52056104       0.00000000       0.01433701      -0.00376641       0.00177260
N        3.83214090       6.40559030       3.81062479       0.00000000       0.00162660       0.00482207      -0.00438173
C        2.43689921       8.46125831       3.81685947       0.00000000       0.00056962       0.00024204       0.00195626
C        9.82724403      -0.02494470       3.75806381       0.00000000       0.00098450      -0.00101593      -0.00205030
C        8.60405722       2.13341371       3.64407037       0.00000000       0.00063807      -0.00172156       0.00159611
C        7.39632646       4.30033785       3.50861197       0.00000000       0.00136771      -0.00169891      -0.00081100
C        6.18497406       6.46745446       3.53116921       0.00000000       0.00085037       0.00120191       0.00082082
C        4.91399737       8.55297596       3.72893300       0.00000000      -0.00384725       0.00308072      -0.00180889
C       -0.04183660       1.48119738       3.79406257       0.00000000       0.00325911      -0.00160167       0.00068597
C       -1.32039122       3.56842744       3.72488542       0.00000000      -0.00029398       0.00247168      -0.00188309
C       -2.52695623       5.73343771       3.62764841       0.00000000       0.00044102      -0.00014533      -0.00060174
C       -3.73343258       7.90162404       3.63803943       0.00000000       0.00000790      -0.00097777       0.00179774
C       -4.95649617      10.05920177       3.73338432       0.00000000       0.00217433       0.00079392      -0.00042476
C        2.43575463       1.57334726       3.77119059       0.00000000      -0.00075275      -0.00226889      -0.00071439
N        1.05001395       3.62435227       3.92015987       0.00000000      -0.00239911      -0.00665466      -0.00430984
C       -0.12971464       5.73601064       3.78988575       0.00000000      -0.00947668       0.00213520       0.00113567
C       -1.29096472       7.89049426       3.72142906       0.00000000       0.00341093      -0.00109642       0.00216009
C       -2.50921963      10.05998156       3.72098622       0.00000000      -0.00085821       0.00226619       0.00234007
C        4.91384605       1.48098317       3.65861090       0.00000000      -0.00258974      -0.00595010       0.00072670
N        3.83264402       3.62377400       3.75066825       0.00000000       0.00332711      -0.00487635      -0.00460455
C        1.17006077       7.78535122       3.83699383       0.00000000      -0.00813524       0.01091075      -0.00007892
C       -0.03200539       9.98333247       3.73408448       0.00000000      -0.00018241      -0.00510472      -0.00121918
C        7.38264394       1.41038774       3.64688540       0.00000000       0.00114143      -0.00045395      -0.00089597
C        6.18716018       3.56687702       3.49514762       0.00000000      -0.00027949       0.00467671       0.00003980
C        4.99147930       5.73726789       3.55379751       0.00000000       0.01257531       0.00408238       0.00141156
C        3.70306177       7.77944278       3.78867788       0.00000000       0.00439910       0.00909728       0.00073936
C        2.43578844       9.90744422       3.76873144       0.00000000       0.00100086      -0.00244912      -0.00084979
C        9.82537110       1.41145653       3.72100655       0.00000000      -0.00222028       0.00274891       0.00001970
C        8.60328447       3.57007032       3.58452735       0.00000000       0.00130642      -0.00123147      -0.00014328
C        7.39556157       5.73378941       3.51596519       0.00000000      -0.00125202      -0.00171864      -0.00091952
C        6.15992058       7.88969511       3.63775060       0.00000000      -0.00512566      -0.00289974      -0.00060548
C        4.90369513       9.98180510       3.75886328       0.00000000      -0.00181285      -0.00079339       0.00010268
Pt       2.43174313       5.02566561       4.10924722       0.00000000       0.04562219       0.00299719      -0.04952965
O        3.06946927       3.48021710       6.31642081       1.00000000       0.00819873      -0.00005707      -0.01499375
O        3.37821194       4.69985441       5.98373114       1.00000000      -0.05394407      -0.00039546       0.07119405
