52
Lattice="12.336457 0.0 0.0 -6.168228499999997 10.683685154694365 0.0 0.0 0.0 15.0" Properties=species:S:1:pos:R:3:forces:R:3 energy=-443.9146005549414 free_energy=-443.9146005549414 stress="0.002752068658900302 -0.002156139770095803 -2.5161428702960902e-05 -0.002156139770095803 0.006753453276596468 2.2480116748515415e-05 -2.5161428702960902e-05 2.2480116748515415e-05 -4.816708125276081e-06" pbc="T T T"
C       -0.00445300      -0.11271317       3.70751128       0.00373077      -0.00514191      -0.01276662
C       -1.24983769       2.01909267       3.69024135      -0.00170375      -0.00610202      -0.00038125
C       -2.46848771       4.15418460       3.68620101       0.00272606       0.00391081      -0.00583739
C       -3.69601063       6.29276934       3.68137255      -0.00057775      -0.00917627       0.00281465
C       -4.93267445       8.43785484       3.68167439      -0.00384611      -0.00387953       0.00133638
C        2.45344576      -0.09756035       3.77204928       0.00375551       0.00501117      -0.00059193
C        1.18913316       2.04188714       3.75402167      -0.00129006       0.00392567       0.01052060
C       -0.01876916       4.14918443       3.61667001      -0.00603197      -0.00178676       0.00064688
C       -1.21753455       6.26990534       3.64264977       0.00393602       0.00619235       0.00565672
C       -2.45627786       8.42427777       3.70057504      -0.00150310       0.00697061       0.00463461
C        4.93616544      -0.13346238       3.87586568       0.00154552       0.01052705       0.00522235
C        3.66973667       1.95424165       4.25142167      -0.00333634      -0.00988276      -0.00297341
O        1.18165827       6.27804361       3.65884505      -0.00351930       0.00011441       0.00089389
C        0.01561067       8.38848674       3.71851986       0.00041319       0.00189185      -0.00104683
C        7.40236900      -0.15029706       3.82952858      -0.00714813      -0.00724065      -0.00467763
C        6.15712801       2.01858736       4.01147403       0.00167285       0.00041745      -0.00136634
C        4.98281630       4.26022130       4.18711663       0.00207118       0.00549984      -0.00742128
O        3.78251965       6.35931465       4.09018982      -0.00025306       0.00413622      -0.00140175
C        2.46739796       8.33674990       3.74361187       0.00141460       0.00187574      -0.00901193
C        9.85201039      -0.14611352       3.74449060      -0.00052247      -0.01041738      -0.00626697
C        8.61990055       2.00862024       3.79222384      -0.00169753       0.00048785      -0.00137610
C        7.39782696       4.16141796       3.81898229      -0.00918428       0.00015968       0.00733484
C        6.17735303       6.32051355       3.77895509       0.00421229       0.00173646      -0.01090924
C        4.93177879       8.41823114       3.72461309       0.00087838      -0.00173887      -0.00448864
C       -0.01181232       1.32147584       3.70470255       0.00282410      -0.00183611       0.00216547
C       -1.22940788       3.44903978       3.65974613      -0.00056177      -0.00493076       0.00560124
C       -2.45932249       5.56996515       3.66282945       0.00849541       0.00203368       0.00664688
C       -3.69515729       7.71915669       3.67553664      -0.00300554      -0.00497749       0.00486157
C       -4.93889985       9.86865317       3.70213812       0.00529853      -0.00052503      -0.01348793
C        2.42556804       1.32542400       3.90886288      -0.00284983       0.00270319       0.00127775
O        1.15794506       3.41409160       3.60169177       0.00448835       0.00839970       0.00403448
C        0.00063544       5.56436974       3.61417316      -0.00546400      -0.00027462       0.00292611
C       -1.22622817       7.69693686       3.68215279      -0.00076239       0.00406367       0.01321493
C       -2.47179732       9.85689013       3.78094762       0.00520665       0.01183077       0.00285967
C        4.92937198       1.28615067       4.05938986       0.00233090       0.00679149      -0.00116913
P        3.65230045       3.47246728       5.06573503      -0.00036034      -0.00007449       0.00710506
C        1.21207906       7.65503938       3.68149018       0.00501233       0.00245933       0.00595607
C        0.00559268       9.82531380       3.81417302      -0.00820554       0.00166856      -0.00857975
C        7.38745067       1.29447433       3.87831177      -0.00150287      -0.00569307      -0.00508794
C        6.16376439       3.46466342       3.99974070      -0.00617070      -0.00224381       0.00410612
C        4.97108266       5.65394729       3.98962384       0.00978479       0.00470162      -0.00760966
C        3.73935238       7.69836765       3.78212067       0.00028186       0.00651851       0.00040422
C        2.46085025       9.78955128       3.76875587      -0.00446201      -0.00284039      -0.00297842
C        9.85813742       1.29838853       3.73692071      -0.00184118      -0.00791304      -0.00115333
C        8.62747238       3.43807305       3.75997251      -0.00574634       0.00701394       0.00404219
C        7.40536918       5.58433985       3.74797195      -0.00352985      -0.00118284       0.00540692
C        6.17869219       7.73148047       3.71201664      -0.00470708      -0.00092277       0.00331768
C        4.92649805       9.84790025       3.71328839       0.00168983      -0.00730222      -0.00928155
Pt       2.67561913       4.82927959       6.16126066      -0.00152801      -0.00146235       0.00574699
O        1.82504714       6.51463169       6.14536203       0.00300082      -0.00191609       0.00275691
O        2.94037742       7.32869321       6.57291249       0.01530025      -0.00382309       0.00482018
H        3.21708833       6.88222742       7.41166980       0.00124112      -0.00775729      -0.00644636
