51
Lattice="12.336457 0.0 0.0 -6.168228499999997 10.683685154694365 0.0 0.0 0.0 15.0" Properties=species:S:1:pos:R:3:initial_magmoms:R:1:forces:R:3 energy=-82182.95088643159 free_energy=-82182.95088643159 stress="89.28013911172314 -99.68023601074503 -1.5680113072493689 -99.68023601074503 172.81104219049 -12.651088684220623 -1.5680113072493689 -12.651088684220623 34.23338478335422" pbc="T T T"
C        1.09544572      -1.04269034       5.64579135       0.00000000      48.07946584      24.47816303      15.59441543
C       -5.51699636       1.94769339       2.75835631       0.00000000     100.08164101     210.46833531     189.93599852
C       -5.05871516       3.05406298       5.89747183       0.00000000      -1.98353064       8.11175976       2.16334484
C       -5.74959082       6.85761079       0.46734061       0.00000000      99.19424573     -27.10983223     -41.27679126
C       -4.04039902       6.22465106       7.98640641       0.00000000      -1.24677554      -4.61977620      -1.56795444
C        3.57477994      -1.18577078       3.36282407       0.00000000     -13.03392966      -2.98895525     -14.45755268
C        1.30114410       5.10593962       4.80484191       0.00000000   -1886.93613616   -4160.94006155     322.33612063
C        2.83978315       2.95463495       6.34830323       0.00000000      62.54538046     -14.44855822      59.96622086
C       -6.27497544       5.19022024       9.80780744       0.00000000       0.15230808       0.17070093      -0.55384375
C       -1.65465418      12.46294407       6.48421519       0.00000000      -6.25465426      23.72006916      -1.66429711
C        6.13977656      -0.75893432       4.25307187       0.00000000   -8082.60068459    6805.59719087    1039.02856316
C        2.60927078      -4.77247795       4.42803371       0.00000000     -48.94634572     -22.83502165      31.68461499
O        2.09256858       7.67438467       3.85675222       0.00000000 -373140.17616236  990877.78216084   24470.70252316
C       -0.28035938      25.33021841      -8.60587424       0.00000000      59.41799302      56.88367376     -26.82633090
C        8.99186451      -1.53289537       0.06590751       0.00000000    -387.84548726     585.75173874     472.90719109
C        5.55958464       1.94967323       3.78843173       0.00000000     113.85643913     157.22191281     -60.55320926
C        5.98971881       3.76813162      -1.94060830       0.00000000      -0.68451858       0.44314078       0.36990849
O        2.98379803       8.08266006       3.69849173       0.00000000  -11224.95738462  -93909.63404981    8328.18440158
C        3.43452952      10.45459257       2.08846401       0.00000000     -78.17336398    -440.13826033    -202.15950011
C       10.71348002       2.32111879       7.26586113       0.00000000      -1.29843668      -6.11069808       0.80462687
C        9.57092121       3.35639530       2.90847276       0.00000000     -30.39275736     -29.57165227      -5.29936151
C        5.17856234       3.41308294       1.69975001       0.00000000      40.45124174     -82.96960025     -21.46351119
C        8.43096339       6.73154333       2.51650221       0.00000000     115.22877142     461.20918447      10.01559849
C        7.11831330       6.61533452       1.24628404       0.00000000       2.70620175      56.36086079      99.10298811
C        3.16079806       2.79017777       8.37586895       0.00000000      -1.42069120      40.26807495     -33.74885986
C       -0.40666355      -5.13312088       1.01060192       0.00000000      54.43234834     -11.41950543     -29.32406554
C       -5.09442069       2.15351308       1.67223951       0.00000000      21.90359648     146.34413139     -78.78334172
C       -0.58163547      11.51418421      14.45344114       0.00000000      -3.45866166       4.09282019      -3.04513455
C       -5.11042557      11.20355335       2.44051294       0.00000000      15.59680607      11.05524171      -2.43159691
C        5.03454481       1.43191002       3.99066303       0.00000000    -148.03147769    -174.21053289      77.25070472
O        2.84881376       6.96675005       3.69904819       0.00000000  -76621.79275237   63053.33140061  -25461.13181036
C        0.68581733       6.72280999       3.68608480       0.00000000    9218.65957453  -28487.61797803   -1795.06326052
C        8.91604004       5.31320346      -3.79323459       0.00000000      -0.22759688      -0.05471647      -0.03272221
C       -5.73332276       7.75284548       2.35443366       0.00000000      58.34264830    -133.53459026      72.17175973
C        5.53607382      -2.67321162       6.50558722       0.00000000    -296.52201515    -430.43398557     238.95571246
P        0.84494189       4.00355249       5.43045367       0.00000000    -376.05253131    -241.78965148     -10.21926570
C        2.66901826       7.72981928       2.19922750       0.00000000   -8149.66049385   -7888.13943916   23193.71566746
C      -16.46900805       9.62893497      12.67606892       0.00000000      -0.15284491      -0.31433503       0.40267264
C        7.59120132       3.25468780       1.39727780       0.00000000      33.86499493      43.09199277     -14.95316280
C        7.90442491       4.86105575       7.57255321       0.00000000       0.65621482       3.22676571      -0.06831453
C        2.24691376       5.67013798      -0.39486695       0.00000000     -32.31855825     112.46439452     170.24457878
C        3.10691100       6.90589813       0.21600585       0.00000000    -372.76017911   -1720.14856498     311.30162483
C        5.69254163       7.40596116      16.09760993       0.00000000    -161.03984028      26.40642896      61.20914777
C        9.22018446       0.93858852       4.55001369       0.00000000      63.97870894      12.49178971      54.93394499
C        6.69587090       1.61962104       2.13625849       0.00000000    -180.95931128    -187.93567366    -162.30391003
C        8.29436213       6.11624207       2.44581227       0.00000000    -147.44991691    -474.53345974     -78.61769528
C        7.65133966       6.81389591       2.97436390       0.00000000      29.21123467      48.07541922    -100.21720220
C        5.82627226       3.63400286       0.64420257       0.00000000      27.30833338     -10.96793032     -17.16115272
Pt       2.92418716       6.78680589       5.09374744       0.00000000  -25733.41352983   30369.16955948  -12316.29967344
O        1.27485946       8.45226729       5.04835774       1.00000000   -8260.03549060    3839.97910279  -12651.01614946
O        1.89741731       7.97759710       3.90046436       1.00000000  505224.15791003 -958515.72918439   -6092.74265957
