51
Lattice="12.336457 0.0 0.0 -6.168228499999997 10.683685154694365 0.0 0.0 0.0 15.0" Properties=species:S:1:pos:R:3:initial_magmoms:R:1:forces:R:3 energy=-297029.1558717346 free_energy=-297029.1558717346 stress="33.316035581454884 -5.262518913564238 8.683845335538754 -5.262518913564238 21.52092273947057 -12.15128288759598 8.683845335538754 -12.15128288759598 8.809925701999267" pbc="T T T"
C       -2.11847131       2.59147393       6.78959264       0.00000000    7278.19215811  -40077.68452380     342.81905222
C       -2.44098087       4.67904412       6.52317875       0.00000000    3460.46629188    -171.19528512   -1251.99193758
C       -4.79894860       4.85979564       0.03417775       0.00000000     -16.51125182      -0.28037963     -17.14080781
C        4.26656855      13.06747839      -0.08308719       0.00000000      -0.52097507     -15.65075136     -22.26942537
C       -6.45805906       8.74081088       5.37993310       0.00000000      24.72085982      79.89944370      16.71998923
C        0.51604847      -1.40987598      -1.22693773       0.00000000       0.08919880       0.66117703       0.57678459
C        2.62976962       1.31779627      -4.17592462       0.00000000      -2.61458870       2.26564069      -5.70553099
C       -2.05362742       5.19150190       6.34660998       0.00000000   -1709.11920418   -1613.13751423    -136.58604729
C        0.38143288       9.20926750       3.07421862       0.00000000       3.33759117      -5.71813209       5.29014700
C       -4.78872527       3.63913528       4.85917529       0.00000000      -3.29494621     -19.32890568       2.57916250
C       11.71426346       1.56154606       6.35990045       0.00000000   -1172.17564381   -2094.30054158    3113.63007081
C        5.22335284      -0.64301906       4.18342525       0.00000000      39.14932535      26.66066062      -9.92775101
B        0.75497866       3.72592372       5.67153393       0.00000000 -405162.26895213 -2107440.41649043 6405555.86996113
C        0.50930849       6.50757691       1.42296736       0.00000000     -67.66692969    -243.44183536     479.02262290
C        8.05386021       2.00893177      -4.80727896       0.00000000       3.17631449       4.14038609      -5.95402451
C       10.32868348       2.97500522       4.35440184       0.00000000   -4653.28003140   -2336.08326326   -1176.34251048
C        4.43555373       4.27490801       2.11654382       0.00000000     -63.06448747      -4.51485991    -116.82189570
S        3.91275519      12.65911868       6.89711240       0.00000000    -954.57265156   41322.84490130   -3638.60563315
C        6.02714985       5.21445318       8.83263321       0.00000000      14.74363315      40.02189110      29.88925864
C       11.36080517      -6.48975129      -0.86686502       0.00000000       3.91385259       0.70448581       0.00052864
C       11.30729144       5.14604607       3.63231153       0.00000000  -11465.17596861  -44514.06868190   11216.68725812
C        9.25712132       6.44179857       5.28496829       0.00000000     151.28599839     -13.04137465     -18.06696389
C        5.60495197       4.52055662       8.29687035       0.00000000      83.39900176      -5.41579289      49.15275274
C        6.64155566       9.39169163       4.30733870       0.00000000     -21.73092127     350.93526709     -17.03063296
C       -0.40269583       1.07987636       4.75634951       0.00000000     325.15310212   -1691.31447927   -1003.51131192
C        2.60691165       2.10686661      -0.67845869       0.00000000       1.49065431      -1.95661736      10.93480897
C       -3.17760088       6.36271876      -3.17361720       0.00000000      -0.14598671       0.28967124       1.25092099
C       -8.53442533       8.19156062       6.32571623       0.00000000    -151.49576936    -181.27312724     -20.29597519
C       -5.64953172       9.34466503       5.45372678       0.00000000     -77.98988196     255.82319494      95.71458706
C       -2.64924056       1.24821303       2.44798036       0.00000000     242.19693761     139.62730727     148.12768704
O        3.79656355       2.91388576       0.89454335       0.00000000      54.14216744       2.13362529    -113.46089392
C       -3.26147649       6.40974196       3.68897373       0.00000000    -254.89255288     387.99079214      29.74854503
C       -3.16684412      12.63994083       1.29037743       0.00000000    -104.85586731      -1.89770180      54.77562028
C       -1.76412707       9.51804194       4.37938052       0.00000000     -29.48398422      -4.21324210      11.53738317
C       -4.54350997       1.27842960      -0.88145943       0.00000000       0.52044331       0.13801025       0.39806508
O        1.04257782       0.66949133       0.42899032       0.00000000       1.52120644       6.18091093       5.60316181
C       -1.17713215       4.71515409       3.84975374       0.00000000  -37467.66566979   40756.56109547    9245.44909278
C        4.96207400       7.27255295       7.35177906       0.00000000     -16.83100755       4.84076310      -1.66890846
C       10.57351604       4.62070136       3.99988828       0.00000000   55041.10266022    4165.10429871  -19707.66203552
C        4.60157048       3.42910655       3.28680626       0.00000000     267.30897385    -147.41293513    -251.37913978
C       -1.80007303       7.25902586       2.96636909       0.00000000     340.95248655     330.04304922     -42.15036311
C        5.11906986       5.55223573       5.32560526       0.00000000     136.66336759     173.24503111      59.55355453
C        0.30376605      15.34365547      15.81408858       0.00000000      -1.63502710      -1.14758259     -13.82643110
C       12.64553248       4.00686421       2.97208761       0.00000000    2897.10906800     449.77862120    3101.96033838
C       18.28378093      -1.27566443       8.43793943       0.00000000       2.38699529      -6.74715849      -3.19902289
C        4.90481054       4.74474261       3.79848217       0.00000000     198.26029665     249.72840476     -88.82358108
C        3.36895728       6.83776809       0.55775760       0.00000000       2.13617580       1.90072115      -1.54782745
C        0.49021151       6.13422091       7.37766817       0.00000000     979.66086208    1688.86091048    1489.25933411
Re       1.12757988       3.35254072       6.37417036       0.00000000  -32843.69543248    9386.17718655   -4235.28679526
O        6.00324068       6.92418177       9.27918773       1.00000000       1.70936651      -9.08573629      -7.69917697
O        0.76092703       3.72454553       5.67161538       1.00000000  424685.89874198 2100772.76946490 -6403159.59606439
