52
Lattice="12.336457 0.0 0.0 -6.168228499999997 10.683685154694365 0.0 0.0 0.0 15.0" Properties=species:S:1:pos:R:3:forces:R:3 energy=-456.96044407495157 free_energy=-456.96044407495157 stress="-0.002222350243408306 -0.0023532009647234085 -8.561765745739251e-06 -0.0023532009647234085 -0.0010560460514951217 2.689708108520135e-06 -8.561765745739251e-06 2.689708108520135e-06 -3.7544555592134045e-06" pbc="T T T"
C        0.08345852      -0.03423779       3.57461393       0.00842963      -0.00432066      -0.00283707
C       -1.16464266       2.09298047       3.48219692      -0.00626778       0.00598153       0.01413678
C       -2.37785203       4.24500624       3.47557841       0.00013116       0.00091615      -0.00586698
C       -3.59399878       6.38865699       3.52599880      -0.00814588       0.00314649      -0.01125279
C       -4.83072238       8.53146827       3.56612089       0.00228070      -0.00161027      -0.00118866
C        2.54579687      -0.00654815       3.64667535      -0.00066840       0.00932723       0.00287653
C        1.26712379       2.10129244       3.65665773      -0.00493145       0.00063101      -0.00367721
C        0.05650275       4.18908695       3.55096680       0.00163277      -0.00491000       0.00115377
C       -1.11993003       6.35791242       3.62173673       0.00550425      -0.00787909      -0.00502128
C       -2.36342558       8.52096249       3.61146745      -0.00371228       0.00742990      -0.00549892
C        5.01645593      -0.01694257       3.75947164      -0.00508356      -0.00794149      -0.00633299
C        3.74823224       2.08026854       4.07971303       0.00042468      -0.01392659      -0.00257896
B        1.29218068       6.36016057       4.23943020      -0.01053322      -0.00613331       0.00751389
C        0.09047570       8.52111463       3.79054130       0.00596831       0.00687732       0.00317105
C        7.48542949      -0.02320526       3.73982149      -0.00108489       0.00726627      -0.00044694
C        6.24968563       2.11889313       3.83307417       0.00861418      -0.00568700       0.00530614
C        5.13903268       4.31607198       4.10520382      -0.00919265      -0.01132007       0.00845892
C        3.85985658       6.40655548       4.25677177       0.00605707       0.00486897      -0.00481648
C        2.56098895       8.52818385       3.92765320      -0.00337618      -0.00211799      -0.00547156
C        9.95053146      -0.03472595       3.65060712      -0.01070191      -0.00097357      -0.01247768
C        8.71282987       2.10816071       3.58626213      -0.00667436       0.00298453      -0.00340139
C        7.50828151       4.25639772       3.63173889       0.01212395      -0.00029391      -0.00458748
C        6.29422519       6.41373394       3.69853840       0.00325188       0.00723426      -0.00428134
C        5.02907723       8.51795950       3.74788875      -0.00320583      -0.00374573       0.00279582
C        0.07168609       1.39358885       3.54363338       0.00142765       0.00470632       0.00148353
C       -1.15622027       3.51002297       3.44963254      -0.00009879       0.00495694       0.00634994
C       -2.36399864       5.66498234       3.50973303      -0.00609792      -0.00149463      -0.00544459
C       -3.59650576       7.81480012       3.54990547      -0.00238135       0.00353534      -0.00304567
C       -4.84429088       9.95524559       3.57664220       0.01122966       0.00015224       0.00580555
C        2.51348281       1.41862779       3.78523124      -0.00683082       0.00137758       0.00167874
O        1.23772754       3.47647885       3.60270008      -0.00797957       0.00015026       0.00246250
C        0.08171819       5.59095771       3.73507601       0.01073952      -0.00802628      -0.00329925
C       -1.12962344       7.79328728       3.68149679       0.00319565       0.00095972       0.00149037
C       -2.38044320       9.95340094       3.67129110      -0.00973078       0.00440483       0.00075932
C        5.00447370       1.41144382       3.90049422       0.00219418      -0.01628727      -0.00205246
P        3.71331951       3.65589121       4.81517169       0.00975998       0.01208051       0.00538800
C        1.32614515       7.84445764       3.96975883       0.00107640      -0.00289820       0.01040151
C        0.08229357       9.95356142       3.75424920       0.00308321       0.00709786       0.01130243
C        7.47778337       1.40321130       3.70568423       0.00172836       0.00448197      -0.00325637
C        6.29192154       3.54325903       3.83699019       0.01110752      -0.00477020      -0.00387781
C        5.08349501       5.72808596       3.99668360       0.00848606       0.00705478       0.00818814
C        3.79834154       7.79963584       3.98548633      -0.00329391      -0.00000040      -0.00030975
C        2.55449069       9.94788860       3.75994191      -0.00961774      -0.00082524      -0.00307510
C        9.94759447       1.39007961       3.54825532      -0.01196208       0.00214654       0.00670224
C        8.72428146       3.53536886       3.53670841       0.00286297      -0.00245662       0.00033405
C        7.51128980       5.68290227       3.59219129       0.00225749       0.00486865      -0.00716079
C        6.27514344       7.82680080       3.65084618       0.00397224       0.00221502       0.00695651
C        5.01850104       9.93375439       3.64211674      -0.00073389      -0.00394999       0.00099335
Re       2.54201437       5.41764682       5.64827946       0.00638463      -0.00412177      -0.00792996
O        2.98809350       6.45780773       6.93990801       0.00191704      -0.00602009       0.00652102
O        1.17377664       4.17687556       6.27291445       0.00159888      -0.01004033       0.00229357
H        1.00405793       4.12998470       7.22960127      -0.00513481       0.01489848      -0.00533420
