52
Lattice="12.336457 0.0 0.0 -6.168228499999997 10.683685154694365 0.0 0.0 0.0 15.0" Properties=species:S:1:pos:R:3:forces:R:3 energy=-454.4132401165401 free_energy=-454.4132401165401 stress="-0.003805080831854413 -0.0029606550552081744 -4.0361035171686e-05 -0.0029606550552081744 -0.004462605521554434 -4.8626997949074985e-05 -4.0361035171686e-05 -4.8626997949074985e-05 -2.461097007772716e-05" pbc="T T T"
C        0.04113281      -0.05567172       3.74065669      -0.00076965      -0.01198937       0.00531578
C       -1.21396786       2.07667038       3.85874072       0.00117746      -0.00207371       0.01070799
C       -2.43630791       4.22654667       3.54655498      -0.00963380       0.00728874       0.00771363
C       -3.64099356       6.37518034       3.37154679      -0.00201985       0.00207528       0.00436719
C       -4.87179404       8.51869808       3.47206174       0.00137887      -0.00612228      -0.00238161
C        2.51343291      -0.07043288       3.79525009       0.00309023       0.00737553       0.00585005
C        1.24309534       1.95929978       4.38005352      -0.00171213       0.00632072       0.00829892
C       -0.10692089       4.26389462       4.19945438      -0.00885088       0.00599642      -0.01433628
C       -1.19758281       6.37280448       3.66009320      -0.00208522       0.00015762      -0.00043890
C       -2.40399687       8.50639020       3.54638800       0.00727751      -0.01742260      -0.00391037
C        4.98732948      -0.04826309       3.74443537      -0.01127950       0.00214898      -0.00360896
C        3.73747736       2.00736807       4.17093806       0.00463998       0.01085662       0.00332163
B        1.25307025       6.37968163       4.40816300       0.01200231      -0.00693557      -0.00918100
C        0.05829384       8.50111214       3.77918464       0.00223888       0.00622011       0.01570103
C        7.45115722      -0.04506801       3.70882735       0.00109377      -0.00135490      -0.00115278
C        6.20378390       2.10420257       3.71007952       0.00347956       0.00462081       0.00382888
C        5.06238278       4.33190541       3.76448897       0.00006388      -0.00502265      -0.00312972
N        3.89459157       6.42382798       4.13960946      -0.00534600       0.00442337      -0.01582060
C        2.53568901       8.49698931       3.91024423      -0.00386584      -0.00064146      -0.00738432
C        9.91096410      -0.05120576       3.69701154      -0.00570635       0.00562209       0.00513378
C        8.67171779       2.09200019       3.58318396      -0.00231535      -0.00341816       0.00036203
C        7.45215966       4.24221697       3.42917564       0.01076830       0.00097174       0.00895697
C        6.24176297       6.41665326       3.43703076      -0.00087646      -0.00977561      -0.00454230
C        4.99615170       8.50265641       3.64521568      -0.00521788      -0.00409907       0.00787887
C        0.02094152       1.34923043       3.99871803       0.00251740      -0.00898694       0.00522492
C       -1.24141652       3.50140456       3.84519958      -0.01176751       0.00433878       0.00256269
C       -2.42084262       5.65385734       3.47865062      -0.00647552       0.00647481       0.00468222
C       -3.63719623       7.80090243       3.42963676       0.00246146      -0.00600892       0.00197780
C       -4.88725930       9.92477105       3.65580019       0.00630535      -0.00308721      -0.00557860
C        2.49178630       1.30547085       4.13683022       0.00119881       0.01472950       0.00460793
P        1.16741163       3.54267051       5.19990736      -0.00038734      -0.00236962       0.00932816
C       -0.03639506       5.65058026       4.02959639      -0.00170428       0.00737227      -0.00110566
C       -1.17518745       7.79367395       3.64500294       0.01209699      -0.00564696      -0.01122510
C       -2.41225669       9.92273321       3.68095364      -0.00412381      -0.01191539      -0.00570983
C        4.98414779       1.37532171       3.87179427      -0.00128839       0.00745323      -0.00650721
P        3.66903237       3.69124979       4.54184901       0.00163214      -0.00690122      -0.01196827
C        1.29784749       7.82837445       4.00969146      -0.00023771      -0.00469779      -0.00336158
C        0.05237617       9.92759425       3.71943158      -0.00601323       0.00716127      -0.00330844
C        7.43743824       1.38460578       3.64261119       0.00009502      -0.00423912      -0.01117285
C        6.22532506       3.53692634       3.60634037       0.00898125       0.00314042      -0.00680159
C        5.02481772       5.75831644       3.71654887      -0.00385972      -0.00421383       0.00290223
C        3.79117663       7.77000408       3.90254058      -0.00966856      -0.00013783      -0.00888601
C        2.52102393       9.92035418       3.74850851      -0.00063256      -0.00104516      -0.01253031
C        9.90399318       1.37480663       3.68303486      -0.00110181       0.00534599       0.00329553
C        8.67395404       3.51700263       3.47633184       0.00150654      -0.00374287       0.01411878
C        7.45666188       5.66979309       3.36535189       0.00448791      -0.00260174      -0.00799290
C        6.23119536       7.82123525       3.48279180      -0.00224743      -0.00710134      -0.00681650
C        4.97840930       9.92077071       3.67001825      -0.00954485      -0.00336612       0.01209255
Re       2.63212785       5.33412607       5.69683726       0.01815864       0.03017768       0.02766535
O        3.99042573       5.34418363       6.80104960       0.01215214      -0.01318821      -0.05528806
O        1.22352825       6.14551325       6.77691028      -0.01091941      -0.03218481       0.01877170
H        1.14123076       5.84023986       7.69304746       0.01084665       0.04001852       0.02947309
