51
Lattice="12.336457 0.0 0.0 -6.168228499999997 10.683685154694365 0.0 0.0 0.0 15.0" Properties=species:S:1:pos:R:3:initial_magmoms:R:1:forces:R:3 energy=-585304.40178764 free_energy=-585304.40178764 stress="1196.8979844613648 575.8828844237307 -224.08467080110003 575.8828844237307 1021.3990874163383 81.67234339209098 -224.08467080110003 81.67234339209098 -81.7270363343564" pbc="T T T"
C        2.51137055      -1.95687955       4.12391732       0.00000000    -190.53238826     -99.22339754      64.92379380
C       -7.47613430       1.66299487      -0.00497781       0.00000000     -37.94497935      14.53153415     272.70913576
C       -3.68169038       3.42910885       4.46237186       0.00000000    -162.93585973    -984.26022402    -225.49229636
C       -6.26111660       5.05609811       2.05708577       0.00000000    2335.11183178    -124.35656791   -2410.24712640
C       -6.98114568       6.33923434       3.24881306       0.00000000  -63952.28993149  -45964.23003210   58253.99972613
C        0.77172974      -6.07267103       3.44015833       0.00000000   -3396.67873712     351.71224172     220.19238542
C        7.13952903       2.46132128      -2.18594713       0.00000000       0.01082401      -1.59709467      -3.09203101
C        1.65916403       4.21044974      12.58409306       0.00000000      -0.11879645      -2.98175691      -2.00902481
C       -4.97075332       6.43598233       2.14673981       0.00000000     904.43940489    -710.44622693    1766.90362597
C       -2.11446155       6.38730209       2.37283880       0.00000000       5.45346731     -47.92357174      70.29504764
C        9.11945797      -2.69233208       2.36192337       0.00000000    1854.85772191    2751.25563688   -3604.95648753
C        4.23832825       3.55719917       4.82782001       0.00000000 1132803.96576240 -1073498.54559179 -141872.28335406
B        2.98664286       5.92754428       4.14720916       0.00000000   -5755.71894116  -89342.68085366  236661.25350566
C        0.08119614      11.51315625       6.63734622       0.00000000      28.99971300    -253.07376794    -690.08587006
C        7.39499227       3.89417978       3.36868220       0.00000000   -4148.77084598   -1682.26809065    -828.38453122
C        5.64763165       5.87154961       4.78164345       0.00000000  108529.88342224   63331.09585068    2708.78496339
C        4.44484375       4.97737619       4.37264389       0.00000000 -514498.12949113 -460538.49778678  808742.14579276
P        4.76869317       5.88923483       5.59263898       0.00000000 -212892.17162562 -135748.92114332   47992.13421883
C       -3.16769548       9.85985621       2.29886409       0.00000000     310.95991928     452.45055516     265.25804609
C        8.77675285       6.62251851      10.91907004       0.00000000      -4.75066348      -0.45488333      -3.94130373
C        4.36284336       6.81266239       4.29025138       0.00000000   40474.17023700   78892.52740349   -1406.15252828
C        9.09790538       3.69642307       6.46573467       0.00000000     595.13108472      10.21971500     599.34040968
C        8.32132600      10.51696988       1.58553075       0.00000000    -202.90584398     118.61418949    -117.62600052
C        5.70933468       5.98121799      -7.47544955       0.00000000  -15504.72777996   -2170.07856371  -20358.50953767
C        4.40548437       2.10723492       3.52050001       0.00000000   51624.77066623  -16798.43575295   17143.43179727
C       -6.15933913      -1.19101036      -0.73359468       0.00000000      -0.02857385       2.28309505       0.09721070
C       -2.73156955       8.41921960       3.55391405       0.00000000     -43.74643353      -7.78805968      45.75607398
C       -2.82093117      11.84163562       4.03894896       0.00000000    3537.31416914   -2117.85329580    1306.49964425
C       -4.80733611      10.00209375       0.06280477       0.00000000      -4.11454026     -15.54166199      18.46189930
C        4.96213749       0.46900907       8.26156819       0.00000000      -4.86857519     117.02283927    -323.05585817
B        3.63300822       4.09130781       4.76959455       0.00000000 2812202.14410687 4664360.85566357 1304317.82787460
C      -10.96266837       9.14689699       2.56846470       0.00000000    -155.18636510    1615.21664243   -1471.75756484
C       -2.90217259      10.90868011       2.41753983       0.00000000     849.73063984    1054.17913071     993.73154314
C       -3.43396954       7.15722054       0.90927255       0.00000000    -355.79245640    -103.85478616     300.37545252
C       -0.81275087       1.81767660       4.27179656       0.00000000   -2228.56646030   -1686.39922090    -567.65220170
P        4.01242045       4.39944042       4.86138420       0.00000000 -4922378.45274127 -1608089.79667119 -1265761.95479136
C        2.62997104       7.56453885       3.84961713       0.00000000    2997.54497785  -24135.81365664   22259.65092254
C       -2.05123656       7.86575647       2.42180938       0.00000000       7.37080690     -14.83412081      23.51427262
C        9.48692879      -0.17241492       3.70146984       0.00000000    -202.05751440    -396.10024418    -319.80080312
C        5.48558998       2.69794623       3.70485140       0.00000000  -26938.43206741   14644.63687442   54562.08497167
C        6.88438908       2.62600271       9.81197579       0.00000000      -0.91371885       5.21031738      -1.41885274
C        5.86277106       7.65366548      13.80779788       0.00000000      -1.27851554     -17.00677784      37.28396740
C        0.59446963      15.21259297       1.04141156       0.00000000      21.53483964     276.13397780    -258.24074782
C        7.88535596      -3.87274820      -0.68041724       0.00000000      42.89049799     -14.04189700     161.04161001
C        8.41556734       2.75446513       4.08187240       0.00000000     455.84321149    -610.66676726     840.63462474
C        7.44812404       3.31983122       4.64485856       0.00000000   -2768.78627201    -359.82348556   -2630.18895626
C        8.70456593       4.37518875       8.08668016       0.00000000      70.15222407      52.09890134      64.57002317
C        9.83507440       8.58374690      -1.37889560       0.00000000       1.94309633      -0.09693590      -1.12232067
Re       3.27219447       5.16736980       5.07192018       0.00000000  954946.77049612 -1956721.67724826 -3788256.18864307
O       11.77570089       5.51296061       8.39472154       1.00000000   -1652.07879736     181.83024641    2044.71249673
O        3.23459706       5.19700267       5.55228898       1.00000000  662880.98579416  594027.39532021 2669376.54579565
