51
Lattice="12.336457 0.0 0.0 -6.168228499999997 10.683685154694365 0.0 0.0 0.0 15.0" Properties=species:S:1:pos:R:3:initial_magmoms:R:1:forces:R:3 energy=-1520385.7816111203 free_energy=-1520385.7816111203 stress="1502.5151699099088 360.7476249183003 -1931.213214183619 360.7476249183003 2539.4363545885153 -1520.9284114586037 -1931.213214183619 -1520.9284114586037 1943.5392613726908" pbc="T T T"
C       -4.12791433       1.27917834       5.56777392       0.00000000     410.64495418    -839.09483873    -294.69422425
C       -0.05474175       1.27359641       4.46340223       0.00000000   -6333.21049802    5900.23798158   -4641.44952215
C        0.77743671       3.06246288       2.50234275       0.00000000   14608.27112570    4567.60372834  -19972.32913389
C       -0.09588447       2.65436373       3.72255107       0.00000000   16041.22213134  -26079.24376297   31466.88170818
C       -7.41165684       7.33175064       1.63518000       0.00000000  -39385.56497108  -23510.69205792   30455.48744081
C        7.74871919      -2.83539012       4.88987255       0.00000000   25826.61823815 -138345.96564788  -79663.92347720
C        2.75775625      -4.72802235       2.31516994       0.00000000   -2911.28301296    -161.86331872      66.10440839
C        1.34360846       4.58728546       3.45601137       0.00000000   67307.79947549  229284.72116034 -190818.26411359
C        4.28738875       3.61230659       1.61935521       0.00000000  980661.51258568 -574782.58242758   87969.93119638
C        0.90221032       6.36094552       3.68763618       0.00000000  617121.12418166 -230936.60193265 -830686.08748761
C        3.13341590       1.06152199       1.26468016       0.00000000    4503.23168438   -3867.39642274   -1386.19279235
C       -0.03452272       4.86388587      12.55940171       0.00000000    -194.01032885    -140.62862036    -427.57504273
P       -5.06323377      14.58720159       5.33483406       0.00000000   48591.23124181   48875.96531842  -16518.54018060
C       -1.63440541       8.65108495      -1.72640241       0.00000000      -1.96774200       8.13153982      -7.40669646
C       12.71386880      -4.51796642       7.02424694       0.00000000   -1031.42768641      51.20325776    -528.01698704
C        7.51289388      -0.76149730      -0.78271937       0.00000000    -525.04780690    4349.76017009   -3826.19882912
C        6.15142418       3.15327032       3.55136348       0.00000000   -8505.04800454    8167.12175213    5729.79549909
B        2.52114360       6.46948670       3.13738894       0.00000000 -548814.43001595 -2501876.00994127 3344151.16219405
C        3.62404457       3.31204667       6.03753054       0.00000000    1668.05137828   -1107.79903130   -1749.26457112
C       12.23029975       3.18490920       4.65778477       0.00000000   -8900.04382241  -32776.80297139   30183.65473790
C        8.75925272       0.67794161       5.46625212       0.00000000      40.92925673    -163.54652935      70.77704173
C       11.41772486       5.85420083      -2.76804698       0.00000000     -40.27970025       3.05803984     -42.16321276
C        2.99185891       7.17898131       0.28173202       0.00000000  -16101.37609603  -22066.63496028   31333.30887760
C        3.36297746       8.58993815       1.08452875       0.00000000  -15232.13301991  -22113.27193369   61700.02368254
C       -1.20124502       3.36835678       5.01447947       0.00000000   -9236.89333864    -315.52294340    4704.50101962
C       -0.01346129       2.54714192       4.38241419       0.00000000  -13021.94125498   30965.86138260  -44084.43033900
C       -0.29973826       2.89291163       0.56179090       0.00000000    1214.77653042   -2854.20695981    2062.40641545
C       -9.77843092       9.73266810       5.16498761       0.00000000   -1234.27861341   -1307.43615492    -907.19612932
C       -5.57929828      19.88336135      10.88818780       0.00000000      -4.68014798       1.65306510     -10.39188434
C        4.01054373       6.24925766       5.50200298       0.00000000 -115674.80326185  -27774.68769465 -158374.53814903
N       -2.08290193       0.47455492      10.03107784       0.00000000      -0.60974210      -0.07987912      -2.54663553
C        3.58834128      12.44341252       6.24525220       0.00000000     837.92204496     918.20994739    -555.97796411
C       -0.78223019       5.62226633       3.67330839       0.00000000   41304.43529852   25533.57879428    7485.86771576
C       -8.03173040      10.02886943      -0.53897290       0.00000000     443.13737358    1729.88440388     255.55235079
C        2.92064985       5.02161923       4.88553315       0.00000000 -139575.51705745  330500.87691459 -193714.50405758
P       10.98420576      13.92431570       1.57895029       0.00000000 -1097498.85580732  741019.67298669   29852.80700926
C       -2.08382543       8.36789592      -0.69756180       0.00000000     -20.53830837      -2.55387690       5.30146742
C       -0.84490215       8.31505868       4.10163345       0.00000000   18585.56644106  -14274.49148387   -5256.89581526
C        5.06496065       3.14253820       8.96564989       0.00000000    -155.47440339     108.99842817    -307.66745448
C        6.04860724       3.15137555       2.72320089       0.00000000  -12502.69071923    -833.47315408  -13688.82338939
C        3.54580042       9.21313671       1.31853376       0.00000000  -10915.12097462  -27402.01888826  -11882.52517999
C        1.68064840       6.50556192       5.06061836       0.00000000  133939.86974488 -195444.98154667 -110320.34885301
C        2.90108983       5.63392867       4.78286235       0.00000000  323715.73693229 -305780.28195084  989353.11218493
C        5.86175930       2.90764633       1.02714242       0.00000000   -2243.48905946  -13160.24256163   10614.18465866
C       11.14763813      -2.03988070       9.07228885       0.00000000      -2.73993910     -31.29292619     -43.56138564
C        5.93620243       2.26894943       5.25201873       0.00000000    -357.24029314    2289.81297181   -2032.04757585
C        5.62881707       3.86115172       3.99419999       0.00000000   -3894.77958704   -5273.90135219   -5104.63648766
C        7.05761075       9.36339994       3.44218761       0.00000000     257.82679861     302.81007862      65.33746193
Re       2.07660215       5.97898230       2.49159302       0.00000000 -5268648.19861164 -10685975.97927427 10237963.62081404
O        1.10611843       4.59387957       4.05484618       1.00000000  788692.13878631 1076231.89242721 -1070555.30512456
O        2.13190774       5.94762946       2.79453903       1.00000000 4237191.62762100 12348388.23069497 -12138086.31518890
