52
Lattice="12.336457 0.0 0.0 -6.168228499999997 10.683685154694365 0.0 0.0 0.0 15.0" Properties=species:S:1:pos:R:3:initial_magmoms:R:1:forces:R:3 energy=-2245835.5591153936 free_energy=-2245835.5591153936 stress="5863.9183760417345 1799.7312657700697 -2111.8403376337405 1799.7312657700697 -165.7017794542035 -701.4877490956634 -2111.8403376337405 -701.4877490956634 -479.874609311924" pbc="T T T"
C        0.84050394      -0.95185999      -0.63382977       0.00000000     345.08071917    -432.44006127    -241.08629732
C        1.57465608       3.01177769       4.80490649       0.00000000  -11671.89680073    5225.23530590  -32592.05039055
C       -1.38135019       3.13351168       1.48788479       0.00000000  -27839.80058410   12962.38977535   -3688.59678585
C       -1.97569709       7.20308049       5.32055862       0.00000000     973.36302156    1659.73706496    3321.93126851
C       -8.34786069       1.37456992       6.00449039       0.00000000    -107.54182260     152.32808163     -93.68947885
C        2.60190423       0.90421503       1.42377895       0.00000000    -354.79081254   -2426.57189487    -126.99009744
C       -0.95299602       2.08983297       0.88769185       0.00000000   -7220.02445729    7318.83564752 -459893.68212732
C       -0.39833621       6.01933160       3.63563637       0.00000000   48275.73788976  -59086.06434605 -120696.04019871
C        0.24081053       2.82520397       2.48361030       0.00000000  -32214.05586479  121514.66619007   -6142.48391878
C       -6.22883484       7.12275133       3.77650769       0.00000000     898.59766140     243.02062170     889.35991717
C        6.40584709       0.11833719       2.84567008       0.00000000    -694.48074442    1361.18502164     191.18129499
C        9.11864523      -2.42260262       8.87322161       0.00000000       0.02218954       0.47077944      -2.73166266
B       -0.16963141       3.41348605       2.55000781       0.00000000 -102370.92232830 -252752.58790380   89613.71303303
O        1.42427801       5.10966861       3.18378361       0.00000000 1571231.42267433 -676719.98719927 1318156.64314315
C        3.02655785      10.14058954       5.28863063       0.00000000      26.70876190     229.37316403     398.98483118
C        5.57896332       0.21405525       6.31549033       0.00000000     -72.61740327     -11.12749883     -49.84481680
C        9.92942736       4.18146901       3.46700082       0.00000000  138132.80571363   92935.45959987   60230.35186906
C        3.38333365       4.21673069       3.48039372       0.00000000   17052.37591532  -21880.88906815   32321.38976392
O        4.23967834       5.04083232       1.89540724       0.00000000 -506453.74288975  407789.00494786    2244.30397073
C        0.85516209       5.14905719       2.07833600       0.00000000   54938.82598616 -257006.28923412 -331643.52352621
C       10.39537167      -1.53441530       5.05853465       0.00000000     744.99697639    1248.43334152     900.15651054
C       10.79956793       1.70103451       1.67721994       0.00000000  -81865.14087141  -40186.65659954   31448.59621998
C        9.01949612       4.82728444       3.15849409       0.00000000   19649.63231519  -12054.44788523    -617.08288124
C        7.87900417       4.76742734       4.65198709       0.00000000    2386.09180972     -87.32418378    -511.69427319
C        2.20085991      15.68891222       2.45753398       0.00000000    2270.04666678    2152.85921762    2431.09457674
C       -0.94939352       2.12662958       1.24940040       0.00000000   44837.82534788   -8695.91828844  427991.43199827
C       -0.23271405       3.95660478       4.37911438       0.00000000  -13033.15615176  -15641.53302326   -4946.43696396
C       -1.65734712       9.65299897       6.24968483       0.00000000      -8.35008368    -148.54624695     -78.98744359
C       -7.04609568       7.71464594       3.68362091       0.00000000    2683.87187674    1259.29530499    1035.50852974
C       -5.02421489      14.16407452       3.23599936       0.00000000  -40570.63606728 -256575.99364756  189001.24169607
C        8.39692416       2.99096770       4.63251640       0.00000000     645.41508249     100.12403608     305.14620727
C        4.52064305       2.19048532       3.76158548       0.00000000    1859.38353474    -655.80544432    2375.59597289
C        2.25741535       3.97779461      -2.07521800       0.00000000      87.09952429    -879.30728537   -2163.52724756
C       -7.44980852       4.72856498       2.23633900       0.00000000  -22180.04130034   -1149.57379002    5557.71085947
C        0.89748401      12.13679104       0.98034788       0.00000000    -718.76098863     -33.81379146    -149.28686187
C        6.67924804       2.22267552       3.02634991       0.00000000    -461.17145232    -439.64067108    -216.08550748
C       -0.85464545       1.71842431       8.38730811       0.00000000      16.97897785      25.37551274     -42.08668179
C        7.73364453      15.09439843       0.06129260       0.00000000  -28254.17957464   55297.37429360  140053.21022616
C        0.39244183      12.12175722       6.25383586       0.00000000     -37.27950608     -49.01289879      48.23735444
C        9.01170537      -3.01725247      13.76279920       0.00000000    1722.26181065    3404.83779534   -5596.05170412
C        4.35643510       1.17628365       2.28222190       0.00000000    1845.31979970   -2821.19507902    -209.31285707
C        6.40335712       4.61775139       3.85898347       0.00000000    1364.73361886    -796.12681806     708.72300045
C        1.97623351       5.56905320       2.15887981       0.00000000 -27499221.34937068 -9940601.37987496 13614257.00127747
C       -3.72977229      13.49381938       7.94958477       0.00000000    -100.26642205      79.07315733    -292.09263594
C        9.49756762      -0.74594055       4.53089145       0.00000000     828.92344116    1841.77916604     958.44406423
C        9.99801319       2.47498870       1.75721325       0.00000000   26048.06056214  -10921.44558443  -18722.63852389
C        9.63055964       3.93387917       3.26561935       0.00000000 -132587.26068359  -82635.42213931  -67138.61898037
C        3.39742944      15.87598192      14.68696382       0.00000000    1037.72692266    -264.60213453    1508.17537045
C        0.89011287      11.83690707       3.51233056       0.00000000    -235.46282111     -67.22123038      35.95383377
Re       1.58765625       5.43479062       2.26500975       0.00000000 27307611.37676696 8456644.52526384 -16776534.39071123
O       -3.41672436       7.21589210       4.49940328       1.00000000   -1105.95213047     227.40351221    -368.59804898
O        0.88542463       5.69734204       2.89348259       1.00000000 -738135.80443512 2471348.13702157 1906773.52383311
