52
Lattice="12.336457 0.0 0.0 -6.168228499999997 10.683685154694365 0.0 0.0 0.0 15.0" Properties=species:S:1:pos:R:3:forces:R:3 energy=-449.71353424347546 free_energy=-449.71353424347546 stress="-0.0022216460544292643 6.296941583405934e-06 5.896305406192518e-05 6.296941583405934e-06 -0.011690025981597149 -6.90844281273555e-06 5.896305406192518e-05 -6.90844281273555e-06 -6.794150473415091e-06" pbc="T T T"
C        0.02155444      -0.02921568       3.40593667       0.00246467      -0.00076319       0.00195334
C       -1.19473383       2.14404004       3.63653027      -0.00288971      -0.00076654       0.00570648
C       -2.41880851       4.26931932       3.84099571      -0.00577116      -0.00109471       0.00356748
C       -3.66256499       6.39164231       3.74524729       0.00184890       0.01439366      -0.00750304
C       -4.91844912       8.50443852       3.53014199      -0.00017627      -0.00004375       0.00179658
C        2.49314356      -0.09250191       3.38259275      -0.00337552      -0.00270393      -0.00198828
C        1.27399203       2.01744420       3.61983156      -0.00061371       0.00341961       0.00724131
C        0.04465103       4.26363728       4.13221092       0.00048870      -0.00126953       0.00227188
C       -1.19091034       6.41508491       3.88887267      -0.00259401      -0.00043164      -0.00880963
C       -2.43118317       8.50230143       3.51579716      -0.00008086       0.00016633      -0.00887935
C        4.95718875      -0.01902541       3.45458566      -0.00550166      -0.00314392      -0.00664915
C        3.69247747       1.98604965       3.85791024       0.00549731       0.00304422       0.00755434
B        1.35529501       6.52821011       4.09931826       0.00712904      -0.00638790       0.00199569
C        0.02197804       8.57178884       3.51652429      -0.00390315      -0.00198373      -0.01227972
C        7.41582640       0.04863921       3.39340012      -0.00688908      -0.00157465      -0.00315112
C        6.18321525       2.13660017       3.69998933       0.00499300      -0.00526656       0.00366059
C        5.00339870       4.27809069       4.12605044       0.00793992      -0.00215038       0.00325894
P        3.42685161       6.38950858       4.54770784       0.00269316      -0.00789433       0.01438351
C        2.48726680       8.66303849       3.56871195       0.00001687      -0.00138359      -0.00688776
C        9.90593355       0.04628776       3.41616454      -0.00071736       0.00008287      -0.00336891
C        8.66488979       2.16244124       3.58874799      -0.00295222      -0.00907263      -0.00081596
C        7.43422561       4.27094781       3.81746249       0.00109980       0.00142298      -0.00366049
C        6.19754493       6.41658594       3.88251749       0.01029303       0.00136105       0.00483537
C        4.95487780       8.56761887       3.66332009       0.00575611       0.00169453       0.00978227
C        0.02191673       1.39103278       3.51213895      -0.00195738       0.00186269      -0.01129151
C       -1.19036112       3.54767604       3.88505140      -0.00025197       0.00180662      -0.00828578
C       -2.41915969       5.69302181       3.84232902      -0.00568012       0.00530455      -0.00014194
C       -3.67194494       7.80004684       3.59064563      -0.00016540       0.01072364      -0.00253433
C       -4.92110590       9.91397013       3.39431832      -0.00244658      -0.00454513      -0.00738989
C        2.48708691       1.29951010       3.56090007       0.00228381       0.00390434      -0.00564980
B        1.35714162       3.43608984       4.08766221       0.00254266       0.00448419       0.00291671
C        0.04387632       5.69921248       4.13626380      -0.00378445      -0.00094325      -0.00227789
C       -1.19496374       7.81888290       3.64036121      -0.00267426       0.00124755       0.00459001
C       -2.43028855       9.91616125       3.41386992      -0.00497948      -0.00299179       0.00396067
C        4.95520502       1.39499362       3.65911463       0.00458877      -0.00352468       0.00760316
P        3.42515568       3.57266695       4.53941698       0.01024590       0.01191263       0.00720117
C        1.27384058       7.94585623       3.62930941      -0.00251940      -0.00241210       0.00685620
C        0.02217383       9.99164386       3.40509627      -0.00611365       0.00024795       0.00878001
C        7.41828088       1.45835603       3.52790792      -0.00085590      -0.00611283       0.00400171
C        6.19772347       3.54604960       3.88092001       0.00499018      -0.00591583       0.00288073
C        5.00362929       5.68460412       4.12888609       0.01141724      -0.00228305       0.00011022
C        3.69268144       7.97662439       3.86599485       0.00416270      -0.00111641       0.00507426
C        2.49328113      10.05459788       3.38562949      -0.00377599       0.00389079       0.00050408
C        9.90548675       1.46035211       3.51416471      -0.00158949      -0.00218080      -0.00653410
C        8.67442040       3.57048621       3.74459265      -0.00435432      -0.00691875      -0.01215675
C        7.43381962       5.69102328       3.81770765       0.00852808       0.00804984      -0.00325075
C        6.18298114       7.82612673       3.70212117       0.00598770       0.00174596       0.01040046
C        4.95662454       9.98147150       3.45734144       0.00301503       0.00149018      -0.00404998
Re       1.74282521       4.97802813       5.44453639      -0.00653227       0.00270271       0.00099829
O        1.68148075       4.97066539       7.20900050       0.00900126      -0.00315604      -0.00965038
O        1.47141685       4.98317231       8.61956308      -0.01802297       0.00398325       0.00426696
H        2.39344718       4.98728291       8.95302514      -0.01581551      -0.00091053      -0.00094590
