52
Lattice="12.336457 0.0 0.0 -6.168228499999997 10.683685154694365 0.0 0.0 0.0 15.0" Properties=species:S:1:pos:R:3:forces:R:3 energy=-463.37949946737285 free_energy=-463.37949946737285 stress="-0.003105342655332989 0.0002252566010722822 -1.585519135090086e-05 0.0002252566010722822 0.003180423456733302 1.4423127574284311e-05 -1.585519135090086e-05 1.4423127574284311e-05 9.112686463265951e-06" pbc="T T T"
C       -0.00557604       0.03191616       3.86557116      -0.00185692      -0.00024113      -0.01078821
C       -1.25266597       2.14236782       3.74692598       0.00690708      -0.00601328       0.01008506
C       -2.48754200       4.28460307       3.56833809       0.00149886      -0.00174629       0.00669446
C       -3.71808789       6.43177918       3.59692709       0.00079477       0.00202659       0.00768615
C       -4.94589285       8.57609073       3.77980363      -0.00444594       0.00728308      -0.00061694
C        2.45995792       0.06095556       3.83900819      -0.00770182       0.00126491       0.00588246
C        1.22314591       2.20530534       4.02399121      -0.00272727       0.00047989      -0.00463588
C       -0.06016978       4.28414814       3.87293652      -0.00160209      -0.00333026      -0.00416120
C       -1.26482714       6.43532513       3.64989132       0.00445325       0.00549230       0.00835616
C       -2.48708793       8.58124596       3.69233295      -0.00517604       0.00442026       0.00080200
C        4.92747012       0.02062200       3.71955355       0.00146983       0.00058245       0.00122817
C        3.72147049       2.21135665       3.84422907      -0.00378334      -0.00386623      -0.01305245
C        1.18392167       6.37050206       4.04433785      -0.01185037      -0.00027714       0.00275878
C       -0.00965065       8.54059407       3.77557879       0.00066159      -0.00052681      -0.00166264
C        7.39652780      -0.00925924       3.70630863      -0.00008576      -0.00092501      -0.00404712
C        6.17237268       2.13124214       3.59191137       0.00116761      -0.00335427       0.00124954
C        4.95612732       4.23921999       3.73418405       0.00279412       0.00185172       0.00269218
B        3.68833342       6.37248275       4.29778162      -0.00003376      -0.00331041      -0.00704854
C        2.45583326       8.54067840       3.95235641       0.00575715       0.00508417      -0.00662753
C        9.85766780       0.00020836       3.78642104       0.00596840       0.00380297       0.01095771
C        8.62944869       2.13451873       3.58551807       0.00117325      -0.00123893      -0.00278043
C        7.40017334       4.28008529       3.53694593      -0.01061715      -0.00119108      -0.00495267
C        6.16053374       6.41682054       3.76574113       0.00344020       0.00111908       0.00472249
C        4.92991464       8.56061540       3.93167324       0.00762123      -0.00276815      -0.00538347
C       -0.00977716       1.45696459       3.88361503       0.00484179      -0.00265288      -0.00660885
C       -1.27241693       3.56226405       3.68423706       0.00303263      -0.00744100       0.00146082
C       -2.48794391       5.71679985       3.57692018       0.00679953       0.00270629      -0.00332550
C       -3.71630524       7.86265164       3.68002675      -0.00701620       0.00562180       0.00216835
C       -4.93903485      10.00996645       3.84203135      -0.00604106       0.00396393       0.00218549
C        2.46545011       1.49149155       3.93651812      -0.00869880      -0.00238023      -0.00262882
C        1.12753807       3.60723754       4.20073436      -0.00232577       0.00039670       0.00133674
C       -0.04171818       5.71101429       3.81833320      -0.00586457      -0.00327489       0.00416164
C       -1.25501780       7.85671083       3.69149915      -0.00124610       0.00530013       0.00139650
C       -2.48251924      10.00932087       3.75160340      -0.00326206       0.00442297       0.00840434
C        4.93716521       1.44553776       3.70070495       0.00155208      -0.00159454      -0.00112730
N        3.79515611       3.56623429       3.89948730       0.00435060      -0.00335103       0.00337886
C        1.22747982       7.79355025       3.92907290       0.00163383       0.00157554      -0.00685056
C       -0.00696575       9.96661278       3.72666033       0.00048163      -0.00268723       0.00252659
C        7.40121869       1.41445426       3.60280641       0.00178509      -0.00216355       0.00548813
C        6.18539364       3.54567247       3.55866888      -0.00542649      -0.00297093      -0.00462098
C        4.96383108       5.66084362       3.88804160       0.00591115       0.00236152       0.00819387
C        3.69273282       7.86788256       4.05425886       0.00419977       0.00170313       0.00039320
C        2.45599934       9.96415957       3.80502026       0.00391682       0.00809346       0.00351591
C        9.85647290       1.42250092       3.68815500       0.00476863       0.00109419       0.00097119
C        8.62829233       3.56375610       3.53111002      -0.00617700       0.00163331      -0.00108027
C        7.39521898       5.71055119       3.60564002      -0.00218615       0.00021405      -0.00072989
C        6.16259004       7.84999773       3.84204775       0.00482136       0.00008724      -0.01171125
C        4.92921442       9.99037059       3.86157036       0.00383975      -0.00313200      -0.00287371
Re       2.39080385       4.97435735       5.18637791      -0.00686764      -0.00119123       0.00240173
O        1.63325681       5.79312905       6.50411361       0.00503757       0.00072474      -0.00278314
O        3.54709953       3.98180218       6.40767494      -0.01216643      -0.01541004      -0.00077737
H        3.34199506       4.20993870       7.33322927       0.01647918       0.00373214      -0.00022381
