52
Lattice="12.336457 0.0 0.0 -6.168228499999997 10.683685154694365 0.0 0.0 0.0 15.0" Properties=species:S:1:pos:R:3:forces:R:3 energy=-461.83883776814014 free_energy=-461.83883776814014 stress="-0.003435770541268962 -0.0020135139713893667 -1.0925583469671474e-05 -0.0020135139713893667 0.0016223695911249515 -4.622054645239941e-06 -1.0925583469671474e-05 -4.622054645239941e-06 6.609903299139379e-06" pbc="T T T"
C       -0.00765349      -0.01581455       3.75567749       0.00128320       0.00271372       0.00010956
C       -1.26460263       2.11120333       3.84977795      -0.00480933      -0.00136007      -0.00580388
C       -2.49371046       4.26206081       3.62380923      -0.00087286      -0.00164708       0.00032670
C       -3.69760723       6.41069681       3.47271698      -0.00103396       0.00053143       0.00292603
C       -4.92572975       8.55620665       3.53830029       0.00203118       0.00124046       0.00076238
C        2.45900185      -0.00316803       3.81286892       0.00022338      -0.00093435      -0.00368135
C        1.20346595       2.08002732       4.16498738       0.00300700      -0.00491536      -0.00542970
C       -0.10465842       4.28662390       4.05609103       0.00001716       0.00193409      -0.00591703
C       -1.26228209       6.40830017       3.70386118       0.00266719       0.00024926       0.00046046
C       -2.46907171       8.54936149       3.64445380       0.00317282       0.00202375       0.00095161
C        4.92940982      -0.00996385       3.83129383      -0.00246682      -0.00122470      -0.00744594
C        3.68298723       2.12995592       4.06370419       0.00126410       0.00432481       0.00784733
C        1.18034259       6.35967320       4.22611421       0.00925928      -0.00007719       0.00022057
C        0.00106699       8.51668911       3.85209977      -0.00219084      -0.00113309      -0.00427334
C        7.39563669      -0.03044859       3.80882753       0.00045779      -0.00107922       0.00190254
C        6.15711251       2.13185465       3.79244512      -0.00488747      -0.00193419      -0.00557785
C        4.96897122       4.33180662       3.82764388      -0.00281651       0.00105530       0.00481351
N        3.83651007       6.43129504       3.92701751      -0.00128844      -0.00126596      -0.00651358
C        2.47160259       8.48654063       3.90156155      -0.00251415      -0.00066200       0.00404927
C        9.85329700      -0.03495864       3.75561009       0.00591966      -0.00068388       0.00693270
C        8.61696901       2.11621883       3.68875678      -0.00371068      -0.00084729      -0.00460658
C        7.39602625       4.26735173       3.54589201      -0.00253576      -0.00069150       0.00263623
C        6.19748183       6.43687225       3.45779779      -0.00342430      -0.00081340       0.00157808
C        4.94351178       8.53100311       3.63853421       0.00282393      -0.00091332       0.00847047
C       -0.01522265       1.40298155       3.93240488       0.00005967       0.00185153      -0.00305111
C       -1.27775845       3.54524199       3.82730400      -0.00095302      -0.00049881      -0.00588358
C       -2.47868440       5.68859996       3.57161547       0.00129762      -0.00075091      -0.00272050
C       -3.69500247       7.83869317       3.52301146       0.00411121       0.00258012       0.00061702
C       -4.93543465       9.97342253       3.69433922      -0.00045451       0.00193280       0.00266571
C        2.44355822       1.41973310       4.03187656       0.00154794       0.00006467      -0.00524802
B        1.08943803       3.53340937       4.66968222       0.00989710       0.00303580       0.01491193
C       -0.05771770       5.68450166       3.97374630       0.00115399       0.00161180       0.00604677
C       -1.24151593       7.82956663       3.72122220      -0.00084581      -0.00018144       0.00356704
C       -2.47357396       9.97123340       3.75942054      -0.00032336      -0.00020204      -0.00371550
C        4.91891532       1.42625989       3.90049701      -0.00395679      -0.00092666       0.00221960
B        3.68448449       3.64846090       4.26423587      -0.00459569       0.00455595       0.00714794
C        1.23678879       7.76721404       4.00054844      -0.00365064      -0.00114655       0.00391843
C       -0.00469199       9.94547680       3.82692600      -0.00177264      -0.00093111       0.00410574
C        7.38647005       1.40370752       3.74924732      -0.00428673      -0.00052612      -0.00430904
C        6.16281877       3.56262110       3.70009514      -0.00327703      -0.00210358      -0.00287337
C        4.98104123       5.74899596       3.67298613      -0.00233742      -0.00143880       0.00002973
C        3.73174414       7.78471251       3.81292638       0.00044316       0.00092678       0.00681157
C        2.45970695       9.92083041       3.81119371       0.00415492       0.00014163       0.00238084
C        9.85049434       1.39714896       3.74825701      -0.00273279      -0.00108208      -0.00287408
C        8.61815435       3.54585718       3.59316581      -0.00088874      -0.00143009      -0.00146015
C        7.41011841       5.69650549       3.45523118      -0.00409507       0.00076295      -0.00337756
C        6.18060518       7.84781493       3.50948906       0.00080381       0.00003316      -0.00440931
C        4.92750387       9.95054905       3.70298373       0.00583385      -0.00049530       0.00293820
Re       2.56303205       5.13320332       5.20579530       0.01108659      -0.00154688      -0.01183157
O        1.47199264       3.91181539       6.06075618      -0.00853889      -0.00602956      -0.00088934
O        3.67635398       5.95236996       6.55911733      -0.00402657       0.00912732       0.01113009
H        3.51923682       5.67108182       7.47862887       0.00677027      -0.00122478      -0.01058570
