52
Lattice="12.336457 0.0 0.0 -6.168228499999997 10.683685154694365 0.0 0.0 0.0 15.0" Properties=species:S:1:pos:R:3:forces:R:3 energy=-463.7668364600265 free_energy=-463.7668364600265 stress="-0.004579792732151358 -0.001464639565141985 6.022056553128131e-05 -0.001464639565141985 0.002528203948365748 -2.8286731749747642e-05 6.022056553128131e-05 -2.8286731749747642e-05 -2.9863745425063474e-05" pbc="T T T"
C        0.01836306       0.03049328       3.71808362      -0.00666774      -0.00848138       0.00265847
C       -1.23514272       2.13259910       3.55203537      -0.00022825      -0.00192608      -0.01534527
C       -2.46560309       4.28052717       3.50710646      -0.00074850       0.00005397      -0.00520085
C       -3.67501512       6.43186069       3.63352620       0.00529062      -0.00619946      -0.00462699
C       -4.90900386       8.58102789       3.76564250       0.00229338      -0.00274705       0.00190636
C        2.48299438       0.05844693       3.78693639      -0.00090841       0.00067935       0.01064224
C        1.22011885       2.19711257       3.76781293      -0.00646169      -0.00811611       0.00361021
C       -0.03648227       4.25189810       3.63184578       0.00311571      -0.01131650       0.00358829
C       -1.22523366       6.42346680       3.64882045       0.01325348      -0.00559430      -0.01743407
C       -2.44950671       8.57857999       3.72185742      -0.00209466      -0.00374944       0.00761584
C        4.95222646       0.02218862       3.81650931       0.00434347       0.00116166       0.00770437
C        3.71173880       2.20427171       3.98189980      -0.00376183       0.00870943       0.00200694
C        1.22388684       6.33603503       4.04646835       0.00121397      -0.00010830       0.01912216
C        0.02455329       8.53534391       3.83873635       0.00200018      -0.00278248       0.00723573
C        7.42082863      -0.01107480       3.77412178       0.00166561       0.00486168       0.00017382
C        6.19575753       2.13591748       3.78561015      -0.00280746       0.00214144      -0.02144739
C        5.01391746       4.28454482       4.02376039      -0.00073108       0.00244154       0.00103242
B        3.83812183       6.45184764       4.64681790      -0.00667525       0.00042665      -0.01232397
C        2.49289968       8.52897887       3.98846546       0.00349412       0.00790917       0.00924017
C        9.87869491      -0.00589062       3.72649298       0.00009811       0.00632937      -0.00955247
C        8.64347320       2.13185132       3.59683352       0.00061869       0.00220356       0.00761422
C        7.43245442       4.28293109       3.66330648       0.00272267       0.00198595      -0.00906587
C        6.22640677       6.42942296       3.88727514      -0.00253395       0.00221891      -0.00482884
C        4.96211112       8.57415986       3.94240737      -0.00247460      -0.00198548      -0.01674729
C        0.00506462       1.45282899       3.64878030      -0.00432643      -0.00862728       0.00611512
C       -1.25003763       3.54789883       3.48970355      -0.00108943      -0.00012868       0.00417653
C       -2.45177731       5.71096219       3.56920073       0.00766058      -0.00167226      -0.02074231
C       -3.67673268       7.86325001       3.69663833       0.00182552      -0.00849450       0.00670956
C       -4.91036175      10.01429887       3.75499825      -0.00057010      -0.00442944       0.00492418
C        2.47318793       1.49591932       3.86157554      -0.00337730      -0.00106212       0.01208768
N        1.12511108       3.57027002       3.82274979       0.00008180      -0.01121693       0.01577418
C       -0.00371529       5.68267515       3.74975281       0.01102503      -0.00540484       0.01128160
C       -1.21923915       7.84971761       3.73638167       0.00162494      -0.00254075      -0.00841505
C       -2.45374103      10.00896160       3.78220689       0.00214302      -0.00039337       0.00966582
C        4.94964362       1.44881649       3.86792711      -0.00411601       0.00436138      -0.01350617
C        3.76119370       3.61045095       4.20312030       0.00166869       0.00468390       0.01394163
C        1.25625774       7.78226006       3.97259173       0.00400487       0.00065071       0.00813564
C        0.01843210       9.96708390       3.81477266       0.00377777      -0.00230692       0.00261667
C        7.41989509       1.41516171       3.70448487      -0.00070617       0.00195505      -0.00828188
C        6.22037910       3.55876096       3.79054865      -0.00225489       0.00534478      -0.01926285
C        5.05420605       5.68367389       4.10069617      -0.00793747       0.00741416      -0.00149498
C        3.73546881       7.89479592       4.13216011      -0.00062904      -0.00373079      -0.00365534
C        2.48253677       9.95826935       3.81342059       0.00250495       0.00773596       0.00322034
C        9.87339508       1.41657742       3.59724340       0.00072433       0.00555603      -0.00280505
C        8.64784251       3.56173108       3.55406795       0.00163751       0.00060665       0.01390003
C        7.44354721       5.71193023       3.69976556      -0.00183147      -0.00023489      -0.00933245
C        6.20886927       7.86465877       3.88512257      -0.00077133       0.00179349      -0.02231105
C        4.95447771       9.99219275       3.77755036      -0.00679431      -0.00225277      -0.00166586
Re       2.32764965       4.89175380       5.02638642      -0.02359206      -0.02128664       0.02140966
O        3.33132231       6.12168776       6.00146421       0.07524449       0.07581163       0.02118872
O        1.55970635       3.89524114       6.50141178       0.03958168      -0.01053299      -0.02387279
H        2.08204235       3.98497411       7.32157274      -0.09952576      -0.01971466       0.01262020
