52
Lattice="12.336457 0.0 0.0 -6.168228499999997 10.683685154694365 0.0 0.0 0.0 15.0" Properties=species:S:1:pos:R:3:forces:R:3 energy=-463.321386343652 free_energy=-463.321386343652 stress="-0.0029285031502412134 -0.00032271666226910015 1.444940349444058e-05 -0.00032271666226910015 0.0031458998672293306 -9.191687788940309e-06 1.444940349444058e-05 -9.191687788940309e-06 -1.6835091173165006e-05" pbc="T T T"
C       -0.00360253      -0.00595194       3.73368849       0.00116813      -0.00103031       0.00017863
C       -1.25356024       2.10274589       3.65792672      -0.00082221       0.00132867      -0.00396494
C       -2.49202856       4.25055956       3.56994608      -0.00058173      -0.00163276      -0.00221862
C       -3.70848767       6.40263385       3.58323657       0.00115582       0.00155683       0.00084137
C       -4.92932895       8.55150922       3.66029886      -0.00384530      -0.00068336       0.00100634
C        2.46598546       0.01661115       3.83964312       0.00114386       0.00207428      -0.00128113
C        1.22603680       2.16400905       3.91695848      -0.00229197       0.00067063      -0.00235728
C       -0.05531023       4.24180377       3.82748848       0.00452953      -0.00011684       0.00014845
C       -1.26349818       6.39831807       3.77826108       0.00119927      -0.00067035       0.00365488
C       -2.47034594       8.54556167       3.76948134      -0.00018774      -0.00208632      -0.00016608
C        4.93175713      -0.00495608       3.86269203      -0.00305690      -0.00150767       0.00086853
C        3.70102940       2.16155296       3.99759381       0.00268894       0.00164032      -0.00241235
B        1.20046688       6.33340558       4.36492130      -0.00521005       0.00208906       0.00264491
C       -0.00283820       8.52156025       3.94581675       0.00057414       0.00315094       0.00119390
C        7.40192249      -0.03497808       3.80393427      -0.00036209       0.00114747       0.00335044
C        6.16786764       2.11631304       3.75386017       0.00374506      -0.00203242      -0.00267295
C        4.93964544       4.26946500       3.81629003      -0.00114447      -0.00196084      -0.00213806
N        3.77805074       6.38403065       3.89215569       0.00207372       0.00078065       0.00005363
C        2.47349946       8.49213393       3.93559206      -0.00060598      -0.00157498       0.00038516
C        9.86061110      -0.04014501       3.72021960      -0.00012361      -0.00063541       0.00070434
C        8.62412642       2.10430350       3.62201997       0.00107229      -0.00115450      -0.00023420
C        7.39125657       4.25625083       3.56805986       0.00060944       0.00035151      -0.00165798
C        6.17660081       6.41457895       3.57992894       0.00006963      -0.00080313      -0.00139229
C        4.93779293       8.51291295       3.71858742      -0.00264084       0.00047474       0.00243086
C       -0.01026595       1.41641066       3.75979895      -0.00319007      -0.00062792      -0.00184917
C       -1.27186167       3.52340670       3.62576366       0.00300613       0.00207377       0.00165987
C       -2.49044744       5.68165680       3.61548339      -0.00122322      -0.00024259       0.00004266
C       -3.70078902       7.83235372       3.65874308      -0.00243416       0.00126676       0.00143786
C       -4.93173460       9.97810628       3.74654980       0.00136684       0.00013062      -0.00042823
C        2.46525889       1.44273492       3.95076804       0.00106769       0.00267730       0.00068681
C        1.17455824       3.57202976       4.04740907       0.00025270      -0.00326383      -0.00269823
C       -0.08266392       5.64812124       3.93445354       0.00206164       0.00159201       0.00103434
C       -1.24453009       7.82370818       3.84580006       0.00238225      -0.00022479      -0.00032407
C       -2.47280106       9.97447862       3.83383784      -0.00224403      -0.00205243      -0.00230086
C        4.93438201       1.42081777       3.87339016       0.00223008      -0.00177831      -0.00145779
C        3.75792157       3.58086548       4.12911784       0.00229042      -0.00136443       0.00011733
C        1.23761772       7.81990554       4.07608560      -0.00097972      -0.00019666      -0.00139882
C       -0.00353789       9.95222084       3.86999878      -0.00228995       0.00282161      -0.00202019
C        7.39811455       1.39190446       3.71258821       0.00346014      -0.00039453      -0.00218908
C        6.16778216       3.54321829       3.67764654       0.00077090      -0.00137799       0.00005232
C        4.93852894       5.71646640       3.71225700       0.00063735      -0.00178958      -0.00094060
C        3.71959058       7.74874528       3.85460127      -0.00043836      -0.00165209       0.00178081
C        2.46848653       9.92161500       3.80959558      -0.00090810      -0.00026292      -0.00064373
C        9.85331776       1.38462832       3.64764898      -0.00084793      -0.00131542      -0.00543199
C        8.61749369       3.53502373       3.55879354      -0.00065587      -0.00148179      -0.00225140
C        7.39567216       5.68780920       3.54995081       0.00174028       0.00132736      -0.00260743
C        6.17494759       7.83055298       3.62991040      -0.00347401      -0.00051976       0.00183665
C        4.93068553       9.94007183       3.71832619       0.00023909      -0.00001506       0.00167707
Re       2.46581778       4.84506102       5.19907368       0.01270137       0.00835886       0.00541195
O        1.60331091       4.15257644       6.52342618      -0.00641341      -0.01224600      -0.00259338
O        3.65849714       5.82765177       6.39912668      -0.00173804       0.00148139       0.02996956
H        3.50951076       5.57144761       7.32801122      -0.00652695       0.00970024      -0.01353782
