52
Lattice="12.336457 0.0 0.0 -6.168228499999997 10.683685154694365 0.0 0.0 0.0 15.0" Properties=species:S:1:pos:R:3:initial_magmoms:R:1:forces:R:3 energy=-471797.8260794316 free_energy=-471797.8260794316 stress="316.4386715946262 -115.47472838155656 56.515082355652076 -115.47472838155656 606.4086371127967 -113.18349535687166 56.515082355652076 -113.18349535687166 421.7150199880075" pbc="T T T"
C       -4.84332491       0.00950189       5.53767623       0.00000000    -369.84623288   -4740.47508486   -2476.93967471
C       -1.44292995       0.68214912       3.52822648       0.00000000    1005.60584249    1747.04867177   -8997.29803312
C       -0.61871775       6.77567791       3.70778106       0.00000000 -160392.49231608  159583.64327711 -113020.46341448
C       -2.05743780       5.65116959       2.34089456       0.00000000   51023.84734902  -45607.07758759  -14522.74450901
C       -5.24845339       2.16694859      -3.39779621       0.00000000       5.14054119      -1.43963640       1.94904886
C        0.20329138      -0.63842329      -1.29285129       0.00000000       1.05215829      11.69226080      16.19618799
C       -0.29919084       2.62918803       2.83193563       0.00000000   -5578.92529739    9454.14796145   11690.47704800
C       -1.35407196       3.28749705       3.36380986       0.00000000   16519.63604476    9617.35945778   47273.18374171
C       -0.91012083       7.46206819       4.55209613       0.00000000  291413.78505782  -35642.22665167 -134344.21277402
C        1.10922541       8.25335210       4.22239255       0.00000000    4201.57695202  -20813.77621525    3096.03142546
C        3.75168566       0.26789839       5.05502569       0.00000000     403.05313678   -1076.72378633    -516.51733452
C       -1.08294596       3.20431580       4.61106141       0.00000000  -34303.29946849   51427.31960388   -8383.76086344
B        0.27705155       3.69904258       5.62422259       0.00000000   -7824.65120934  -14820.14285561   48032.13441338
B        0.02810807       6.70345920       4.27692737       0.00000000 -232763.15453267  126129.97344255   20690.42857948
C        1.35573881       8.33584698       4.86570954       0.00000000   22925.99923919  -14681.91662740   17901.56702557
C       12.19463313      -4.00365695       6.02085153       0.00000000      14.00816464     -44.83697846     -15.43001154
C        4.13589030      -1.38420297       3.59460852       0.00000000   15036.59138890  -21026.11978339    6777.48071248
C        1.93319531       3.30367708       5.10686118       0.00000000   -7759.48349645   -3227.68204069    1316.66392316
S        6.70371911      -0.34922254       5.48163042       0.00000000    -144.84586533  -10060.67147880   -6039.35008672
C       -9.20174897      11.15283389       3.91553311       0.00000000     635.60095335     411.97014248     110.32063339
C       11.05482426       1.59416417       7.54614089       0.00000000     349.52264364     498.11379979    -405.06741161
C       10.54111448       4.38450487       4.64472065       0.00000000  -79484.24469796  -52996.84470802  -65261.57465255
C       10.57130894       4.21868242       5.20037104       0.00000000   -3593.46098580  -75486.47180697    6699.44779076
C        7.60016397       5.15992193       2.29541741       0.00000000    4367.15127971     466.13675196    -268.38498917
C       10.25233151      10.48498479       3.28009550       0.00000000     836.50108728   -2365.80805053     566.65967821
C        0.48829524       2.82157575       6.48336000       0.00000000    -614.50323339   42300.94571501    8548.38001712
C       -1.68863631       3.05249329       4.98947845       0.00000000   41659.22875915   20708.78426828  -24049.11541423
C       -0.84234765       7.32123042       3.70233916       0.00000000  632522.83830401   73534.24707507  387362.45343415
C       -2.47849106       6.23370244       3.19559712       0.00000000    8824.51317776  -25610.98633576  -50523.54194582
C       -7.71486114      10.95238819       3.19489610       0.00000000     508.39210991    8004.32157792   12033.39411057
C       10.82290400      -2.22510136       3.50631065       0.00000000   -2161.50557170    1187.21874121    1526.88012444
C       -0.42150695       5.63756287       1.46277359       0.00000000   -2439.84561999    -813.92651916   -6239.94379789
C       -0.71491750       7.61675836       4.03389480       0.00000000 -552201.78928568 -411676.09537337  -81321.13014851
C        2.49859180       8.01609934       4.31162316       0.00000000  -31895.49576513  -34502.86682729   -1414.87217542
C       -2.17684263       7.37387400       5.67389289       0.00000000   14946.72456838   19357.24435155  -11938.90217289
C       -1.86533873      -0.62717376       2.40203435       0.00000000     143.85926036     663.27446156    1462.84077127
C        1.32702049       5.53380570       7.53438174       0.00000000 -326955.04308703   26818.16247106  -35092.90748477
C        1.20096226       7.89716849       6.10355868       0.00000000  -10383.77912315  -49137.83479405    7225.31473932
C       -2.18699200       8.94361752       2.51051899       0.00000000   10523.75458236  -12774.43782958   11194.64025601
C       13.54151089       8.78980925      -2.31803006       0.00000000      -6.22422614     -13.55667238      18.56490191
C        3.54995126       4.45276760       6.22447727       0.00000000  -16808.79719171    2478.85259473   -7179.12311062
C       11.29080561       6.43682109      -5.78512621       0.00000000   -2269.84183620    1393.06993544    3437.67783133
C        3.00153144      12.06572198      16.81816135       0.00000000     496.95659412     341.51295067     273.22299811
C        1.60534340       7.33671808       4.33345898       0.00000000   -9382.54671302   15242.29549498   23843.64155340
C        4.91076265      -0.51165584       3.10626818       0.00000000     778.55571567   -6666.30336997    1244.54601476
C       13.10111344       5.49969093       2.30336144       0.00000000     853.57895360  -14116.32052778   48029.03075607
C        9.95575352       5.90589837       2.53542953       0.00000000  -50625.95027903   81841.16609364   73836.28551750
C        9.04313123       9.09286154       2.78192070       0.00000000    4354.59335998   -1852.87692688    1282.22770967
C        2.88137762      12.28251381      -2.55087010       0.00000000      -4.16302595       1.32583985      -3.88287541
Re       0.37466680       5.15070973       5.12139982       0.00000000 -357375.75534636 -295311.50338998 -1252773.72702553
O        0.87526548       5.53427343       7.33558396       1.00000000  275621.79906955  -72940.37545985 -335827.31741655
O        0.44233998       5.25096899       5.49042628       1.00000000  495365.77811298  574789.47037746 1415124.56637847
