51
Lattice="12.336457 0.0 0.0 -6.168228499999997 10.683685154694365 0.0 0.0 0.0 15.0" Properties=species:S:1:pos:R:3:initial_magmoms:R:1:forces:R:3 energy=-441.0968753402046 free_energy=-441.0968753402046 stress="-0.0027904940609895586 0.00035769007234286637 1.38630639358456e-05 0.00035769007234286637 -0.00497200434817214 1.1906051338636041e-05 1.38630639358456e-05 1.1906051338636041e-05 -2.3312204631773176e-05" pbc="T T T"
C        0.04506736       0.02578371       3.86617591       0.00000000      -0.00446864      -0.00274790      -0.00002506
C       -1.19099138       2.16110105       4.09801981       0.00000000       0.00606542       0.00179242      -0.00238832
C       -2.47322961       4.26818329       4.27349353       0.00000000      -0.00629287      -0.00342185      -0.00296739
C       -3.69093749       6.41028859       4.06848116       0.00000000      -0.00006738      -0.00129672       0.00229511
C       -4.91862797       8.53779919       3.88639775       0.00000000       0.00796955       0.00823611      -0.00819442
C        2.49665507      -0.03151111       3.82096695       0.00000000       0.00880086      -0.00199118      -0.00196584
C        1.29257913       2.12733939       3.58572939       0.00000000       0.00011049      -0.00059267       0.00301329
C       -0.06234490       4.29616398       4.63472774       0.00000000      -0.01424695      -0.00624148      -0.00012854
C       -1.23915783       6.41071899       4.15998993       0.00000000      -0.00343788      -0.00344985      -0.00129238
C       -2.43959782       8.53630773       4.00640877       0.00000000      -0.00389079      -0.00793128       0.00196402
C        4.96741417      -0.02347732       3.85344638       0.00000000       0.00391895       0.00011647       0.00262118
C        3.74303768       2.00413668       3.34673848       0.00000000       0.00004695      -0.00351325      -0.00283805
B        1.21681189       6.36984327       3.76788156       0.00000000      -0.00315726      -0.01295695       0.00195156
C        0.03871627       8.53532301       3.95279184       0.00000000      -0.00821665       0.00338023       0.01144292
C        7.42996026       0.00483979       3.94119049       0.00000000       0.00195069      -0.00110674      -0.00518840
C        6.20239231       2.12135026       3.71437786       0.00000000      -0.00023018       0.00577147       0.00485394
C        5.10374288       4.28345966       3.23394617       0.00000000       0.00278996       0.00086776      -0.00191990
S        3.63906176       6.41517676       2.65370421       0.00000000       0.00262462       0.00844138      -0.00504172
C        2.50670477       8.58916686       3.74845654       0.00000000      -0.00129423       0.00104091       0.00223482
C        9.91092153       0.02476801       3.92783043       0.00000000      -0.00293454       0.01219479       0.00455515
C        8.66081570       2.13832503       4.04625053       0.00000000      -0.00248808      -0.00304122      -0.01175829
C        7.42705799       4.27041657       3.91566327       0.00000000       0.00435451       0.00392798       0.00758149
C        6.21563704       6.41920729       3.66104200       0.00000000       0.00244548       0.00344710      -0.00296686
C        4.97388475       8.57381422       3.66843846       0.00000000       0.00575228       0.00395948       0.00172972
C        0.07802355       1.48094811       3.87360395       0.00000000       0.00285499      -0.00408729       0.00118368
C       -1.26421169       3.53210943       4.35411217       0.00000000      -0.00679102      -0.00328489       0.00462503
C       -2.47049534       5.69844379       4.21386007       0.00000000      -0.00343047      -0.00387494       0.00499417
C       -3.68097545       7.83093340       3.99998644       0.00000000      -0.00185674      -0.00184978      -0.00076804
C       -4.90944052       9.96827787       3.86881742       0.00000000       0.00377849       0.00738764       0.00029379
C        2.49083310       1.39068370       3.58065062       0.00000000       0.00071756      -0.00293714      -0.00498281
S        0.79062899       4.48898146       1.32500369       0.00000000       0.00293878      -0.00836651      -0.00725363
C       -0.02315110       5.67028849       4.20882473       0.00000000      -0.00947604      -0.01017749       0.00456059
C       -1.20423625       7.82912401       4.03876322       0.00000000      -0.00615481      -0.00294036      -0.00243138
C       -2.43776978       9.95548954       3.89627256       0.00000000       0.00674398      -0.00817582       0.00350252
C        4.97843603       1.39146248       3.64167457       0.00000000       0.00070705       0.00155640       0.00502402
S        3.71775173       3.50059050       2.50261338       0.00000000      -0.00541171       0.00024439       0.00321801
C        1.28455956       7.85860439       3.82398192       0.00000000      -0.01032893       0.00035375      -0.00533665
C        0.03265685       9.96436377       3.93590396       0.00000000       0.00191298       0.00212188      -0.00811303
C        7.42148259       1.42712043       3.92187716       0.00000000      -0.00230872      -0.00206546      -0.00737482
C        6.22602014       3.54164256       3.63939961       0.00000000       0.00574191       0.00849689       0.00284412
C        5.08415665       5.67080000       3.27203181       0.00000000      -0.00064395       0.00173200      -0.00207569
C        3.73079471       7.93472571       3.46539496       0.00000000       0.00396067       0.00474695       0.00415582
C        2.50729006      10.00154684       3.90714715       0.00000000       0.00177010       0.00339346       0.00336713
C        9.90593493       1.44085686       4.04381331       0.00000000       0.00237590       0.00866832       0.00659940
C        8.64038245       3.55466180       4.10615847       0.00000000      -0.00213040      -0.00532068      -0.00609063
C        7.42455748       5.69476839       3.91346648       0.00000000       0.00341259       0.00159242      -0.00373074
C        6.19399307       7.84061462       3.71991256       0.00000000       0.00999776       0.00477450       0.00358878
C        4.97840300      10.00332094       3.84738492       0.00000000      -0.00712968       0.00354705      -0.00351714
Re       1.65145885       4.31790405       3.26270490       0.00000000       0.00602087       0.00720104      -0.00416991
O        0.69317431       4.02525964       5.78051560       1.00000000       0.00032644       0.00095452       0.01560819
O        2.02386965       4.36963516       5.32976442       1.00000000       0.00629808      -0.00857592      -0.00528881
