52
Lattice="12.336457 0.0 0.0 -6.168228499999997 10.683685154694365 0.0 0.0 0.0 15.0" Properties=species:S:1:pos:R:3:forces:R:3 energy=-461.77454755519756 free_energy=-461.77454755519756 stress="-0.0029756007596783113 0.0019421139084844076 -4.974293203771057e-06 0.0019421139084844076 0.0015085597561569836 -1.3681754529373087e-05 -4.974293203771057e-06 -1.3681754529373087e-05 4.38592598213969e-06" pbc="T T T"
C        0.00560747       0.01140242       3.83271265       0.00041725       0.00167425       0.00671912
C       -1.22412199       2.14607900       3.80622464      -0.00464524       0.00541051      -0.00399833
C       -2.47130019       4.28853059       3.62195276       0.01212255       0.01006190      -0.00304976
C       -3.70734329       6.43237629       3.57531963       0.00413827      -0.00050094      -0.00381999
C       -4.93187996       8.57108588       3.69984011      -0.00046388      -0.00388103      -0.00574800
C        2.48012021       0.04143048       3.78435755       0.00845873       0.00357184       0.00137710
C        1.25872704       2.15166385       4.05277746      -0.00644676      -0.01026365       0.00409954
C       -0.07257612       4.32267391       4.04022348      -0.00052507       0.00189068       0.00379957
C       -1.26867417       6.44174055       3.83069019      -0.00248510      -0.00077212      -0.00131388
C       -2.46961880       8.58032114       3.70912620       0.00115436      -0.00556345      -0.00080920
C        4.94333139       0.03378019       3.69291011      -0.00166049      -0.00540319      -0.00013761
C        3.74237676       2.19950430       3.82047413       0.00733439       0.00900337       0.00537116
B        1.11934135       6.48087474       4.65347897      -0.00772768       0.00001625       0.00235918
C       -0.00145656       8.58145826       3.89650376      -0.00412819      -0.00053622      -0.00538617
C        7.42118681       0.00243279       3.70241092      -0.00050429      -0.00668546      -0.00467562
C        6.19548969       2.13761227       3.53937904      -0.00782190      -0.00266126       0.00989461
C        4.98198989       4.24790932       3.66612669      -0.00331925       0.00072140       0.00502661
C        3.73640292       6.33785070       4.10194593       0.01095416       0.00294807       0.00305747
C        2.46649754       8.53935404       3.99565397       0.00371447       0.00600138      -0.00338079
C        9.87942303      -0.00247881       3.77596255      -0.00027920      -0.00916129       0.00310182
C        8.65867048       2.13919047       3.57823485       0.00662714      -0.00458654       0.00192088
C        7.41978078       4.28187661       3.47540342      -0.00464799      -0.00289031       0.00977612
C        6.17442970       6.42018493       3.63455501      -0.00691050       0.00277037       0.00438440
C        4.93043338       8.53123296       3.85076060      -0.00660956       0.00947029      -0.00075595
C        0.01524162       1.44550564       3.91080807      -0.01079759       0.00347313      -0.00569055
C       -1.24682813       3.57091499       3.79181410       0.00744082       0.00746666      -0.00938545
C       -2.48417024       5.71700150       3.63728609       0.00425708       0.00352113       0.00548019
C       -3.70328785       7.86129145       3.64685890       0.00196586      -0.00205894       0.00405683
C       -4.92496193       9.99848317       3.78024984       0.00086357       0.00369897      -0.00074484
C        2.49196488       1.47586003       3.90254862       0.00719765       0.01088839      -0.00074256
B        1.26576157       3.63800148       4.38406909       0.00025356      -0.00610249      -0.00865322
C       -0.09569962       5.71025765       4.08794088      -0.00434769       0.00201678       0.00529662
C       -1.24957878       7.87117870       3.82140101      -0.00555816      -0.00684875       0.00010098
C       -2.46399920      10.00969306       3.72373484       0.00269829      -0.00646287      -0.00273899
C        4.95627571       1.45669609       3.65294045      -0.00295558      -0.00482799      -0.00717529
N        3.83605323       3.56741949       3.91212157       0.00586793       0.00439568      -0.00286542
C        1.22037440       7.90937039       4.12032657       0.00215848       0.00700687      -0.00083573
C        0.00795166       9.99913700       3.73906962      -0.00148194      -0.00245760      -0.00088979
C        7.42752400       1.42413378       3.57444031      -0.00292254      -0.00236020      -0.00259929
C        6.20365843       3.55066375       3.48588571      -0.01266856      -0.00481155      -0.00014979
C        4.95209643       5.68393493       3.77516688      -0.00064393      -0.00514985       0.01162514
C        3.69927692       7.78399240       4.00241607       0.00346519       0.00627516      -0.01274012
C        2.48068332       9.96726391       3.80658884      -0.00137986      -0.00189711       0.00253258
C        9.88682803       1.42651228       3.70196040       0.00390922      -0.01567935       0.00341778
C        8.65009748       3.56712593       3.52280170       0.00864113       0.00250912      -0.00653243
C        7.40331008       5.71108148       3.52924407       0.00376848       0.00342860      -0.00729258
C        6.17170082       7.84490683       3.72654828      -0.00693373       0.00244940      -0.00188393
C        4.94018301       9.96552531       3.82439278       0.00340552       0.00161593       0.00727743
Re       2.68486006       4.93963631       5.21565334      -0.00956716      -0.00280035       0.00859525
O        1.57741288       6.18347001       6.01775561      -0.00131991      -0.00435991       0.00013298
O        3.52727906       3.85428375       6.57894513      -0.00047601      -0.00936505      -0.00373057
H        3.15625200       3.91345262       7.47781881       0.00841364       0.01580139      -0.00167748
