52
Lattice="12.336457 0.0 0.0 -6.168228499999997 10.683685154694365 0.0 0.0 0.0 15.0" Properties=species:S:1:pos:R:3:forces:R:3 energy=-449.7767384596912 free_energy=-449.7767384596912 stress="-0.004902650052558509 0.0020937719360406963 1.2207044466718155e-05 0.0020937719360406963 -0.01071574354692158 7.98790803267658e-05 1.2207044466718155e-05 7.98790803267658e-05 -4.3323679050217686e-05" pbc="T T T"
C        0.02859162      -0.01492802       3.59161829      -0.00122387       0.00139180      -0.00254614
C       -1.20265185       2.13485113       3.66307784       0.00019524       0.01404037       0.00599261
C       -2.44181742       4.27825112       3.51262916      -0.00297350       0.00022330      -0.00413392
C       -3.66183484       6.40651033       3.43889860      -0.00986689      -0.01020817      -0.00689706
C       -4.91123163       8.53329956       3.48103278       0.00793962      -0.00487970      -0.00710184
C        2.50109168      -0.03968331       3.71621440      -0.00257794       0.00392444      -0.00550567
C        1.25807185       1.99904855       4.09251726      -0.00184099      -0.00041000      -0.00418324
C       -0.07171043       4.31818686       3.95635448      -0.00914134       0.00275035       0.00758570
C       -1.20818379       6.42496204       3.69957166      -0.00611388       0.00177680      -0.00094552
C       -2.43693589       8.53808928       3.57542876      -0.00108299       0.00622713       0.00357290
C        4.96021737      -0.00324179       3.73043703       0.00192289      -0.00278573       0.00046257
C        3.73768279       2.08521403       4.15842473       0.00089672      -0.00056957      -0.00356734
B        1.31854381       6.41182940       4.43115737       0.01392248       0.00057409      -0.00229162
C        0.02246043       8.56197597       3.79951268      -0.00034094       0.01368631      -0.00391311
C        7.41675264       0.02492066       3.61855178       0.00501915       0.00497576       0.01047214
C        6.20573861       2.12669419       3.74285091      -0.00763537      -0.00081704       0.00358134
C        5.02978601       4.24402073       3.95282179       0.01240238      -0.00317216      -0.00577210
P        3.52182021       6.29502503       4.16743101       0.00148211      -0.01093177       0.00684748
C        2.46376509       8.62567999       3.78609315       0.00130867       0.00755291       0.00823794
C        9.89780288       0.01949222       3.53427586       0.00764982      -0.00092800      -0.00841414
C        8.66498242       2.14468518       3.51773791      -0.00159682      -0.00288127      -0.01319325
C        7.43836346       4.26830526       3.50559507       0.00697545       0.00005665      -0.00122593
C        6.21074077       6.40165943       3.48861412      -0.00438670       0.00011083       0.00550348
C        4.95947743       8.55883440       3.56557341       0.00313719      -0.00736711       0.00649404
C        0.02247445       1.39752789       3.77065792      -0.00533458       0.00641667       0.00525714
C       -1.22814362       3.55546516       3.67918869      -0.00548726       0.00940544       0.00073018
C       -2.43048099       5.70098480       3.51840392      -0.00841647      -0.00430367      -0.00944521
C       -3.67064004       7.82791632       3.47630987       0.00380110      -0.00757382      -0.00516246
C       -4.90618060       9.95283512       3.58097838      -0.00158854       0.00034250      -0.00178941
C        2.51613687       1.35331031       4.00124077       0.00079559       0.00294516      -0.00491196
P        1.31244468       3.59384760       4.70863078      -0.01661481       0.00622884       0.00017521
C       -0.00713532       5.71870839       3.97234301      -0.00353573       0.00171881       0.00640676
C       -1.21182476       7.84335559       3.69193328      -0.00162106       0.00788767      -0.00004936
C       -2.43372471       9.95449676       3.66203755      -0.00188799       0.00619999       0.00511900
C        4.96285199       1.41947881       3.88200128      -0.00412864      -0.00755056      -0.00734945
B        3.75985975       3.57925090       4.56483027       0.01003586       0.00426649       0.00564319
C        1.25782623       7.90213179       4.00365221      -0.00271404       0.01198012       0.00078843
C        0.02147896       9.98693836       3.69414619       0.00679365       0.00850576       0.00283002
C        7.42739869       1.43710909       3.59293120      -0.00763599       0.00264608       0.00261007
C        6.22638736       3.53919580       3.71857808       0.01127225      -0.00047539       0.00594632
C        5.03975179       5.62459694       3.68929839       0.00219819      -0.00478934       0.00073887
C        3.70424538       7.94577437       3.75714723      -0.00257316      -0.00362001       0.00083355
C        2.48344450      10.02280195       3.60159890       0.00500175       0.00527576      -0.00153311
C        9.90321778       1.43798345       3.53582128       0.00479795       0.00124351       0.00893594
C        8.66622967       3.56347546       3.47891593       0.00303697      -0.00328979      -0.01642396
C        7.44324212       5.68945839       3.43763013      -0.00875721      -0.00263235       0.00267350
C        6.18868107       7.82576338       3.49311615       0.00655038      -0.00364256       0.00018540
C        4.96076319       9.98225418       3.52736613       0.00574001      -0.00818337      -0.01005261
Re       2.57762192       5.06426116       5.75921952       0.00423101      -0.00408426       0.00403700
O        2.92210216       5.49575763       7.54572959      -0.00446038      -0.01091531       0.01323141
O        1.67058036       4.95158391       8.25583271      -0.00516589      -0.01550761      -0.00718506
H        2.12140918       4.28999422       8.81794982       0.00159658      -0.01083498       0.00870127
