52
Lattice="12.336457 0.0 0.0 -6.168228499999997 10.683685154694365 0.0 0.0 0.0 15.0" Properties=species:S:1:pos:R:3:forces:R:3 energy=-451.92809171766237 free_energy=-451.92809171766237 stress="-0.002757634023019449 0.005223152872819816 -1.8169763254835628e-05 0.005223152872819816 -0.0014879881428859086 -1.0762894341695222e-05 -1.8169763254835628e-05 -1.0762894341695222e-05 3.139768329293504e-05" pbc="T T T"
C        0.03293635      -0.05036737       3.72799352       0.00103462       0.00336157       0.00021287
C       -1.17484475       2.11227369       3.84785096       0.00022362      -0.00411290      -0.00748148
C       -2.43492082       4.23812084       3.72599247       0.00161382      -0.00686330      -0.00662804
C       -3.69437484       6.35654287       3.66153430      -0.00206175       0.00118143      -0.00384757
C       -4.93177996       8.48518034       3.67547056      -0.00102047       0.00078142      -0.01287894
C        2.49768331      -0.04782113       3.64431271       0.00122063      -0.00292108       0.00202929
C        1.29507583       2.04504745       3.99573592       0.00046964       0.01368132       0.00412959
C       -0.03211255       4.34305004       4.02604277      -0.00393439       0.00434058       0.00803343
C       -1.23296289       6.38989178       3.64143962      -0.00073878       0.00074328       0.00721602
C       -2.45863158       8.49784904       3.57509948      -0.00660441      -0.00383832       0.00437323
C        4.96579329      -0.05889228       3.61972797       0.00008956      -0.00374473       0.00322949
C        3.77867130       2.03758450       3.78931278       0.00327965      -0.00722396      -0.00043747
O        1.18221889       6.41510883       3.83498142      -0.00886702       0.00489477       0.00380482
C        0.01202374       8.49105469       3.62826281      -0.00109274      -0.00478264      -0.00127775
C        7.43891955      -0.06396388       3.66105057      -0.00527602      -0.00243478      -0.00264974
C        6.23337281       2.05755541       3.76621249       0.00693228       0.00198854       0.01829247
C        5.03086569       4.13265183       4.12146498      -0.00521726       0.00077288      -0.00424654
B        3.78781971       6.41806563       4.39477131       0.00201649       0.00555545      -0.00200209
C        2.45199869       8.48088967       3.77815418       0.00612252       0.00307971       0.01230331
C        9.90344640      -0.05262505       3.72399841      -0.00521963       0.00631193       0.00244179
C        8.68960681       2.08428533       3.73336720      -0.00276848      -0.00289167      -0.01067638
C        7.44758501       4.21150316       3.80967958       0.00426294      -0.00128986      -0.00036401
C        6.18982746       6.33518827       3.86855866       0.00282031      -0.00396301       0.00362923
C        4.94303867       8.48995154       3.80912282       0.00385718      -0.00156680       0.00428370
C        0.05301577       1.38771343       3.84770955       0.00450292       0.00436947      -0.00353681
C       -1.19203059       3.54554708       3.84889684       0.00045921      -0.00641571       0.00633936
C       -2.45723788       5.65358274       3.65846604       0.00027325      -0.00133353       0.01036491
C       -3.69894763       7.78116663       3.62258531      -0.00607483      -0.00170648      -0.00222200
C       -4.91248618       9.91778481       3.66941350       0.00119713       0.00061999      -0.00742011
C        2.53217030       1.38331204       3.77061453      -0.00134706      -0.00247080       0.01014999
S        1.34020491       3.60170994       4.72333190       0.00001131       0.01651319      -0.00187753
C       -0.02602880       5.73168428       3.81783413       0.00219662       0.00204632      -0.00155224
C       -1.23194636       7.80235841       3.58856969      -0.00572032      -0.00077033       0.00080521
C       -2.44480499       9.92608411       3.59258551       0.00059460      -0.00449371      -0.00702062
C        4.98351997       1.36675537       3.70358806       0.00678831       0.00025896      -0.00465843
O        3.80875086       3.45308463       3.89309406      -0.00505157      -0.00271278      -0.00312978
C        1.21077723       7.78401179       3.74728457       0.00444624       0.00197548       0.00919234
C        0.03400022       9.91563656       3.62439618      -0.00376479      -0.00569913      -0.00732063
C        7.45417064       1.36251120       3.70276093      -0.00002520      -0.00381982      -0.00522179
C        6.24575151       3.45808291       3.91821279       0.00208591       0.00267785       0.01076501
C        4.98592772       5.56418374       4.11306071      -0.00454308      -0.00025343       0.00069177
C        3.69206071       7.80930091       3.93281000       0.00458073      -0.00075597      -0.00193960
C        2.48963310       9.90689803       3.69872006      -0.00152233       0.00259334      -0.00563975
C        9.92951711       1.38315680       3.75160500      -0.00417903       0.00312181       0.00955080
C        8.67856221       3.50850585       3.74112832       0.00121949      -0.00634746      -0.01342830
C        7.41827123       5.63330978       3.77063819       0.00132056      -0.00201772      -0.00147584
C        6.16920782       7.76087061       3.79023114       0.00388858      -0.00386607       0.00022986
C        4.96471343       9.91961654       3.73115368      -0.00370494       0.00359496       0.00503619
Re       3.49554736       4.80558249       5.55763884       0.00208461       0.01313500      -0.00460720
O        4.62768463       4.91512478       6.84269222       0.00210386      -0.01019781      -0.01383034
O        1.92793526       5.50384110       6.36952891       0.00117156       0.00132217       0.01843395
H        1.97719140       6.01450642       7.19948641       0.00586595      -0.00042763      -0.01816765
