52
Lattice="12.336457 0.0 0.0 -6.168228499999997 10.683685154694365 0.0 0.0 0.0 15.0" Properties=species:S:1:pos:R:3:forces:R:3 energy=-456.4116700531143 free_energy=-456.4116700531143 stress="-0.001719895290943537 -0.003147897874266112 3.2733269996444954e-05 -0.003147897874266112 0.00021941335819014376 9.470749396374837e-06 3.2733269996444954e-05 9.470749396374837e-06 9.604588219470702e-06" pbc="T T T"
C        0.02079759      -0.02774515       3.57409211       0.00638050      -0.01134767       0.00157620
C       -1.23568920       2.09388546       3.52211299      -0.00281327      -0.00775703      -0.00626167
C       -2.44904548       4.24628461       3.48748026      -0.00613163      -0.00194818      -0.01196626
C       -3.65887921       6.39435459       3.48510710       0.00214331      -0.00558349       0.00360702
C       -4.89017941       8.53985252       3.51725167       0.00772381      -0.00683849       0.00570432
C        2.48316376      -0.00075752       3.68304961      -0.00438781      -0.00564240      -0.00258810
C        1.19849491       2.10347918       3.72103422       0.00132572       0.00427607       0.00573516
C       -0.01852892       4.18818707       3.61317177      -0.00652594      -0.00609169       0.00893482
C       -1.19105666       6.36000649       3.65483308      -0.00480517      -0.00030984      -0.01159539
C       -2.42414964       8.52371745       3.63214082      -0.01099177       0.01196960       0.00053893
C        4.95244789      -0.01815838       3.81205873       0.00086822       0.00554963      -0.00809947
C        3.68439899       2.08192737       4.13101363      -0.00962158      -0.00773037      -0.01062002
B        1.19023396       6.36041906       4.31489948       0.00907675       0.00633241      -0.00910084
C        0.03073051       8.51642352       3.84534230       0.00620400      -0.00801442      -0.00223626
C        7.42128845      -0.02790712       3.77660153       0.00834725       0.00001677      -0.00479125
C        6.17871902       2.12544310       3.84308590       0.00539427       0.00447763       0.00464981
C        5.05282991       4.34553926       4.03931589      -0.00204977       0.00103356      -0.00869807
N        3.85735557       6.43751018       4.15816712      -0.00088755       0.01032708       0.00621817
C        2.50788405       8.50550183       3.92155852       0.00720186       0.00235953       0.00330398
C        9.88295870      -0.03914068       3.64931777      -0.00443407      -0.00146670      -0.00350185
C        8.64079500       2.10826035       3.59677272       0.00687384       0.00574356       0.00567968
C        7.43306482       4.26143894       3.58376006       0.00455940       0.00022108       0.00449387
C        6.22623285       6.42741491       3.58087571       0.00261071       0.01049600       0.00122863
C        4.97392880       8.51637776       3.66489724      -0.01001187       0.00750612       0.00313904
C        0.00449620       1.39925779       3.58281879      -0.00062175      -0.00617146       0.00420191
C       -1.22859036       3.50945790       3.49412769      -0.00852831      -0.00701421      -0.00503509
C       -2.43206590       5.66783554       3.51042618      -0.00312845      -0.00415619       0.00190563
C       -3.65583328       7.82020308       3.52379580       0.00227632      -0.00401017      -0.00432388
C       -4.90542245       9.96443494       3.57292590       0.00598280      -0.01166869      -0.00008462
C        2.44766441       1.42262821       3.84388683      -0.00580927      -0.00882622      -0.01349222
O        1.16277914       3.48020883       3.69391333       0.00567073       0.00517579      -0.00480548
C        0.00336182       5.58824202       3.78720037       0.00005840      -0.00346368      -0.00088656
C       -1.19126417       7.79314789       3.72365446      -0.00844443       0.00437694      -0.01166674
C       -2.44357437       9.95559209       3.71030491      -0.00663946       0.00811217       0.00633897
C        4.93884430       1.41237681       3.94084295      -0.00118233       0.00608373      -0.00175700
P        3.64779255       3.68821745       4.81106329       0.00133567       0.00196183      -0.00033571
C        1.27055580       7.83079177       4.01233380       0.01264959      -0.00279717       0.00822437
C        0.01952036       9.95001077       3.80805726       0.00545629      -0.00156261      -0.00708799
C        7.40751850       1.40311885       3.72705735       0.01023541       0.00510066      -0.00386043
C        6.20939382       3.55800242       3.79866392       0.00466279       0.00232862       0.01423279
C        5.01485439       5.76338345       3.88505400       0.00149727       0.00396467       0.00462832
C        3.76519211       7.78436240       3.91245785      -0.00410258       0.00701154       0.00299951
C        2.49201471       9.93425626       3.77031329       0.00430486      -0.00292070       0.00241198
C        9.87627261       1.38880444       3.56686584      -0.00210420      -0.00437557       0.00950725
C        8.65096274       3.53649163       3.52830720       0.00070475       0.00199587       0.00422033
C        7.44204926       5.68835853       3.51487634       0.00604117       0.00052139       0.00739726
C        6.21498394       7.83375427       3.55545759      -0.00247545       0.01372636       0.00644143
C        4.95474570       9.93581827       3.61272797      -0.00363049       0.00168731       0.00205731
Re       2.51266611       5.42544465       5.64565045       0.00249168       0.00404298       0.01457318
O        3.09516043       6.46786796       6.88465695      -0.00977452      -0.00176507      -0.00927572
O        1.15959483       4.30109502       6.33989925       0.00218379      -0.01698786      -0.00087702
H        1.09023629       4.08486087       7.28509315      -0.01515949       0.00205098      -0.00100222
