53
Lattice="12.336457 0.0 0.0 -6.168228499999997 10.683685154694365 0.0 0.0 0.0 15.0" Properties=species:S:1:pos:R:3:forces:R:3 energy=-469.9629629691013 free_energy=-469.9629629691013 stress="-0.000533826009010768 0.003352958723081038 -3.9028484858698424e-06 0.003352958723081038 -0.004919304490363657 -7.743377656529977e-06 -3.9028484858698424e-06 -7.743377656529977e-06 -1.5582630361288432e-06" pbc="T T T"
C        0.01563536      -0.00597222       3.88403284      -0.00154538      -0.00092117       0.00000836
C       -1.19437577       2.14981531       3.82651262      -0.00137655      -0.00062743      -0.00071884
C       -2.42073018       4.27960910       3.70492021       0.00106427      -0.00124658       0.00110733
C       -3.68502850       6.40266847       3.66405859      -0.00106636       0.00035584       0.00055344
C       -4.95048828       8.52362773       3.79865809      -0.00008801       0.00185484       0.00095260
C        2.47510322      -0.01723107       3.75639253       0.00178196      -0.00054734      -0.00150406
C        1.26456551       2.13005788       3.90903799       0.00141536       0.00142102      -0.00047736
C        0.05005892       4.30027544       3.93919386      -0.00146067       0.00033854       0.00009899
C       -1.20271787       6.42262140       3.75688145       0.00020861      -0.00099640       0.00124873
C       -2.46872129       8.53802072       3.67421078       0.00121988       0.00256028      -0.00062967
C        4.95252830      -0.02293940       3.60687624      -0.00068509      -0.00008665      -0.00069361
C        3.73709025       2.09103098       3.71052355       0.00036382      -0.00069782      -0.00107056
B        2.57298489       4.21543677       4.26315349      -0.00000281       0.00052593      -0.00032039
N        1.19746784       6.49797011       4.02469370       0.00074189      -0.00053604       0.00140501
C       -0.00412581       8.54695318       3.71430412      -0.00071937       0.00122154       0.00175374
C        7.42926537      -0.00890664       3.67242804       0.00016345      -0.00068069      -0.00020865
C        6.21618098       2.09756033       3.52389523      -0.00101935      -0.00057771      -0.00051124
C        5.00761248       4.18731873       3.54992009      -0.00017756       0.00105855      -0.00065093
O        3.79066235       6.13388325       3.17196542       0.00297853      -0.00045815       0.00388787
C        2.45881528       8.57348669       4.06090583       0.00080776       0.00029185       0.00120975
C        9.89246398       0.01435767       3.87024055       0.00014606      -0.00066684      -0.00067182
C        8.67888153       2.13579748       3.64173846       0.00069939       0.00132709      -0.00244526
C        7.45110104       4.26253954       3.53435119       0.00043813      -0.00030100      -0.00067866
C        6.17257752       6.39906411       3.66074535      -0.00061522       0.00031875       0.00165479
C        4.92399263       8.54091429       4.08600536      -0.00019042      -0.00310415       0.00197083
C        0.02653450       1.42142524       3.87392932       0.00032677       0.00094049      -0.00076230
C       -1.18358697       3.58275181       3.81725962      -0.00031341      -0.00017250      -0.00052112
C       -2.43222826       5.70211955       3.69946976       0.00004510      -0.00218105       0.00053699
C       -3.70658258       7.82263214       3.70583742       0.00136128       0.00205187       0.00167176
C       -4.93040718       9.95281081       3.82651633       0.00050603       0.00114599      -0.00232473
C        2.48998316       1.40497319       3.80954109       0.00151419      -0.00116638      -0.00043562
C        1.24987348       3.55253106       4.02739191      -0.00001182       0.00265017      -0.00058640
C        0.06135157       5.75088329       3.90964972       0.00040270      -0.00017227      -0.00061631
C       -1.22895886       7.83425408       3.69454461      -0.00030840       0.00030221       0.00167987
C       -2.46006349       9.95758542       3.66781417       0.00101562       0.00140057       0.00036501
C        4.97194947       1.38893720       3.58214107      -0.00081457      -0.00039307      -0.00257288
C        3.80517179       3.49709004       3.77983931       0.00024583      -0.00002922      -0.00378149
C        1.21307912       7.83784908       3.91843965      -0.00030920      -0.00060640       0.00013088
C        0.01985414       9.96056862       3.64159270      -0.00112847       0.00100904       0.00084242
C        7.44756853       1.40702702       3.58727141       0.00046526       0.00010777      -0.00151891
C        6.24055377       3.51739364       3.48723693      -0.00088604       0.00014424      -0.00137980
C        4.95915962       5.62293360       3.48727519      -0.00177667       0.00148342      -0.00072538
C        3.66689276       7.93720575       4.36627678      -0.00105968       0.00152671       0.00093723
C        2.48498140       9.98821638       3.85056864       0.00073191       0.00000100       0.00009893
C        9.90734851       1.43607496       3.77015477      -0.00145927       0.00022039      -0.00171728
C        8.68590039       3.56059831       3.60911913       0.00044672       0.00087797      -0.00027984
C        7.41636868       5.68988495       3.60371909      -0.00215935      -0.00118871       0.00241093
C        6.14576504       7.80515637       3.87414511       0.00020137      -0.00101861       0.00162678
C        4.94786439       9.97318036       3.96028519      -0.00133716      -0.00210498       0.00138264
Re       3.18857697       6.04753316       5.11915834       0.00488039      -0.00512955       0.01482161
O        4.43841716       5.60103137       6.21271423       0.01004469      -0.00462251      -0.01080819
O        1.82473145       6.22425919       6.44669365      -0.03012666      -0.01786837      -0.02551419
H        2.15823379       5.96284520       7.32500434       0.01642055       0.02296553       0.02176904
