52
Lattice="12.336457 0.0 0.0 -6.168228499999997 10.683685154694365 0.0 0.0 0.0 15.0" Properties=species:S:1:pos:R:3:initial_magmoms:R:1:forces:R:3 energy=-269008.0575897435 free_energy=-269008.0575897435 stress="43.60494219890401 54.07110461025742 69.32557582508062 54.07110461025742 99.78589717024862 -7.329705216083867 69.32557582508062 -7.329705216083867 -3.1599468380405265" pbc="T T T"
C        0.65718256       1.81601054       2.47015501       0.00000000    -255.14974061    -123.73374123    -220.47178052
C        1.49988344       3.39122759       5.94374576       0.00000000   38624.09689732   23624.64060322    1543.42712914
C        2.18786971       5.10763254       6.95742907       0.00000000  272604.78081343  376180.67862073  -40551.37454331
C       -4.81025951       6.44771518       3.91872445       0.00000000    4848.27006106     136.82241911  -13209.46058365
C       -3.79192488       5.25624757       1.86120260       0.00000000      89.96247168     137.08537109    -310.06149801
C        3.85477483       2.08735663       4.65578979       0.00000000    4351.64428998    6430.92995055    -195.01257905
C        0.61788664       1.68947385       5.04068388       0.00000000    1017.13173791     644.69801953    -490.37585798
C        3.37697603       5.90856669       3.64263004       0.00000000    1349.72973823   -6557.89334947    5763.29842497
C        3.54501099       7.72093576       1.46700703       0.00000000      29.58750270     539.98643275    -744.46340011
C        0.19561727       9.75172250      12.24622991       0.00000000      -0.65009592       3.49575276       1.84668729
C        1.34201043      -4.91361647       4.55765215       0.00000000   13778.14517582   -7327.24917459    3968.58180867
C        2.14391235       3.60860190       0.33448926       0.00000000     -55.26796028     -27.76845359      16.25593082
B        5.91703302       4.69956833       7.78557132       0.00000000  -11742.47052586    2271.77020710   -3395.68651468
C        6.14282236       8.18385176      -5.70870872       0.00000000     172.70027918     310.62018942     298.10066077
C       -1.78476949       0.13459857      15.56662758       0.00000000     -41.59276877     -24.38400530    -111.80644072
C        1.11780150       1.96357732      -0.08153137       0.00000000      16.92016954      22.60894242      34.50168123
C        6.09425658       5.75602837       4.50537571       0.00000000  -27435.35801676  -25150.47491567   27729.36335329
C        6.04989260       5.81930193       5.12326326       0.00000000   19949.99825469    7913.23111073  -35764.54181035
N        5.46139277       5.22473932       3.88774384       0.00000000   26994.00675386    7101.19873839  -19606.81444954
C       -2.47539260       1.81174932      -0.45133136       0.00000000       0.79093096      -3.10055956      -3.25012787
C        3.66211848       2.84643705       3.97357096       0.00000000   -2120.52414509  -15314.25166716  -23795.21579531
C       10.82539240       0.32787253       1.30846541       0.00000000      38.75344357      22.61331536     104.85808095
C        7.78019216       4.67898864       4.85160990       0.00000000   -3567.49236915    2814.84344821    -193.43090194
C        5.67994936       3.29745661       3.71003998       0.00000000  -20820.88420926   18263.38394120   27963.00040939
C       12.09723776       7.86861493       1.07363495       0.00000000      10.42489637     -17.45921155      19.07713315
C        0.26018202      -5.32599604       9.83713142       0.00000000     166.92790554      99.47810709     403.01426182
C       -5.31169685       3.95218617      -1.38750566       0.00000000       6.44168283      -1.95123288       7.90155304
C       -2.00956551       4.86274217       5.06720151       0.00000000    -120.75489927     -97.65415360     155.31696268
C       -4.74496671       6.71988550       4.64162888       0.00000000    5015.32390800    8934.37896600    5126.53310800
C       -3.91566092       9.61451658       0.45367046       0.00000000      -0.99481598     -12.45157555      28.83186603
C        3.08010106       1.96589949       5.80497029       0.00000000   -2936.82207919    7623.68782549    1520.79091527
C        2.10968561       5.26427327      11.26642118       0.00000000     127.69360554    -298.03927137     -81.69384597
C       -7.81920514      15.55085850       6.21314042       0.00000000     454.06255694      33.27844870    -154.74197519
C       -7.07017408      12.25607530      -2.33482921       0.00000000      -3.32810291      -1.82786868      -0.34089700
C       -4.10597024       8.35841213       8.98325180       0.00000000     -18.48647196      -3.04007742     -21.73979449
C        5.57683060       0.24546720      -2.03903379       0.00000000       6.63105877      -2.03052787      -2.94151272
C        1.85116997       4.43544222       4.69321282       0.00000000   23674.44810331    1692.15506865   30282.58308623
C       -1.42117912      -0.27782365      -3.39401976       0.00000000      -2.68569626       3.94064609       4.42967613
C       -0.07206256      12.00776427       0.72724944       0.00000000      -6.86612711      64.81913136     121.95736700
C        9.09741578       4.69060440      -1.25712119       0.00000000      -5.76282080      -3.03298268       2.90423079
C       10.26749395       0.64161605      12.70240913       0.00000000       4.45172491       0.28810274      -2.32254345
C        8.93176814       7.25352151       3.17030919       0.00000000   -1710.63461554    -425.55753893    1286.31236242
C        1.80441885       4.34689943       4.02349226       0.00000000    2653.10452147    2666.31491705    5452.00940829
C       -3.75886620       5.79855147      -4.55672398       0.00000000     -43.03490171     -14.52180005     -34.08926741
C        8.49605825       1.36709486       4.45410738       0.00000000     -30.29381378      74.50982412    -491.77936078
C        7.58861436       2.39969305       3.15168565       0.00000000     407.00305177    -472.56599819      35.94431977
C        7.29941823       1.62769336       4.01692603       0.00000000    -266.51319747     660.15229609     255.57038276
C        7.99264642      16.58179347      10.84512759       0.00000000    -134.94646228     248.98371487    -645.30736856
C        7.20646522      22.20605667      -1.98043501       0.00000000      -5.02494658      -3.13485675      -0.60174925
Re       4.23729516       4.39145856       5.55041799       0.00000000  259309.73985549  -14742.11493400  -85156.40890051
O        2.48634555       5.36311214       6.84925662       1.00000000 -304678.85380751 -411118.02247613   64971.93952861
O        3.93001820       4.51530008       5.81941412       1.00000000 -299698.37880082   13221.66626140   48085.58316986
