51
Lattice="12.336457 0.0 0.0 -6.168228499999997 10.683685154694365 0.0 0.0 0.0 15.0" Properties=species:S:1:pos:R:3:initial_magmoms:R:1:forces:R:3 energy=-1657363.8610875912 free_energy=-1657363.8610875912 stress="2687.5637171528815 581.4208843826715 1318.0318930245878 581.4208843826715 7761.033863835348 -336.66816893338256 1318.0318930245878 -336.66816893338256 6743.9440068585745" pbc="T T T"
C        0.69909840       0.02668557       3.74810919       0.00000000  -13564.42000724   -4465.93902129   -3336.60786230
C       -2.44004944       0.19881878       1.55559791       0.00000000    7768.11892259   -6938.88572315    7150.18703488
C      -11.11562149       3.24046386       0.61154274       0.00000000    -797.92476295    -923.35454016    -877.43165075
C       -6.50982201       7.96430876       5.98681354       0.00000000 -213331.70741654 -164160.87684136 -243588.59475937
C       -6.58557735       9.24907002       2.09457723       0.00000000  -14895.80787567  -35487.60065961   30285.77748134
C        3.47729231      -2.09878589       4.56558338       0.00000000   -7122.80190093   -5051.72436790   -1324.35462642
C        7.27473753      -9.35067985      -2.12616659       0.00000000      -3.28926635     -32.76996095      35.47858768
C       -0.38709394       8.05598718       1.62147772       0.00000000   -2578.52583552     630.76145025   -1032.47811630
C       -7.25215464       5.69139570       5.36907194       0.00000000 -999214.28945514  810205.99207490 -1423200.01205402
C       -5.71238440       7.49110984       4.63594675       0.00000000 -246842.78249832  -33640.21381412   26325.71336898
C        3.77818215       1.86990964       2.69482127       0.00000000     610.02997127    -462.37724623    -794.44016652
C        1.06714876      -1.96727318       1.96391877       0.00000000  -17198.44107922    6471.00588657    -538.53265933
C        4.51015672       8.67184884       6.30994144       0.00000000  -23417.14804992 -220093.01276390 -203092.85335060
C        1.35598546      13.92425231       1.47016452       0.00000000    4324.52116931   -5499.38715861   -4149.75823025
C        7.86196188      -7.27109669       8.20775062       0.00000000     321.13082124     238.67780225    -159.03890416
C        5.96074669       4.75294053       7.09565412       0.00000000   -8059.27064610   14621.26387160  -13243.10819978
C        9.75021287       0.16851209       0.68417540       0.00000000    -143.06065126    4181.09992061   -1439.23165616
B        7.19250197       6.38526097       5.59015787       0.00000000 -150114.11621405   14119.50288829  -91290.38486854
C        4.05547591       7.90422485       3.85321872       0.00000000  602754.50988618 -2526415.40734141 -178076.01182863
C       12.28311166      -0.72194868       3.32035997       0.00000000  -18651.85520101  -21862.10201411   23252.84806557
C       12.26186748       0.72832631       3.87553727       0.00000000   -2583.21841601  -11601.68198596   -6127.94144364
C       11.48313675       0.83980322       3.00009818       0.00000000    9014.21455561  -11430.02507091    2972.17253538
C        4.91538014       7.71115186       3.03246604       0.00000000 -990870.23722771 -1327142.37166125  775091.96682745
C        4.83538888       7.87510844       4.13287842       0.00000000 -1335552.99974184 -2662141.84404424 -661397.88973876
C       -2.31397330      -0.82411356       1.94726998       0.00000000    7012.00359038  -16690.55437355   16738.12468294
C       -0.30908474       6.95656045       0.42484644       0.00000000     632.78952059      15.91161059     850.49613103
C      -12.16844853       6.41921784       5.63559866       0.00000000    4477.22272348    1802.90177622    -206.54270554
C       -6.73517416       8.29371896       7.89024225       0.00000000     621.90518971   -1324.22333480   12676.48661714
C        2.00824259      11.49873518       5.41989178       0.00000000     439.99945688    -607.49067279     -13.08074748
C       -6.01792554       2.43134600       8.12050294       0.00000000    -433.24909901    1874.59405638    -551.63742826
C       -2.31723697       9.00512613      -0.07484615       0.00000000    -337.09480873     -73.71845083     213.64790075
C        5.23333633       4.82053881       5.41853968       0.00000000 -241839.43837996  410155.42254549 -486043.58103317
C      -11.71375482      10.42886940      -0.73882065       0.00000000     -12.21396624     -43.98907893       6.57743170
C       -3.56846637       8.17120714       4.35366070       0.00000000   11459.45277381    6780.57566787     352.17889950
C        5.35215281       1.50563564       5.15860347       0.00000000    1258.16594571   -5335.10232269     822.23296466
N        5.38296377       4.65765955       4.71535813       0.00000000  -35979.56573938  -75155.95514571  335011.83957794
C        3.77905653       7.37706541       2.58524160       0.00000000  701166.44938419 -365332.25086337 1270202.88814686
C        2.95837527      13.27346261       2.65994220       0.00000000    -122.45293143      20.21918873      25.45605647
C        8.18369849      -3.58678998       2.79937266       0.00000000  145335.02835760  -22395.85486462   81698.25658845
C        2.22568779       6.58383031       3.49234888       0.00000000  280565.65345003  136141.92444124   13005.04127948
C        7.43621841       7.82119463       2.99030393       0.00000000  -19988.22871132   -8916.41681779   20232.21578066
C        4.22167686       5.65076084       5.62069367       0.00000000  321234.87028008  557892.58819014 -1430170.27128621
C        5.70495704       9.46892026       3.76495544       0.00000000  -25632.32629296  -56992.72106308   -1090.59075041
C        9.05335657       0.74685176       1.71210802       0.00000000     291.42888611    1463.97179247   -2847.19785543
C       11.44194405      -0.36142889       2.83064655       0.00000000  -16753.44039149  -22495.01309265    8023.44211314
C        6.12136811      12.08316498      10.45669335       0.00000000      -6.07129152     -20.40599021     -13.53308337
C        9.10597272       9.29101220       4.49924025       0.00000000   -1363.63542814     478.85532505    -580.79465151
C        6.52037445      11.27147029       7.07871402       0.00000000    -582.30795647   -1299.93776328    -324.68548234
Re       4.35227826       6.28018666       3.82286840       0.00000000 -644130.14659796 13288594.30833063 8290804.88731497
O        4.59370805       6.79653001       5.95574589       1.00000000  -59460.21366395 -302639.64927962 -1619171.70862488
O        4.35564296       6.52017493       4.01302811       1.00000000 2992294.78661957 -7339016.71949019 -4541095.62162288
