51
Lattice="12.336457 0.0 0.0 -6.168228499999997 10.683685154694365 0.0 0.0 0.0 15.0" Properties=species:S:1:pos:R:3:initial_magmoms:R:1:forces:R:3 energy=-1641052.7546904527 free_energy=-1641052.7546904527 stress="635.455681100598 -340.9749980090794 1212.7927923686477 -340.9749980090794 656.9640735911336 -973.9937791962271 1212.7927923686477 -973.9937791962271 -1258.1846717291826" pbc="T T T"
C        0.98150729      -4.83670891       4.69520877       0.00000000   23306.96407489   31466.39518955   -7091.87296558
C       -4.19042145       4.40353573       5.97044045       0.00000000   -3461.98737743    1967.11051190   -2372.82862766
C       -5.38642713       4.19911226       7.32497497       0.00000000    -841.84704672     316.29776402   -2690.26100532
C       -3.76992659       5.31256148       3.69250771       0.00000000    3393.96875923   -1976.16057075    2350.05959354
C       -6.74694709      12.07082213       7.39282087       0.00000000      44.75084762      50.23546439     -73.96046894
C        4.64303563      -1.15488933       1.61245863       0.00000000     595.57155101      25.67550154    -272.51264617
C        2.85951629       3.04520148       2.80401558       0.00000000 -301492.56308447 -403873.26828710  444913.49663033
C       -0.11282100       5.43085052       0.93487288       0.00000000    2344.18158120    -319.99734288    3093.71800658
C        5.83344712       4.95848628      -0.55527309       0.00000000  -36539.55743320  -12250.37155182   79016.37180281
C       -2.79724511       7.79913168       5.15685011       0.00000000      57.56181066      30.84909340     125.86113821
C       10.81677894      -0.90211308       2.86028966       0.00000000     905.65740435    5145.06071439    1772.16057353
C        5.73891365       2.62469481       2.53111426       0.00000000 -251952.98801989  275932.14661592  -60457.61572088
B        2.49219644       4.90154761       3.19895266       0.00000000 -134361.80220679 -122490.10755275  522011.29017654
C       -6.53094931       2.98296701       4.63926227       0.00000000  -63117.81339058   68604.78284272 -136967.51731040
C        4.13638015      -2.65907027       4.63779333       0.00000000     239.39978703     -30.62075502     -21.35823412
C        8.15841997       5.89832021       9.61108196       0.00000000      12.61275408      12.28324988      37.42349542
C        9.43712876      12.55209466       1.21947699       0.00000000   28337.48218638   99426.71632057   68001.97989957
N        3.51445952       9.94516532       4.48175107       0.00000000     -66.34412538    -654.39324159    -204.47448048
C        2.27884597       4.45865318      -2.21676842       0.00000000      -0.06425098     338.87483179   -3024.63190796
C        8.94895640       3.57038148       7.01263303       0.00000000    -251.96886579    -158.62083279     -51.28744784
C        8.13130547       1.87210553       1.45432476       0.00000000    3622.51579998   -1481.19168161    -776.12787479
C        6.91117545       5.22441958       4.87580098       0.00000000  -28815.18916930  -60348.79749467    -799.30584106
C        3.78901600       7.01065525       1.99069913       0.00000000   39052.92820649 -292918.38040391   16278.64618602
C        5.18966247       5.53240016       3.29390677       0.00000000   84357.35375570  194153.28391239  438461.20163917
C       -1.76052569      -2.33630867       1.58546772       0.00000000   -6113.10909724  -35496.13989753    7024.49726220
C       -0.37762017       3.75528510       0.95260118       0.00000000   -1559.68260755    -288.38145882    1561.10547958
C        2.65891667       6.04105972       3.00988558       0.00000000  183579.40487099 -312852.43280846   55439.37107794
C       -3.16364647       5.33640642       5.48194076       0.00000000   -3303.47459581    -211.16216704   -1654.71805999
C       -8.42638767      12.62355455       2.46592213       0.00000000    -709.94196211      92.86455502    -130.16655521
C        3.66546178       3.58201137       3.78399319       0.00000000 -352008.66320425 -333206.21070537 1075637.57101533
C        1.94424166       3.83375601       3.79438245       0.00000000  439926.12492771  115882.38311723 -337089.48422981
C       -4.22700681       9.12200246      13.14563072       0.00000000       6.17452157      30.81127684      19.47353969
C       -4.47963642       8.12418164       7.47703310       0.00000000     -38.23446815     -39.12458487    -128.22641775
C       -3.45196399       8.22836132       4.35456869       0.00000000      -8.23423241     242.83910744     -14.96772002
C        4.05509869       3.20767857       4.29321797       0.00000000   -4772.38048525  414065.54563183 -666715.73173948
C        5.36883862       2.79222726       1.74733160       0.00000000  257540.07428002 -632997.51511588  253780.79424499
C        3.34082801       4.97108620       2.01253216       0.00000000  391897.93759993 -400523.09895511  146959.55575097
C       -0.76637904       7.92313170       4.79634086       0.00000000      -5.85898633      41.03296860     -96.40704628
C        5.80326799       1.04224584       1.31551527       0.00000000  -23680.56986283   30071.78549981     688.72180784
C        6.82619148       2.13948911       3.16609893       0.00000000  -72232.56152544   38789.94808964  -28600.96435903
C        6.52742941       9.65467070       7.32397825       0.00000000      13.80517046      -5.91810283      -1.35519769
C        5.55509325       4.44275185       4.35739471       0.00000000 -216333.40491921  -20292.83838798 -259707.46031780
C        0.04785644      10.14702258       5.12696745       0.00000000      88.76352224     787.20378780    -317.02637829
C        9.05954717       3.25516779       4.05713073       0.00000000    2638.39964480    -707.52193830    1319.07249264
C        5.73697978       3.93764142       3.43204709       0.00000000 -182308.98356923   47522.40722311   39744.37587306
C       13.94759883       6.32629816       4.76688381       0.00000000  -11217.79219897   14842.72772589   12237.00984716
C        5.17074587       7.93069869       3.46964534       0.00000000  -11031.79954310  -45430.13378827  -19121.91392533
C       -3.31285645       9.60018317       4.11719543       0.00000000      45.83694611     370.24987282     -68.42425151
Re       4.31609203       4.57508194       1.69989347       0.00000000 -3914684.87462836 -4328605.09398009 11650838.50604038
O        3.40291830       4.94541297       3.62635743       1.00000000 -1273158.70853424  325188.00573549 3036562.37678293
O        4.19547067       4.52466974       1.93950380       1.00000000 5432062.92938856 5341759.96500146 -16329424.03962705
