51
Lattice="12.336457 0.0 0.0 -6.168228499999997 10.683685154694365 0.0 0.0 0.0 15.0" Properties=species:S:1:pos:R:3:initial_magmoms:R:1:forces:R:3 energy=-606973.2499808933 free_energy=-606973.2499808933 stress="712.0775597143752 -160.3453291083805 6.287738818486318 -160.3453291083805 579.754396310582 -119.11779396898004 6.287738818486318 -119.11779396898004 904.5818261746614" pbc="T T T"
C        1.42535078       2.30051206       5.45472312       0.00000000   49305.44429834   93206.10761651 -104494.20710380
C       -6.70805477      -1.02419115      -1.25733103       0.00000000      -4.52596143       0.92856567      18.24215038
C       -0.47127790       3.73702571       5.33531302       0.00000000 -116057.27790613   23913.48800969  -32665.51428190
C       -9.15835560      11.79011004       4.81357946       0.00000000     675.65508222     410.17647533      -9.85983392
C       -6.09927831       7.68681361       9.02898404       0.00000000      -0.77980918      -0.25673766      -0.12441213
C        3.82985279      -2.71427906       5.10135175       0.00000000      63.21372979    -121.90696203     -80.47349628
C        1.02255705       4.85279955       0.04305898       0.00000000    5687.49700116   -4179.94406694   17803.35090552
C        1.95461796       4.37362651       5.46379867       0.00000000   27720.82872887  -56720.75093314 -102690.66639778
C       -6.26087750       2.79356739       5.92003649       0.00000000    1296.86763591     -78.80064529    1478.40903135
C       -3.10479383      11.98297670       2.34085987       0.00000000  -15126.65190698   33221.39514165   30263.41596877
C        5.77440987       7.55684012       5.59274395       0.00000000     192.55532641     257.59511318     169.55682318
C        1.74914519       0.74111045       7.06367114       0.00000000    -807.89691705     760.95554318   -1760.25591036
P        0.69211025       3.55191419       5.16645513       0.00000000  296284.72985287  265420.70826670 -202287.58049673
C        3.21256076       7.49119638       2.92445527       0.00000000   -4710.45104698  -12871.34318393    1787.89431260
C        5.17659681      -0.19609718       2.39316324       0.00000000    1031.70619441   -1271.97544801    -272.14204084
C       12.55405501       0.58213192       5.43288576       0.00000000   -2971.45881557    -453.51921392     939.89655801
C        3.45113488      10.51609259       0.12913477       0.00000000     279.86661175     197.83388199     346.20300329
B        2.40208546       7.20312114      -0.65683815       0.00000000    -269.60469031   -1198.83331339    1844.83256691
C        4.81505969      11.58528223       1.60702475       0.00000000   -2247.64302150   -2270.55825438    -281.94408120
C       11.15740455       1.42555582       4.83097936       0.00000000   41190.62270007  -13503.16117954   21400.88263191
C       10.76355459       1.65904468       4.55795814       0.00000000  -36974.38817747   15478.27403759  -21870.47602043
C       11.58535967      -1.31711437       6.56328706       0.00000000      76.77556469     132.31611494     -56.04883866
C        0.45126218       9.07639158       4.08575547       0.00000000    -323.96329330     347.01088501     -99.78297854
C        9.49490205      10.25802902       8.72725085       0.00000000      61.69245188     -28.60037700      33.30445291
C        2.86492229       1.60357638       3.42917815       0.00000000    4363.79189196   22128.61980415   34942.02253648
C       -0.71746487       5.16359381       2.37646497       0.00000000   54645.23983458   -9599.44804197   13550.73377089
C       -0.10983225       4.49688005       2.85973190       0.00000000   73525.53439805   -7962.34648921   52194.82355244
C       -4.01828811      11.99000208       1.69735003       0.00000000    -302.40001917   11669.70672063   10656.83171960
C        0.44558150      11.22997936       2.28739122       0.00000000    1408.25494048   -1694.88734812    -284.10089746
C       -4.37577240      -0.05566820       4.04754900       0.00000000     -57.72606994     -51.79451498      25.11446854
P       -0.19146703       2.76441401       1.52195931       0.00000000   19931.62737990    8486.15422738   43001.31117138
C        3.60320061       5.76807218       2.86139599       0.00000000  -33293.39089907  -32847.02335758   12378.43123095
C       -7.66671751      10.03016516       3.73667254       0.00000000    -128.37775975     296.88334690     248.10727077
C       -2.22010252      12.58910507       4.25634932       0.00000000  -52951.89922602   41382.42699395  -14179.44247233
C        8.80520877       2.26036967       6.70174392       0.00000000      54.48546138    -118.91114345       1.48418534
N        3.30741505       0.89246760       3.91781265       0.00000000  -23875.30185758   63229.45968669  -36701.13826170
C        0.47651182       3.69475030       4.48315166       0.00000000 -152513.76233245 -280269.58514992 -272465.82334617
C       -1.49219639      11.93959357       4.69237773       0.00000000  -14614.88542409   13868.04405509   -8375.11307239
C        7.48399843      -4.95625561       3.14476246       0.00000000  -17009.96719167    7275.01463468   43451.45877024
C        1.72108081       1.75732840       3.98432306       0.00000000   -2983.23931750   95954.70321982  -12460.87469785
C        3.64988399      10.38350580       1.06425563       0.00000000    -146.12977554     -88.01001034    -136.63504191
C        0.35169189       5.25604623       2.59793919       0.00000000   73841.88972776  -49527.96244300   44436.82177149
C       -4.74592917       9.50328698       0.11570932       0.00000000      37.98596735     145.63900073     176.36191223
C       10.09572102      -3.29578561       8.56947881       0.00000000      -8.04500826     -24.66428591     -23.95876595
C       12.69175885       4.06678792       4.66453845       0.00000000  405586.80102763  -38769.32385837  277344.46340269
C       11.03587515       4.85618665       2.52858964       0.00000000   26750.74300445  -23356.32372057   14946.07646562
C       11.60760061      10.39683901       3.55087241       0.00000000    2420.50518055   -2048.52479350     364.86738423
C        8.34699476       4.29617218       5.96131093       0.00000000       1.39656807     105.91301477     -61.14083958
Re       2.29568989       3.76184789       2.75037045       0.00000000  549474.99559249  999958.56009223 4345052.56035910
O        2.00921301       3.79575817       5.08526779       1.00000000 -266601.52851757   68215.78007531  525041.21911850
O        2.27040492       3.81646216       3.12392947       1.00000000 -891929.41120851 -1227005.23905165 -4682641.37420740
