52
Lattice="12.336457 0.0 0.0 -6.168228499999997 10.683685154694365 0.0 0.0 0.0 15.0" Properties=species:S:1:pos:R:3:forces:R:3 energy=-444.5246698883076 free_energy=-444.5246698883076 stress="-0.004268984632732639 0.001145885249389264 -6.03974770922205e-05 0.001145885249389264 -0.005591368415649873 -2.2114909953619973e-06 -6.03974770922205e-05 -2.2114909953619973e-06 -1.600218131274651e-05" pbc="T T T"
C        0.00112316       0.02574389       3.92633507      -0.00766608       0.00390009       0.01120277
C       -1.23987740       2.13663729       4.12870711      -0.01056231       0.00001200      -0.00412027
C       -2.52793109       4.27358510       4.31730653      -0.00238913       0.00749996      -0.00444008
C       -3.74725836       6.41449608       4.17049736       0.00118723      -0.01022084       0.00254072
C       -4.96685091       8.54086819       3.96449938       0.00936997       0.00332955      -0.00810643
C        2.45396433      -0.02017117       3.89697176      -0.00424801       0.00875498       0.00241448
C        1.26009983       2.14645618       3.72825175       0.00355130      -0.01303940       0.00735698
C       -0.13587419       4.27929173       4.32580727       0.00552621       0.00559433      -0.00022936
C       -1.30633581       6.43025593       4.30048470       0.00486786       0.00708183      -0.00365619
C       -2.49356941       8.54558060       4.12275517       0.00112379       0.00032779       0.00083020
C        4.92522120      -0.02126088       3.95030969       0.00094677       0.00777870      -0.00100354
C        3.71653749       2.00529438       3.39683716       0.00213419       0.00871290      -0.00392881
B        1.19119762       6.37668289       3.89430860      -0.00947422      -0.00252071       0.00593831
C       -0.01050937       8.53787841       4.06943546       0.00300873      -0.00797492       0.00065428
C        7.38831978       0.00220851       4.02818549       0.00534418      -0.00107329      -0.00174131
C        6.16914423       2.11698618       3.78043640      -0.00401595       0.00872747       0.00074489
C        5.07750938       4.26974043       3.25900301      -0.00332800      -0.00969318      -0.00351172
S        3.58503347       6.40646149       2.74250227       0.00072193      -0.00219589       0.00612194
C        2.46165268       8.58519925       3.83931657      -0.00126516       0.00160503       0.00149776
C        9.86741709       0.01837288       3.99729532       0.00759233      -0.00887712      -0.00311038
C        8.62270130       2.13729600       4.10705450      -0.00342033      -0.00674368       0.00369997
C        7.38422927       4.27091973       3.98775914      -0.00566879      -0.00299853       0.01353564
C        6.16706405       6.41466169       3.72630138      -0.00514357       0.00334374      -0.00988529
C        4.92793970       8.57011268       3.73604410      -0.00419722       0.00093826       0.01045342
C        0.02994325       1.47711239       3.93891887      -0.00655977       0.00051688       0.00076157
C       -1.29951700       3.53472965       4.32670595      -0.00016846       0.00455364       0.00905031
C       -2.53077724       5.70061168       4.31415341       0.00673338       0.00475183      -0.00580606
C       -3.73384609       7.83558335       4.10211568       0.00775624      -0.00951847       0.00804164
C       -4.95281564       9.97263987       3.93884350      -0.00444306       0.00746532      -0.00719041
C        2.45710066       1.40712186       3.66935697       0.00660216       0.00493146       0.00758216
S        0.99032176       4.46061527       1.54020332      -0.01724925      -0.00011945      -0.00935562
C       -0.10362267       5.67292158       4.25226576      -0.00062433       0.00966220      -0.00023966
C       -1.26088634       7.84051829       4.17689249       0.00121902       0.00186158       0.00079638
C       -2.48433229       9.96173708       3.99383427      -0.00398796       0.00642472       0.00328132
C        4.94353557       1.38883852       3.71543574       0.00025634       0.01275188      -0.00564547
S        3.77011207       3.44179204       2.42928704       0.00116570      -0.00953794       0.00832262
C        1.23790569       7.86196950       3.92892301       0.00196673      -0.00561394      -0.00652788
C       -0.01091154       9.96393259       4.03794171       0.00198521      -0.00574832       0.00129286
C        7.38656376       1.42584258       3.99622459      -0.00470420       0.00050542      -0.00460008
C        6.19324294       3.53736234       3.69494466       0.00085239       0.00077145      -0.00818303
C        5.04559373       5.65688906       3.31837649      -0.00481847      -0.00847730       0.00128022
C        3.68332521       7.92804759       3.55000627      -0.00491499       0.00759940      -0.01587425
C        2.46397355       9.99736356       3.99080604       0.00744517      -0.00093239      -0.00417840
C        9.86492664       1.43353490       4.10192855      -0.00473205      -0.01181012      -0.00023708
C        8.60170088       3.55772604       4.16843646      -0.00269544      -0.00216853       0.00986141
C        7.37530796       5.69567381       3.99384392      -0.00637663      -0.00346480      -0.00420050
C        6.14717410       7.83789113       3.79116053       0.00216673       0.00823143      -0.01079941
C        4.93419633      10.00126593       3.90784950       0.00132861      -0.00278989       0.00217454
Re       1.70456145       4.31754723       3.57155929       0.00546650       0.00035853       0.00205024
O        2.85412237       4.32521072       5.24326428       0.01361331      -0.01249180      -0.00525863
O        1.99758079       3.85347296       6.35199646       0.00022854       0.00083399       0.01213754
H        1.89079018       4.69499468       6.84576173       0.01849289      -0.00081586      -0.00179431
