52
Lattice="12.336457 0.0 0.0 -6.168228499999997 10.683685154694365 0.0 0.0 0.0 15.0" Properties=species:S:1:pos:R:3:forces:R:3 energy=-452.72784708318744 free_energy=-452.72784708318744 stress="-0.0013310497460707392 0.0021725920560511846 3.2954554715914543e-06 0.0021725920560511846 -1.1813793877210891e-05 1.2300742255624043e-05 3.2954554715914543e-06 1.2300742255624043e-05 -1.9265542555457175e-05" pbc="T T T"
C        0.03773755       0.00125700       3.69800278      -0.00551894      -0.00025013      -0.00213850
C       -1.19406544       2.13194896       3.59935028      -0.00098201       0.00095630       0.00580646
C       -2.42386449       4.26914475       3.57331738      -0.00383324       0.00384346       0.00265907
C       -3.66506625       6.40219991       3.62431915       0.00588028      -0.00111527      -0.00796978
C       -4.91963561       8.53480267       3.70287390       0.00201607       0.00075583      -0.00388888
C        2.49289066       0.04274149       3.71043839      -0.00182663       0.00352545       0.00277685
C        1.24010632       2.15960767       3.70120401       0.00169533       0.00745452      -0.00241240
C        0.01623409       4.22617805       3.78523640       0.00291560       0.00346694      -0.01195042
C       -1.20021912       6.38391936       3.83987991       0.00285097       0.00097844       0.00454963
C       -2.44611076       8.54142776       3.75162835       0.00079078      -0.00531731       0.01146367
C        4.94831056       0.00268168       3.69717455       0.00073665      -0.00912838       0.00146856
C        3.76418347       2.14274539       3.68399696       0.00179453       0.00240137      -0.01183133
B        1.14196622       6.45255087       4.59905429       0.00165790      -0.00323438      -0.01004984
C        0.01024550       8.55814324       3.95391306       0.00125009      -0.00116178      -0.00135888
C        7.42289500       0.00332437       3.70888448       0.00284157       0.00255371      -0.00123019
C        6.20988127       2.10809610       3.52581053       0.00022376       0.00020702      -0.00025827
C        5.02659128       4.17400381       3.60169145       0.00721989      -0.00501705       0.00277671
S        3.52161380       6.20143167       4.17323291      -0.00534220       0.00518140       0.01543788
C        2.47242363       8.59371017       4.02565259      -0.00600308      -0.00179007       0.00486555
C        9.90508979       0.00196057       3.70401257      -0.00562610      -0.00343958      -0.00400150
C        8.67764053       2.12798736       3.53494921       0.00149025       0.00350136       0.00317088
C        7.45256880       4.26133743       3.49453339       0.00375891       0.00236708      -0.01737057
C        6.19840579       6.37626652       3.65693927       0.00164476      -0.00507026       0.00433870
C        4.95585798       8.53345692       3.82195491      -0.00351489       0.00023046      -0.00320946
C        0.04517598       1.43573258       3.66135551       0.00237635       0.00231740       0.00480177
C       -1.19600849       3.54429069       3.60888471      -0.00086606       0.00346704      -0.00602547
C       -2.43127497       5.68668694       3.65035880       0.00377827       0.00310555      -0.00235767
C       -3.67808353       7.82705803       3.68969557       0.00341242      -0.00376875      -0.00013815
C       -4.90173088       9.98071240       3.71168356      -0.00198314       0.00295181       0.00462177
C        2.49959319       1.49455621       3.70831448      -0.00080816       0.00670281      -0.01108607
O        1.20061164       3.52778754       3.77215295       0.00097311       0.00789983       0.00710330
C        0.00218737       5.62262060       4.01680177      -0.00154607      -0.00297373       0.00414134
C       -1.21550771       7.82085201       3.86925712       0.00226136      -0.00115544       0.00461368
C       -2.45390978       9.98326612       3.72677663      -0.00260579      -0.00506930       0.00896208
C        4.95594779       1.42990108       3.61551807      -0.00044892      -0.00610683      -0.00290663
O        3.82749782       3.51229497       3.78654698      -0.00420815       0.00148367      -0.01205648
C        1.24338036       7.90491550       4.18623582      -0.00439357       0.00017277       0.00152729
C        0.01418276       9.98245613       3.77379526       0.00480197      -0.00195872       0.00641486
C        7.43519334       1.41529093       3.56461238       0.00159517       0.00358665       0.00018587
C        6.23088554       3.51610964       3.47744481       0.00728957      -0.00014240      -0.00696002
C        5.02917900       5.57072754       3.71533827      -0.00190651      -0.00569805      -0.00876206
C        3.70102113       7.90107150       4.00686531      -0.00542907      -0.00041596      -0.00317999
C        2.49321297      10.00169358       3.79900165      -0.00294392      -0.00348877       0.00404135
C        9.91462795       1.42362927       3.59252003      -0.00109237      -0.00006170       0.00821811
C        8.68385584       3.55160137       3.50674348      -0.00113187       0.00344801      -0.00340672
C        7.44203760       5.67924964       3.56405642       0.00415887      -0.00079367      -0.00066091
C        6.18236244       7.80856249       3.73393031       0.00053363      -0.00066357       0.00951023
C        4.96746342       9.97007902       3.74140977      -0.00698250       0.00003393       0.00142165
Re       2.38242632       5.52200136       6.00801496      -0.00623826       0.00059319       0.01432672
O        2.39957296       6.68114959       7.26221706       0.00109575      -0.00485643       0.01264343
O        1.90896670       3.73105706       6.30894519      -0.00251557       0.00440402      -0.01128231
H        1.15473404       3.59211690       6.90601842       0.00670322      -0.00491248      -0.00535491
