51
Lattice="12.336457 0.0 0.0 -6.168228499999997 10.683685154694365 0.0 0.0 0.0 15.0" Properties=species:S:1:pos:R:3:initial_magmoms:R:1:forces:R:3 energy=-599599.3615714272 free_energy=-599599.3615714272 stress="1153.4690476727076 1328.541935652541 138.7630541790024 1328.541935652541 883.9038723653533 259.2022434735993 138.7630541790024 259.2022434735993 -506.8219451125436" pbc="T T T"
C       -0.10567295      -3.82456758       4.80450303       0.00000000     335.19688349    -687.74630910    -256.16708828
C       -0.65259794       4.75349964       5.54314017       0.00000000  -71381.13716308   16118.45078500  -34511.18110013
C       -6.06307421      -1.32626971       4.45497044       0.00000000     142.82604089    -629.62774581     374.77156953
C       -2.34389170       9.67080999       5.78129967       0.00000000       6.11670499     -60.24251912      68.65139978
C       -5.50135876      12.44900591      -2.11895446       0.00000000      -2.99077864      -0.28740448       1.90797268
C        0.14306103       4.25119590       1.91698648       0.00000000     535.52475916     231.60877015     925.55438956
C        1.28042448       4.68765676       5.52694180       0.00000000   23394.47560926   71462.79396241 -183382.43065985
C       -0.46069241       7.11197871       7.70242282       0.00000000   -4221.16106686    5973.99222707     560.85846232
C       -0.04347190       6.37047268       5.15326343       0.00000000   -7131.36353211   13783.71020236   -7995.84813432
C       -0.98571810       8.68077328       4.96641269       0.00000000     551.34357401    -470.88524241    -179.33874211
C        0.35104688       1.69026314       1.57217316       0.00000000       7.07758284     -21.11401853     -20.23123817
C        3.95966359       6.69932474      -3.09224754       0.00000000      -9.71189724      16.04677251     -18.73631678
B        1.59698207       3.32250616       9.09893166       0.00000000    4231.77340637   -6802.89025613   30415.94092849
C       -0.20701659       4.21504308       4.95144883       0.00000000  -65785.76334882   -3412.93779091  -62463.28774372
C        8.88937673      -2.49803151      -1.59174345       0.00000000      -1.21142394      -5.87191429       3.44940830
C        6.33448854       2.04168532       1.30008906       0.00000000       1.37526316      -1.44685683      -0.26760740
C        4.84516024       6.01819442       6.82593922       0.00000000   28330.04153160    9068.72877752     589.27290828
C        4.53359933       7.24913140       6.04016585       0.00000000    3434.01783460    5065.86980388   -3141.70300547
C        4.86628917       8.71745938       7.14290768       0.00000000     176.20468569       2.07488130     448.13180803
C       14.66798049       2.60758985       6.08929925       0.00000000   32809.32960107  -23847.60697546   -9957.30265262
C       10.39555449       3.99224314       8.08283547       0.00000000   -1648.92965086   -1536.17434296    -576.92048699
C       11.28487269      13.50634328       5.94800925       0.00000000    2142.06527367    -700.93792503    -571.21093608
C        3.01127652       5.27310709       9.21260442       0.00000000  -11419.48411385    -614.88465174       0.09289856
C        1.98489256       4.64257993       1.95208256       0.00000000    -201.95687060     -80.18054144    1036.78078957
C       -6.51918307       8.03840075      -5.14035058       0.00000000     -22.81254492      -1.08291970    -116.65533632
C       -1.02461812       7.11289545       6.26106333       0.00000000   -5826.06408064    6584.12221659      87.60579613
C        3.93703663       7.93496509       1.12404612       0.00000000      -3.27290358      -2.11261510       1.64797711
C       -2.29129092       3.74275943       4.59929105       0.00000000     989.95583838      77.03703734     887.44371020
C       -7.85417217       5.00867901      -1.39421883       0.00000000      -1.59414218       4.44763966       9.90491878
C        0.22135347      -5.11212283       5.21722712       0.00000000    -225.10913594     -44.67321524    -362.40717429
O        2.19528571       4.48839669       5.98163532       0.00000000  516239.30204131  171207.32434248 -256418.12203204
C       -3.74488174       6.13181259      12.72409717       0.00000000       1.07191154       4.74168656      11.95033796
C       -2.93233235       3.97901850       2.20586989       0.00000000     -73.34859815       9.39314160    -111.71604036
C      -10.26986924      10.09205583       1.93645406       0.00000000       1.82127075      -0.52077160      -0.67609590
C       10.93950037       3.97535856      -6.09788528       0.00000000   -6730.34148729   -2488.99179403    2115.19493407
P        1.68545221       1.98427856      -6.47613030       0.00000000    4329.76822144  -52671.99114528   26966.66349672
C        8.91008789       6.12297304      -0.33895264       0.00000000       0.80282056       4.27688398      -6.73603762
C       -3.08147447       7.50170207      -0.85494512       0.00000000      -2.52582658      -7.74225854      -1.57556904
C        3.71172429       1.86608912       3.16643590       0.00000000    -590.64112195     921.93108186    1029.95128433
C        8.81077459       3.00318394      -1.86165546       0.00000000      -3.06845945      -1.43360431       5.93286400
C        5.76247682      14.15317755       4.97873687       0.00000000  -42534.75341815  -40186.59847328  -35858.89654666
C        8.27537188      -3.70099045      -0.19135183       0.00000000       0.38991952       4.74230918      -7.80184317
C        4.67687570      10.40024215       5.44701291       0.00000000     -11.28110551      50.06858018      19.94052003
C       11.24928960      -1.08793448       4.94968292       0.00000000      13.12136461     -31.39997824      67.04020047
C       11.38044114      -3.08380790       6.74264107       0.00000000    1062.57059102     228.28673832     -48.92914795
C        1.16695655      11.64421243      11.27858835       0.00000000      -2.12392483      -4.39251539       4.23700833
C        5.10793014       9.52636287       7.57448601       0.00000000    -133.90884622    1301.40179161     570.46291836
C        8.16104703       6.29518917       3.02618852       0.00000000      28.45360820       7.55963743     -27.34376609
Re       1.85622568       4.85350861       6.91411239       0.00000000 -10287038.83255217 -8567691.80901023 -1685384.55907560
O        3.01379187       3.80649247       8.94200401       1.00000000   45551.09548579  -51431.44715283   83103.89360562
O        1.54401359       4.60815548       6.90277670       1.00000000 9840687.66616964 8451308.42067900 2132112.76226975
