51
Lattice="12.336457 0.0 0.0 -6.168228499999997 10.683685154694365 0.0 0.0 0.0 15.0" Properties=species:S:1:pos:R:3:initial_magmoms:R:1:forces:R:3 energy=-748145.2572716279 free_energy=-748145.2572716279 stress="420.6158528083936 -74.96059523130889 -529.3377748010672 -74.96059523130889 282.0986150472179 -314.83488119500515 -529.3377748010672 -314.83488119500515 1829.5022488480083" pbc="T T T"
C       -2.30727853      -1.21946993       4.94087082       0.00000000   -7724.82948772   11805.83846447   12087.74702193
C        4.97235032      -7.93424301       3.54981727       0.00000000    -206.42919627    -508.24218243     166.67499350
C       -5.30576006       9.44429038       6.96589470       0.00000000    -316.95836898     -67.20967380      -1.34776813
C       -0.00150418       5.30380496       2.05358408       0.00000000     875.41517879     495.29567287    1433.99245889
C       -2.40802873      14.86336967       1.81562096       0.00000000   -1181.87158847     895.09657947    2548.09847107
C        4.72502336      -3.17645140       2.12621084       0.00000000    1559.03815084     366.94833813    1086.40111831
C        3.62796186      11.06529321       0.87600952       0.00000000   -6763.90760899   -8771.48856914    5543.99970545
C        3.63400136       3.89838189       4.63301177       0.00000000   -3239.29348356   16178.81358975     -93.17644654
C        0.95825418       6.81365875       5.23382533       0.00000000   28795.08275236    1466.14953071    7656.73226670
C        0.07427613       6.67118939       4.28318124       0.00000000   39067.95606221   11824.85209824   -8664.49986803
C        5.61960332      -2.38713429       5.95529920       0.00000000    -573.82453399    -582.07347072   -1504.81997078
C       -0.86030475       3.55881040       2.32968605       0.00000000     334.09397567     643.71515928    -179.15319314
C       -0.97684431       7.49149871      -1.07957334       0.00000000     250.45231034     115.64263297     252.37382475
C        2.30631222       8.44211793       3.07926184       0.00000000 -608866.35176157   35860.10068305 -195294.16303823
C        8.74359815      -2.79002909       7.73660081       0.00000000    3532.66392522    2843.52965191   -7043.64937696
C        8.72945776       1.59516828       1.93478388       0.00000000   12852.84494140    6843.16262505    5755.26717853
C       -1.94538655       1.00757897       0.77493453       0.00000000   -2502.18763305   -1586.59168880    -348.74444249
B        2.92882425       6.75335019       5.07106971       0.00000000 -2659458.94423005 -1758739.49823746 -2274993.66328767
C       -0.53950470      11.67870434       3.47080310       0.00000000    1036.28921312   -1045.16613048    -329.48202364
C       11.28482496       3.83959992      -4.61182081       0.00000000       0.09548669       0.08097479      -0.01176829
C        8.25319537       1.48417678       1.61959972       0.00000000  -11862.40751778   -2497.55495800   -9684.92037074
C        4.50029924       9.46204445       7.16607900       0.00000000    -311.18649918    -201.43494915   -2831.40597152
C        4.63467397       9.15476897       4.50482377       0.00000000   17655.21505105   33794.00322939   15154.93941253
C        2.37664595       9.13541570       2.96518553       0.00000000  141024.60589672 -120994.47062116 -122817.80669986
C        1.89232196       1.38061927      -1.01897536       0.00000000      -6.77493211      -6.44942192     -11.36869980
C       -2.10977099       1.03628629       3.41924102       0.00000000    -344.98447801   -1713.22129970      15.40605490
C        1.24291777       7.92010479       3.97511183       0.00000000  -77339.38406345  -26485.33855076   53485.24213065
C       -4.94841364       3.98058119       6.47567473       0.00000000    -393.44862483      70.20860910    -246.16793468
C       -9.43941327       9.56826783       6.33061973       0.00000000     494.88147300  -11653.20654152  -13857.72415493
C        5.13339715      -1.66364020       5.54844937       0.00000000    2136.87757282   -2535.27207840   -1951.38410331
N       -2.73188302      -2.45593911       6.58522340       0.00000000    6013.31716815   13149.52263888   -1762.93755994
C        2.63490748       2.25135685       7.33034254       0.00000000       7.53242544    -130.57113858      -3.27854502
C        2.70781452      13.34098163       1.12276241       0.00000000    -264.93387547   -1501.89546244     908.73313071
C       -6.51048901       4.48776396       5.08265667       0.00000000   -6758.16447567    5675.29656974    -815.30946924
C        7.07124342      -0.20044368       1.13542788       0.00000000    8131.42049965  -21486.29272201   25843.54807245
C        1.14543480       2.41312680       4.85075544       0.00000000     167.42275960     373.62064743      37.68554219
C        2.54038311       8.22442631       3.05961372       0.00000000  385906.35957682  -31193.28743256  439669.36779549
C        0.30416523       8.01712811       4.13756641       0.00000000   66112.89384755    -473.11435018   -2483.78181461
C        7.68000968      -0.39997161       4.43312856       0.00000000   29438.42169459  -52517.38449152  -27006.82921329
C        6.48512056      -0.70999625      13.50200560       0.00000000     242.84258232    -153.47639555     356.12690682
C        5.50894955       7.35643544      10.82937825       0.00000000      -9.41079533      10.88056762     -40.11681917
C        1.71737831       9.25557178       2.23891919       0.00000000  -49959.83768270  -11396.89751680   36492.23927512
C        1.68371183       8.85917901       2.02602254       0.00000000  -30840.64619050  -40439.36181522  118355.97476342
C       13.15844131      -2.45633585       0.25411601       0.00000000     506.78315511     233.53367597    -590.58354560
C        5.71738758       5.92550915       5.08255761       0.00000000   -8905.57258789     722.57611419    4813.94145240
C        5.20774134       8.13686132       7.72730929       0.00000000     547.26529507    -967.34723660   -1675.42852309
C        4.34249865      15.43475947      -0.11136532       0.00000000     -39.31269572       6.95015084     -57.25576683
C        2.37932636       9.25208860       1.76313887       0.00000000  206370.95053467   57320.31215160  -14273.13114742
Re       3.47622317       7.01941427       3.72659561       0.00000000 -2022831.91140141 -1035160.67268919 5218365.34197548
O        2.94041732       6.75887031       5.00251395       1.00000000 3398143.55275656 1902948.17777280 1206943.89668124
O        3.29241835       7.01403806       4.09628724       1.00000000 1149498.29942694 1029163.21149583 -4468411.58870960
