51
Lattice="12.336457 0.0 0.0 -6.168228499999997 10.683685154694365 0.0 0.0 0.0 15.0" Properties=species:S:1:pos:R:3:initial_magmoms:R:1:forces:R:3 energy=-1578722.7525747763 free_energy=-1578722.7525747763 stress="7951.901302597344 193.87005520256642 171.83903540962658 193.87005520256642 37.962461362305895 173.4590800269309 171.83903540962658 173.4590800269309 -116.54010713585832" pbc="T T T"
C       -1.37493395       3.14046160       3.74432945       0.00000000  -69400.11710253  -34152.78534155   33096.97644470
C       -3.69335741       6.63308637       5.92097981       0.00000000   -3908.28335849   -3773.24845463    -431.46191756
C       -1.46667455       5.95289126       8.37049212       0.00000000    1058.14866250    1285.39003617     672.79300750
C       -4.46322304       3.90291202       5.70942448       0.00000000 -521164.36606601   49739.03060064 -242425.60034235
C        0.96257019      13.72146396       9.64296870       0.00000000    3700.09924192     788.39279313  -34208.59126907
C        3.04447769      -2.57532311       0.95460287       0.00000000     -74.37813608     258.71534037    -298.51933461
C       -4.03090978      -1.13575749      -7.18076745       0.00000000     217.88889247   -2015.94650760     374.62656243
C        0.11227627       7.06081441       0.83500437       0.00000000    -143.21774935     735.62951861     482.99360084
C       -2.21043092       5.75406797       1.52445165       0.00000000    4059.34364698      99.50958506   -1121.16584853
C       -1.71522966       6.61066227       1.64840235       0.00000000   55524.48832845   13357.31836886  -20075.43691168
C        6.22342089      -1.96490583      -9.53715215       0.00000000    -202.93228213    -103.02288220    -193.61440557
C        8.80055597       2.97163140       0.39193487       0.00000000      -0.10594879      -2.15051921      61.51242164
C       -2.35329450       8.13560138      10.53558138       0.00000000     -10.00195279     -49.46421942     -37.87543326
C       -5.06030380       9.95785847       4.58398481       0.00000000      30.39869547      45.14840034     -44.50801715
C        6.60963810      -2.99857101       1.07511493       0.00000000    1020.59344709    -951.13083235    -536.70652301
C       -5.06550201       1.25366340       4.41053900       0.00000000  -11981.73523831    7113.11883199  -21725.01717707
C        7.46634024       3.10986010       7.68052849       0.00000000  -60121.14236835  -20050.81786872  131348.48540468
N       13.33956280       7.69706655      15.02034579       0.00000000    -959.93525503    -136.55921950    1174.09337419
C       -2.19180968       9.52967551       5.33432242       0.00000000      30.59748513    -363.72231314    -161.77604480
C        9.65684572       2.42612039       4.97816146       0.00000000   13639.54488380  -20700.85931281  -30360.51594181
C       13.87176602      -0.15081397       6.41750272       0.00000000     -36.91092399      -6.49785056      -3.53226062
C        6.99943720       1.37333568       3.82982904       0.00000000   10360.41977236   -6527.25580549   23026.88297778
C       12.13631946       6.91059226      -4.83428909       0.00000000     -60.66034532     -38.78693643     -65.67583594
C        0.14217655      15.70256815      -5.09796606       0.00000000    2398.77813663    1399.99125085   -4160.19208941
C        0.33780424       3.41829714       4.20501140       0.00000000    2380.30508168     507.49501107     -19.39687241
C       -1.11922628       6.55453164       5.60675122       0.00000000    1333.53609884    1636.32879823   -1346.80864663
C       -1.18826480       6.81540399       2.83256914       0.00000000     381.52611503   -1254.41573986   -1440.06720863
C       -3.07682191       6.17032249       1.71109835       0.00000000    2968.70826650     509.31211603     633.63383065
C       -3.15704983       6.69883289       5.27796590       0.00000000   -1772.89201370   -2945.20143316    -996.19900025
C       -1.97014740       2.57840222       5.95538508       0.00000000   61595.40215022  -48977.95683860  -34328.47000445
B        1.40012572       3.49174974      17.07218818       0.00000000    -253.92259130      21.46865960     136.91447871
C       -0.01139197       7.89707365       0.63215596       0.00000000    -773.85542019      36.82628822    -918.60285414
C       -2.09171345       6.47856171       1.79479953       0.00000000  -63430.87724779  -15775.91724039   20345.54787852
C       -9.93981871      10.04480591       2.59194141       0.00000000     -97.14155479     146.18286765     105.60199205
C       -6.61532202       0.48647515      11.87826469       0.00000000      36.62315635      57.06547490     -61.54451594
B        7.83741857       2.02958298       7.28637344       0.00000000 -143773.95775523  -23823.41151888   21478.17711311
C        3.80392112       2.98415078      -5.68198564       0.00000000    2188.18901937     469.90316808   -1580.85972324
C       -1.35640231       8.08300148       3.47874263       0.00000000  -15741.98994619   -4861.51855641   35409.09812912
C        7.79583315       3.14885335       0.84798822       0.00000000      31.33539865      41.68950868     195.31064940
C        5.03555048      -2.49746177       3.06300936       0.00000000   16596.85520186    7569.69231291  -32336.84262730
C        8.05278036       3.76034181       6.81646727       0.00000000 -35136674.11968434 -662371.41577432  -80972.78123184
C        6.55834420       8.47839540       5.89896905       0.00000000     -15.43265513    -350.66019548      52.02084939
C        5.17607094      14.01874156       3.51517163       0.00000000   75966.05792969   34658.78654232  -44086.50456289
C       15.20610067      -2.08891973       1.64671021       0.00000000     194.85330355     -80.87996346     326.10800807
C        8.50977150       4.34544896       5.15762810       0.00000000 -292703.77470564   37090.44740726  -58331.63690789
C       -4.74616906      -5.21008755      -5.67953414       0.00000000     -32.45893829      -0.20429362      -9.75822075
C        4.93746337      13.65036119       0.25778731       0.00000000     -19.21420830      -8.40054719      39.38714028
C        4.85197923      12.19685314       7.13535902       0.00000000    2463.99046464   -1683.11371612    -305.62101456
Re       7.60981347       3.75060160       6.78326909       0.00000000 36054575.65308245  855537.24011261  505144.54161302
O       10.87722993       8.81985972      11.81457623       1.00000000      -6.60006240      -0.19705607     -10.02547730
O        7.41857959       5.23864416       8.38820392       1.00000000   10606.68704883 -162099.14205642 -161509.39725541
