52
Lattice="12.336457 0.0 0.0 -6.168228499999997 10.683685154694365 0.0 0.0 0.0 15.0" Properties=species:S:1:pos:R:3:initial_magmoms:R:1:forces:R:3 energy=-703627.2993485549 free_energy=-703627.2993485549 stress="273.0760666602889 -108.9966476907915 -82.39159554497122 -108.9966476907915 957.1333918908376 393.8817495174953 -82.39159554497122 393.8817495174953 536.251086609789" pbc="T T T"
C        4.08707770       3.19644675       2.52946391       0.00000000      64.11659182    2096.05446464    7021.19630770
C       -5.33393640       0.79166771       1.60298312       0.00000000  -15615.78970626   57591.28778743   53564.87556145
C       -3.75162413       6.39620800       6.72609242       0.00000000   -1269.57803067     505.89001497    -190.16338314
C       -5.99520946       7.46926227       0.61293307       0.00000000      -5.57718373     -19.74326008       7.44147607
C       -6.82635618      10.32532946      11.01445641       0.00000000    5270.47050376  -10661.02590104   -5495.28257609
C        4.68250802       0.69462220       5.07182305       0.00000000    9369.64931766   37551.47572551  -17319.69024297
C        3.15784996       4.56486863       4.57683268       0.00000000   11898.61383292   13865.83790903   22372.39052252
C       -8.50704926       9.82216601      -6.42139334       0.00000000      20.04092320      -0.49187696      14.05372679
C       -4.09037944      -3.79622895       8.35137973       0.00000000    -567.59894666     628.53709634     332.01607583
C       -3.56137357      10.20811089       4.68598313       0.00000000    3490.20700048    1853.73404954     604.14296824
C        4.90568800       0.14194708      -3.24289197       0.00000000       8.00993151     -35.18048037      99.25704090
C        5.64038404      -2.87648160      10.10446650       0.00000000      -5.36267733      -1.00056537      19.99481421
B        6.54234493       1.69395146       3.21896955       0.00000000 -345961.03587732  924867.29713744  576004.86226293
N        5.29622513      10.75802884      -3.77567128       0.00000000   -5288.95647873   10567.00040460    5336.94641050
C        5.91492722       9.92033519      11.79415548       0.00000000      17.84721507      82.63535425     145.19308525
C        8.47269871       0.29633861       4.32575583       0.00000000   -3850.15856973    2331.92693342   -6981.96050678
C        6.70718755       0.03352011       4.48333576       0.00000000  -13163.69687897    4232.96050994   14531.36909566
C       10.65429118       2.15670894       2.04606119       0.00000000    -529.86188706     -86.34743393     176.47268579
O        6.87910475       6.36500599       6.66846101       0.00000000    1164.02649032    2962.26759069    1983.50808226
C        4.93360496       3.64632825       4.65895270       0.00000000  -10802.18301418  107341.98673824  236397.07915389
C        2.47719412       8.90642353      -2.58052224       0.00000000      -3.75019144      22.66182330      29.04684459
C        9.81564108       2.57633981      11.59447938       0.00000000      15.59703544     -13.73339432       4.97693955
C        6.79342478       1.07988855       3.31158656       0.00000000 -134047.36806226  166243.72438134   28398.80679842
C        1.96407466      10.98188353       2.31939441       0.00000000   -6170.53489941   -6446.91324807    2813.37807411
C        2.75533990       4.94155442       9.89162520       0.00000000    -472.88506501      79.21885462     544.90320589
C       -2.08648764       5.38395949       1.27409373       0.00000000    -174.96611455     -33.89368196     -68.17376747
C      -11.66000353       4.61342589       4.14671061       0.00000000    1400.11826467   -1097.98367593     570.21663953
C        0.77648714       5.91365747       4.66774677       0.00000000    -792.87373372     139.59895475    1011.12571587
C       -4.08825936       7.94266528       5.02529713       0.00000000      41.82130230      71.90572551      35.58819814
C       -0.71943638       7.86808334       9.02738619       0.00000000      -9.29389776      -5.58703206     -14.66896400
C        3.60169344       1.18134911       4.50249123       0.00000000   35361.56222835   26337.80682111   23609.70412829
C       -0.19627600      -6.95970722       1.46934045       0.00000000     672.13839414    1238.10505388   -3072.25806058
C        4.68199592      15.99623020       1.70708808       0.00000000     132.48584495     -20.93300109      93.58004479
C        4.01088210       5.38040948       5.38269241       0.00000000    1076.14064403   -8619.10750264    6021.15478642
C       -1.95675061       3.68579451      12.58356264       0.00000000      -3.94273123      -2.65229541      -3.70687217
C        4.21211843      -3.46593815       6.62008262       0.00000000    -125.62435474     -22.14811110      -3.56845777
C        3.62008527       9.34976561      -4.45640897       0.00000000     -19.56754328      26.31022332       7.43496606
C        0.49897290       6.55292521       1.43163781       0.00000000      64.65044646      -5.33400828      52.27794149
C        0.95487465      10.78742876       1.94673769       0.00000000   27214.57584194  -47894.05728515  -16630.03388258
C        7.69305273       2.33015628       6.52019068       0.00000000   -6305.69372870    3784.08996034    2329.69687304
C        6.38058475       1.93471734       3.45174702       0.00000000  318224.75424638 -1179410.57506778 -476834.53443024
C       -0.00239535       7.94096817      -9.40577286       0.00000000      -7.71468687     741.22244750    -355.55813191
C        1.44506365       9.30192113      -6.80459632       0.00000000      25.62838583      -0.59045467    -288.36149912
C        0.32008405       8.69688574      -1.46976628       0.00000000      11.44582861      48.75596409      67.07843798
C        5.88104622       5.32589425       7.14760744       0.00000000  -20739.57019969   -5275.96285287  -10178.20649074
C        6.76149236      13.51084068       7.43586542       0.00000000    1270.79600100     392.46191539    -310.88043424
C        5.86611899       1.70573355       4.32855008       0.00000000  168856.94417003  248383.98893792  242203.99993326
C        5.86724563       1.83356156       4.64130056       0.00000000 -100200.28472951 -158640.95760761 -417810.84490450
C        9.70026011      14.76897262       4.83084821       0.00000000   56429.10525157    7920.27003323   53514.33327281
Re       4.71472284       3.08081228       6.08982621       0.00000000  139170.52661056 2690931.81244633 1136277.06491358
O        5.08223405       2.50498708       6.88556963       1.00000000  -39749.69902718  383088.45389535  255883.60889833
O        4.74138083       3.44448284       6.25866881       1.00000000  -75387.70408703 -3277635.06041733 -1716520.88327781
