51
Lattice="12.336457 0.0 0.0 -6.168228499999997 10.683685154694365 0.0 0.0 0.0 15.0" Properties=species:S:1:pos:R:3:initial_magmoms:R:1:forces:R:3 energy=-448.82074183310345 free_energy=-448.82074183310345 stress="-0.004275738832727411 0.00017125132437153788 -7.09884824122627e-06 0.00017125132437153788 -0.008085862836986325 5.1203077440973906e-05 -7.09884824122627e-06 5.1203077440973906e-05 -2.689143565879173e-05" pbc="T T T"
C        0.00125476       0.12388792       3.55563977       0.00000000       0.00573233      -0.00391262       0.02758764
C       -1.23048675       2.26036105       3.62752929       0.00000000      -0.00021529       0.00355424      -0.00372772
C       -2.46784225       4.40479287       3.46399213       0.00000000       0.00349919       0.00363316      -0.00362234
C       -3.70230548       6.53431155       3.41905665       0.00000000      -0.01438929      -0.01211167      -0.00479211
C       -4.93934171       8.65972283       3.47321890       0.00000000       0.00317526       0.01072018      -0.00645909
C        2.46709850       0.08680907       3.56673173       0.00000000      -0.00293503       0.00538631      -0.00405732
C        1.21908987       2.17722672       4.16374771       0.00000000       0.00064267      -0.00193863       0.03335535
C       -0.10167675       4.41182120       4.06039363       0.00000000       0.01285160       0.00343714      -0.01636978
C       -1.24260124       6.54387500       3.63312808       0.00000000       0.01053190      -0.00878302      -0.00052586
C       -2.46485068       8.66426760       3.40686946       0.00000000      -0.00018962       0.00650749       0.01016000
C        4.94408281       0.12330408       3.44962525       0.00000000       0.01285686       0.00438280       0.00526876
C        3.74899242       2.15729072       4.10649061       0.00000000      -0.01565955      -0.01589154       0.00231353
P        1.23184114       6.67312231       4.87431228       0.00000000      -0.01260179       0.00125678      -0.02999254
C       -0.00556793       8.69434346       3.53352088       0.00000000       0.01922353      -0.01711452       0.01811327
C        7.40671876       0.14670395       3.32877084       0.00000000      -0.01949721      -0.00487448       0.00411265
C        6.18418332       2.26347220       3.59192234       0.00000000       0.00418653      -0.01158948       0.01087893
C        5.04934874       4.39281957       4.17784323       0.00000000      -0.01290051      -0.01301339      -0.01255398
P        3.63967661       6.61094494       4.87252785       0.00000000       0.00445454       0.02429885      -0.00992066
C        2.47014568       8.74182706       3.64961413       0.00000000       0.00145950       0.01847785      -0.00002037
C        9.88451193       0.14446844       3.37901746       0.00000000      -0.00842459      -0.00228783       0.01958962
C        8.64780030       2.27262131       3.37286887       0.00000000      -0.01832528       0.01143720      -0.02172076
C        7.41293662       4.39983717       3.51356110       0.00000000      -0.00414863       0.00178700       0.00567033
C        6.18251586       6.54043196       3.74143172       0.00000000       0.01423520       0.01807965      -0.01344357
C        4.94193273       8.68648919       3.63122529       0.00000000       0.00446361       0.00022759       0.04498675
C       -0.01009409       1.52657343       3.76064951       0.00000000       0.00840883       0.00130202       0.01041293
C       -1.25057408       3.69293358       3.69101226       0.00000000       0.01076615       0.00678937      -0.01042258
C       -2.46687174       5.82589055       3.45690370       0.00000000      -0.00703171      -0.00363530       0.02878852
C       -3.70275587       7.95641663       3.41575844       0.00000000      -0.00825648      -0.00637070      -0.02647546
C       -4.93559938      10.08233189       3.52089903       0.00000000       0.00155580       0.00594682      -0.01057435
C        2.47011076       1.47685256       3.95917891       0.00000000      -0.00773394      -0.02067652       0.00790201
B        0.98233020       3.59502580       4.75887971       0.00000000      -0.00895751       0.00952853      -0.00239294
C       -0.08079589       5.81647879       4.03137552       0.00000000       0.01371030       0.00315563       0.01610685
C       -1.23331796       7.96431270       3.52032951       0.00000000       0.01001195      -0.00760978       0.00334723
C       -2.46456791      10.08609088       3.45349495       0.00000000       0.00638476       0.01586390       0.00029914
C        4.97020936       1.52320488       3.66090409       0.00000000      -0.00278476       0.00369398      -0.00019698
B        3.93651170       3.55264807       4.72612695       0.00000000      -0.03043988      -0.01608813       0.00422869
C        1.23006589       8.06374384       3.83774903       0.00000000       0.02419013      -0.00272883      -0.00061550
C        0.00578280      10.10975888       3.37309644       0.00000000       0.00052765      -0.01982475      -0.01634704
C        7.41038938       1.56591850       3.37724637       0.00000000      -0.01164794      -0.00644597      -0.01747837
C        6.20561525       3.68060623       3.74715022       0.00000000       0.00491820      -0.01225897      -0.00212295
C        5.02257374       5.81469308       4.13497672       0.00000000       0.03045228       0.00384605       0.01734225
C        3.69709103       8.05075532       3.89489338       0.00000000      -0.00958588       0.00415597       0.00184545
C        2.47688372      10.12917725       3.36596109       0.00000000      -0.01700564       0.01126073       0.00450635
C        9.88733669       1.56462835       3.41125400       0.00000000      -0.01138026       0.00735038      -0.03277733
C        8.64253998       3.69255786       3.40368092       0.00000000      -0.00459759       0.01448010       0.00533081
C        7.40615698       5.82407409       3.52770652       0.00000000      -0.00867869      -0.00092778      -0.00158069
C        6.16820521       7.95867497       3.62121394       0.00000000       0.00980960       0.01702762       0.00207364
C        4.94115294      10.10598425       3.47147677       0.00000000       0.00474592      -0.00959251      -0.01149003
Re       2.58419251       2.47547922       5.79677944       0.00000000       0.00769531       0.04498155      -0.34628696
O        3.20468471       1.63277050       7.18740857       1.00000000      -0.00346366      -0.04334707       0.03243844
O        1.38130797       3.92649011       6.05857843       1.00000000       0.01036114      -0.02154542       0.28930813
