53
Lattice="12.336457 0.0 0.0 -6.168228499999997 10.683685154694365 0.0 0.0 0.0 15.0" Properties=species:S:1:pos:R:3:forces:R:3 energy=-464.97182602872493 free_energy=-464.97182602872493 stress="-0.00667432671501386 0.0007681850006608501 -1.717197982204136e-05 0.0007681850006608501 -0.004517705226384865 2.8240956876179635e-05 -1.717197982204136e-05 2.8240956876179635e-05 -3.786470011563102e-05" pbc="T T T"
C        0.05656914       0.05991574       3.68321451       0.00461165      -0.00212840       0.00051111
C       -1.18083636       2.19030214       3.62585999      -0.00232583       0.00362608      -0.00953628
C       -2.41857979       4.32674589       3.51209713      -0.00103437      -0.00193311      -0.00829026
C       -3.65699581       6.47071305       3.50799176      -0.00269883       0.00303347      -0.00328903
C       -4.89272728       8.60287950       3.66106431       0.00206421      -0.00219835      -0.01211052
C        2.52139423       0.06578735       3.66721501       0.00549006       0.00203812      -0.00963101
C        1.28429279       2.17274483       3.87010107       0.00527815       0.00426239      -0.01266842
C        0.00741739       4.33303082       3.87686893       0.00231619       0.00066648       0.00424379
C       -1.22513856       6.48769876       3.56449169      -0.00758368      -0.00407411       0.00684767
C       -2.42561096       8.61499622       3.52897622      -0.00432318      -0.00001532      -0.00389478
C        4.99244923       0.05153952       3.54950806      -0.00523180       0.00008653       0.00353563
C        3.78732926       2.17979861       3.82603651      -0.00340539      -0.00097107      -0.00660821
B        2.62437878       4.25118207       4.50082182      -0.00100383      -0.00630303       0.00464713
C        1.19032195       6.54572258       4.14387201       0.00562760      -0.00498221      -0.00091019
C        0.05206212       8.60538080       3.63442618       0.00222808       0.00625702      -0.00192397
C        7.46226323       0.04629817       3.52940719       0.00011202       0.00461539      -0.00204995
C        6.24165643       2.17425401       3.53968494      -0.00217305      -0.00136282      -0.00630408
C        5.06802735       4.29212136       3.93188961      -0.00631661      -0.00020383      -0.00548405
S        3.76997856       6.44242602       4.91246727      -0.00330641       0.01681737       0.00749678
C        2.52340791       8.62567492       3.88404359       0.00373732      -0.00048037      -0.00122686
C        9.93041768       0.05332389       3.61530489      -0.00524814       0.00133817      -0.00378699
C        8.70068478       2.18381653       3.46490722      -0.00448765       0.00408140       0.00394542
C        7.47410799       4.32407955       3.51725841       0.00668514       0.00342230       0.00679551
C        6.24184040       6.46277502       3.82370653       0.00202709      -0.00192993       0.00268603
C        4.99466322       8.60841097       3.87862445       0.00165798      -0.00731287       0.00922935
C        0.05633202       1.48063650       3.71992530       0.00231636       0.00362219       0.00197959
C       -1.20722249       3.60570967       3.61958635       0.00025420       0.00257901       0.00235283
C       -2.43071884       5.75793249       3.50466426      -0.00890524      -0.00377063      -0.01293245
C       -3.65730939       7.89667533       3.55084163      -0.00066872      -0.00048020       0.01234404
C       -4.88180782      10.03354137       3.67113343       0.00884887      -0.00214894      -0.00250460
C        2.52778699       1.48406201       3.80773947       0.00357964       0.00050896       0.00491544
C        1.23925071       3.60047179       4.10917578       0.00335040       0.00020987      -0.00679118
C       -0.01100088       5.78023825       3.86229025       0.00641027      -0.00225826      -0.00284194
C       -1.19236582       7.90244285       3.55671884      -0.00390043      -0.00058878       0.00551616
C       -2.41725561      10.03534160       3.57525218      -0.00200822      -0.00093139      -0.00710945
C        5.00623631       1.46750572       3.61341480      -0.00446480      -0.00207436       0.00229859
C        3.86437513       3.57428635       4.07227752      -0.00730295      -0.00082390      -0.00484743
C        1.28321865       7.90403936       3.86600899       0.00503053       0.00285226       0.00616514
C        0.05813809      10.02119166       3.54437303      -0.00102657       0.00800209      -0.00055180
C        7.46945096       1.46596547       3.47585170      -0.00135444       0.00263995      -0.00981708
C        6.26352571       3.59635019       3.61617675       0.00309151       0.00053904       0.00258965
C        5.10246859       5.69815368       4.12384257      -0.00325701       0.00145232       0.00049878
C        3.75526801       7.97506432       4.12924947      -0.00011631      -0.00473593       0.00771251
C        2.52842189      10.02569531       3.63971703      -0.00252204      -0.00026280       0.00010572
C        9.93079237       1.47505522       3.53635644      -0.00736546       0.00474608      -0.00033841
C        8.69838560       3.60909665       3.45613749       0.00181195       0.00032764       0.00142866
C        7.46273682       5.74880739       3.58200933       0.00396117       0.00253386       0.00498525
C        6.21930855       7.88857827       3.81776653       0.00303366      -0.00301526       0.00260213
C        4.99176288      10.03132999       3.70235549      -0.00241866      -0.00388900       0.01060631
Re       1.08323113       5.12239604       5.47153188       0.00613920      -0.01020533       0.01016927
O        0.99616388       5.48919859       7.30761676       0.00700532      -0.00131411       0.00648919
O        0.91911242       3.96496482       7.74389602      -0.00542618      -0.01192944      -0.01158247
H        1.76471437       3.97111971       8.23821677       0.00320721       0.00206575       0.01433374
