51
Lattice="12.336457 0.0 0.0 -6.168228499999997 10.683685154694365 0.0 0.0 0.0 15.0" Properties=species:S:1:pos:R:3:initial_magmoms:R:1:forces:R:3 energy=-643357.0966575035 free_energy=-643357.0966575035 stress="975.6543894172175 172.77955756232555 -409.0458782081791 172.77955756232555 342.49436363647686 136.7547096917324 -409.0458782081791 136.7547096917324 1321.04042467976" pbc="T T T"
C        2.70248839       5.04921677       8.41403404       0.00000000       2.63181624      -8.81156765     -32.61373363
C      -11.97559972      -5.05345119       5.73129654       0.00000000    -354.23437054    -318.02788654   -1297.57085816
C       -5.44748915       5.10146886       4.07277117       0.00000000   -7301.35410490     861.64002398   -1459.45481387
C       -3.73400598       4.19562908      19.55680142       0.00000000      79.15524486     157.09329432     484.73141361
C       -7.05755901       6.08718035      -1.52204159       0.00000000  -26008.53231011   -7386.43531724   26648.28929933
C        2.61590056       4.53235492       6.41855776       0.00000000      12.28599971     -21.87813906      -0.15572368
C       -3.44927433      -0.03591601      11.04531400       0.00000000      14.85415367     -19.55524034      -3.74841572
C        1.52038470       4.14862696       2.04518429       0.00000000   20180.50653091   50042.34052466  -74078.59223507
C        1.31417507       3.88319792       0.74557904       0.00000000  -26369.82745540   54393.26097155    -131.79663862
C       -5.99859271       7.08142720       3.15875473       0.00000000    1014.04505867    5086.55894123    3122.44848932
C        6.85361507       2.92096190       4.17080074       0.00000000   -1108.20761031    -413.24353623    1243.69427445
C        2.77573810       0.82695164       2.40479339       0.00000000    -246.95272593   -1680.33012095     840.81189921
B        2.53996724       5.16620452      -0.34961120       0.00000000  281829.63293647  964447.68329601 2135645.76413663
C        4.27888211      12.46013258       0.23240857       0.00000000     -15.06171379      34.67549512      32.10196834
C        8.80290596      -1.76443828      -2.09087614       0.00000000     184.33663211   -3759.42695382    2319.82233073
C        6.42225116      -4.86897845       1.91497993       0.00000000   67788.57975085   -7898.70651029  -44172.85180699
C        5.08465502       4.84331960       1.86891316       0.00000000  -18860.62483795   16470.46684738  -23968.72031328
O        6.68061105       4.96126440       2.28567058       0.00000000   -5200.48210509    5351.94393589   -8264.17126409
C        2.71449718      -0.95969301      12.74784148       0.00000000     -18.09031545       7.18288103     -14.68065651
C       13.24342839      -0.78421141      10.15199518       0.00000000       2.77808859       1.55437480      -3.85560992
C       12.60550970      -4.23459895       8.80981828       0.00000000       0.28704981      -2.87754764     -22.17964223
C        8.40692280       5.61273043       2.66718518       0.00000000     998.50103359    1710.71818265     214.63195563
C        5.43500980       9.96796133      -1.75407415       0.00000000     996.84427019    1383.18286627    -563.40659879
C        6.98801761      12.25621365       3.33051150       0.00000000    -417.75619106    -815.92125645     398.49615670
C        4.28533403       3.84513767       2.99211661       0.00000000  -19700.35116745   11204.85593965  -22679.35568419
C       -3.68411109       2.17867120       2.45123634       0.00000000     -93.47238356     459.65294157   -1507.50141647
C       -4.27565574       3.55665839       4.15541250       0.00000000     987.70285349    -655.76767207    1550.76511382
C       -3.94120886      11.75758908      -0.16202068       0.00000000     -54.42554600      95.95483538     118.52711381
C       -8.78556825       7.41171263       3.35137575       0.00000000   -2592.20466739   -7732.29423816  -11845.20280665
C        5.00611671       4.27222370       5.95862496       0.00000000    -382.57280809    -131.81743057   -2028.41650563
O        0.36096243      -1.13192924      13.90572531       0.00000000    -924.10549308    -701.19722123      90.81149978
C        1.56987680       9.52807130       6.96718357       0.00000000      -1.89068386       2.20933973      -0.43723590
C       -6.03342686       5.51912184       1.45318006       0.00000000  -29272.07395354   -2715.88044909   -5469.18064884
C        1.34007575      14.15665405       2.07420605       0.00000000    1359.30389158   -2778.61577833     147.33815695
C        5.34223709      -3.88123090      -0.12611831       0.00000000     722.49105488    1450.56161048    1003.70682755
O        2.39965418       8.04925801       1.62655690       0.00000000   30024.96294823  -59695.98468154  -24045.69433129
C        0.92799209      10.15543943       3.22976497       0.00000000     -80.82192793      91.51345579      83.52686318
C       -5.60690996      18.31443153      10.45296727       0.00000000    -210.52046406     183.80813164    -404.60660946
C        4.96136179       4.14955474       4.14543801       0.00000000    3294.59496914     329.51580600    7581.94555134
C        5.77509680       5.20008721       3.81550519       0.00000000    1179.29650120   -3436.49201208   20218.13162013
C        6.19579064       5.38789820      -1.18875427       0.00000000  -28518.67887915    2064.34348655   12063.29404725
C        5.94947203       5.12532026       3.03445660       0.00000000   18063.86844595     685.73103538  -14747.00476074
C        2.30967060      13.50573164       2.89347257       0.00000000     995.65627906    -455.85493117     590.82938526
C        8.77229597       1.85011344       2.91789599       0.00000000     305.70016497   -1119.81634294     948.88335018
C       10.06775481       8.32404853       1.49333418       0.00000000     142.55419555    -152.10077151       2.40553708
C        8.17843695       5.56433505       1.49088027       0.00000000    5758.97883525    1205.29221553     -87.20541629
C        7.46785316       3.79866844       5.06734546       0.00000000     176.54196670    -362.96463690     767.76970222
C        5.58644852       9.54290391       5.72900806       0.00000000      17.52014975     -68.88875483     -66.33297050
Re       3.28442884       5.59247602       0.20501366       0.00000000 -2417877.31868842  517378.84318722 1995783.62059138
O        2.11147505       5.20114471       1.50519803       1.00000000  623875.10407591  127881.10084313 -820670.22726948
O        2.92221778       5.51625341       0.18947521       1.00000000 1525600.84550572 -1660648.79546630 -3154337.38331787
