51
Lattice="12.336457 0.0 0.0 -6.168228499999997 10.683685154694365 0.0 0.0 0.0 15.0" Properties=species:S:1:pos:R:3:initial_magmoms:R:1:forces:R:3 energy=-448.39325950819295 free_energy=-448.39325950819295 stress="-0.002172680439075958 -0.005272359576723678 2.2467328134806196e-05 -0.005272359576723678 -0.002057728344881947 8.841425479186827e-07 2.2467328134806196e-05 8.841425479186827e-07 1.4283984210883455e-05" pbc="T T T"
C        0.01381459      -0.04285686       3.73177020       0.00000000       0.00061857       0.00521646      -0.00160275
C       -1.26430344       2.07404710       3.74653825       0.00000000       0.00302295       0.00827864      -0.00405344
C       -2.50066687       4.20790638       3.89071660       0.00000000      -0.00064470      -0.00151066      -0.00309625
C       -3.68444808       6.35571489       3.90269298       0.00000000      -0.00282896      -0.00183529       0.00319514
C       -4.90845007       8.50051290       3.85262395       0.00000000       0.00043527       0.00065366       0.00447728
C        2.47166861      -0.03674095       3.73902495       0.00000000      -0.00431239      -0.00386490       0.00551515
C        1.17620986       2.08980856       3.71290407       0.00000000      -0.00039472       0.01123570      -0.00931188
C       -0.07910708       4.11715837       4.13401311       0.00000000       0.00381250       0.00158665      -0.00843032
C       -1.20261052       6.30010063       4.13266825       0.00000000       0.00452468      -0.00307869       0.00671379
C       -2.42512936       8.47246139       3.86149081       0.00000000      -0.00557359       0.00534481       0.00686389
C        4.93070237      -0.06479556       3.58692881       0.00000000       0.00742428       0.00084617       0.00797161
C        3.66287894       2.04685817       3.31262947       0.00000000      -0.00154866      -0.00826117       0.00841750
O        1.46579177       6.52493046       3.17117641       0.00000000      -0.00315797       0.00989814       0.00647980
C        0.01581924       8.46147491       3.67290098       0.00000000       0.00083250      -0.00038760       0.00925597
C        7.38263311      -0.04227067       3.48720475       0.00000000      -0.00620710       0.00748233       0.01173250
C        6.13434203       2.10142330       3.42459198       0.00000000       0.00480081      -0.00761746       0.00034696
C        4.97761012       4.28623075       3.39972726       0.00000000       0.00841872      -0.01004678       0.00118341
B        3.70526768       6.41760158       4.11682641       0.00000000       0.00171466       0.00349864       0.00300937
C        2.50837701       8.56959549       3.59276474       0.00000000      -0.00068017       0.00182282      -0.00016240
C        9.87563834      -0.02686575       3.58192925       0.00000000      -0.00370001      -0.00388192      -0.00293157
C        8.60505190       2.09318504       3.58828163       0.00000000      -0.00090349      -0.00245438       0.00897655
C        7.39178916       4.23366571       3.68810450       0.00000000       0.00025093      -0.00181112      -0.00203577
C        6.18434929       6.37458255       3.83381983       0.00000000      -0.00171353       0.00513513      -0.00076153
C        4.96583094       8.52692128       3.77291499       0.00000000       0.00670462      -0.00298461       0.00841906
C       -0.01412960       1.38134159       3.73265680       0.00000000       0.00483390       0.01027812      -0.00453176
C       -1.29114982       3.46491710       3.92098704       0.00000000       0.00526557       0.01036666      -0.00900452
C       -2.46119314       5.62622890       3.98373946       0.00000000       0.00173581      -0.00280359      -0.00190475
C       -3.67148483       7.78048581       3.89344248       0.00000000      -0.00353319       0.00008315       0.01115291
C       -4.91968801       9.92976928       3.79704141       0.00000000      -0.00307661      -0.00264348      -0.01438979
C        2.43491946       1.39704935       3.60708848       0.00000000      -0.00435872      -0.00439313      -0.00568974
O        1.11267875       3.45238437       3.86680691       0.00000000      -0.00619656      -0.00508890      -0.00383122
C       -0.06939718       5.48684967       4.44636201       0.00000000       0.01395155      -0.00493599      -0.01062024
C       -1.18305935       7.73786551       3.91597695       0.00000000      -0.00180674      -0.00085334      -0.00007671
C       -2.45503802       9.90943428       3.73346924       0.00000000       0.00089129       0.00484721      -0.00350626
C        4.90569549       1.37532149       3.43121771       0.00000000       0.00397780      -0.00508655      -0.00476497
S        3.60903870       3.62644466       2.59825558       0.00000000      -0.00003844      -0.00066798      -0.00452606
C        1.30230672       7.79582022       3.50546196       0.00000000      -0.00025292      -0.00550912      -0.00044843
C       -0.00005373       9.89410542       3.56704842       0.00000000       0.00266981       0.00003162       0.00263181
C        7.36676448       1.38705429       3.48491974       0.00000000       0.00031430       0.00130671       0.00189866
C        6.15961881       3.52365499       3.49240722       0.00000000       0.00799067      -0.00977227      -0.00477146
C        4.95640343       5.65391726       3.76607539       0.00000000       0.00052147      -0.00168554      -0.00399154
C        3.71316516       7.87629002       3.79898489       0.00000000       0.00105955       0.00095913      -0.00049557
C        2.46800244       9.96980820       3.51530744       0.00000000      -0.01044239       0.00523217       0.00490746
C        9.85131357       1.38586068       3.62069688       0.00000000       0.00189109       0.00013518      -0.00126316
C        8.60896479       3.50914009       3.71429183       0.00000000      -0.00179925      -0.00277463       0.00090338
C        7.41437892       5.65402887       3.81429421       0.00000000      -0.00537624       0.00257695      -0.01881990
C        6.19234119       7.79976159       3.85281693       0.00000000       0.00639523       0.00336527       0.01010225
C        4.94927547       9.94634222       3.68248622       0.00000000       0.00227809      -0.00431888       0.00586194
Re       1.84524391       6.00999983       5.09906132       0.00000000      -0.00823890       0.00443057       0.00253809
O        2.58289863       4.55738708       5.70059298       1.00000000      -0.01056962      -0.00388991      -0.00326361
O        1.71277452       7.20459796       6.33726359       1.00000000      -0.00898178      -0.00245402      -0.00426890
