52
Lattice="12.336457 0.0 0.0 -6.168228499999997 10.683685154694365 0.0 0.0 0.0 15.0" Properties=species:S:1:pos:R:3:initial_magmoms:R:1:forces:R:3 energy=-1501500.1757075875 free_energy=-1501500.1757075875 stress="1575.7815335244754 95.39642813518809 216.58509127772646 95.39642813518809 378.12876134174746 644.4693396378351 216.58509127772646 644.4693396378351 6989.876327527135" pbc="T T T"
C        1.57324764       2.35629115       0.73120577       0.00000000     380.17144179    -897.49399801   -2282.19925683
C       -0.75412820       2.99392181       4.95640683       0.00000000 -514563.84389120 -263620.79697915   89447.22593365
C       -6.69133525      11.14652634      15.34980796       0.00000000   -2218.00505934     593.55594342     288.61743679
C       -5.31340129       3.60915469       2.58628873       0.00000000      56.29569307     122.83585644    -307.48784469
C       -8.92510327       6.31009605       1.56357734       0.00000000     696.67007597    1690.73890578   -1058.73850523
C        6.30459339       2.87073216       4.60799806       0.00000000    1131.35429050    -158.68201591     328.50245599
C        1.91536385       3.51995715       3.99266394       0.00000000 -4842591.02540037 -3044819.92532421 1331960.52620388
C       -0.45949408       3.37726215       4.69328351       0.00000000 -584110.99529745  -82216.60936284  -51593.86433817
C       -2.54801193       5.73411752       3.29358331       0.00000000    -916.21552699   -1094.25565299    -110.40392606
C       -3.18473162       6.66449562       0.62684331       0.00000000     -26.02408458      32.94787119     -98.33811463
C        3.76065999       0.38681403      -0.36488825       0.00000000      37.79050178     -68.15465459     -99.49631270
C        2.71801745       4.51694875       5.48340598       0.00000000  -45469.24766708  -55905.68117152 -100422.24491433
B        1.60928362       3.33571344       4.12086763       0.00000000 3994290.01750356 2966526.10877168 -1956167.06114773
C       -0.72606299       4.99449289       3.99292267       0.00000000   -4939.45965977   -5510.80746377   39817.06779053
C        7.77902027       9.16286244      -4.54084366       0.00000000      -3.50045467      -3.91724420       1.79772544
C        9.10420760      -0.54992950       4.08354295       0.00000000   -1175.83094189   -1233.68486987     241.74862962
C        5.63959006       5.25333040       5.03179098       0.00000000    1814.65026609     869.73724951      68.73006245
C        5.64457877       7.49984100       3.00490255       0.00000000      97.13836428      33.50726285     -80.31233935
S        5.74443902       6.71390260      11.78931633       0.00000000    -157.79145078    -181.09116384      92.50305596
C        4.23049141      10.52006511       2.46933005       0.00000000     742.45829778   -7466.45187824    6079.25793985
C       10.35148315       0.13229967       1.93067588       0.00000000   -2961.87177697    4565.90556282   -9385.78858072
C       10.29405242       2.02416357       3.60394863       0.00000000   -2014.68290999   -4280.72466515  -19249.06813335
C        6.37285519       7.43793057      -3.59290629       0.00000000     158.47418832     183.43908182     -98.10529323
C        4.31132476       5.23145876       0.72013288       0.00000000    1100.39044407     676.24285011   -1536.70085425
C        6.10998773       7.99069311       4.60313787       0.00000000     142.16378598      57.61224668     -10.79200698
C        0.04205766       2.09569529       4.52039581       0.00000000  180648.73340841  -81636.79969318 -392764.70328745
C       -0.92652237       1.79348055       1.32020603       0.00000000   -2315.71927758    1965.16479990   -2180.10107843
C       -0.92747390       4.57423472       7.73046795       0.00000000    6156.26129970   -9216.06734286   -7552.90043034
C        0.60289125      12.83988392      -1.64766687       0.00000000      -0.18761544       0.31687503       0.29397298
C       -9.37301367       7.04188742       8.66242243       0.00000000       3.95712516     115.12307598     135.59117701
C        3.71651253      -4.16531754       5.72948753       0.00000000   -2507.03944269     597.96613663     134.65838299
C        0.14289219       2.85961178       3.46167150       0.00000000 1211195.04122101  466689.62884823 1842743.07791025
C       -0.24007351       3.89655349       3.76930157       0.00000000 1457058.64630462 -452073.83310306  686470.24942291
C       -0.60003083       4.38589485       5.44130991       0.00000000   17491.76625117  201266.87780373   38628.83750299
C        0.69657218      12.07677611       4.56154300       0.00000000    -186.10095190    -321.53477751      32.00855114
C        7.23099163       3.51574870       4.83894749       0.00000000    -933.31745688     -26.04473953     -17.45160348
C        1.91969391       4.01311720       5.63756714       0.00000000  393548.26368535  331173.55457362  109183.84877719
C       -1.56244899       6.18251356       5.67413180       0.00000000    1907.28498714     883.05045536   -6378.71875967
C        1.09465856       5.93867635       1.69620125       0.00000000   -1568.21896388    3081.23154015   -3031.18790046
C        8.57213817       1.29824224       3.06808444       0.00000000    3013.22341123     303.97226030     259.37468589
C        5.56793757       5.47391083       4.05200638       0.00000000    2006.00103114     815.37833202     186.07172738
C        0.62171823      11.96857784       7.96752613       0.00000000     -19.24050993     -11.05629987      11.44145256
C        4.60481566       7.08288603       4.60294452       0.00000000    1083.70127623    1580.77050198      77.08938505
C        1.51893974       9.88410284       5.42700066       0.00000000    -139.76800744    -137.67984172      51.45868195
C       11.21036090       1.09299088       0.79069238       0.00000000    1717.58359217   -6384.48223529   -5855.17801627
C        5.89281293       2.94388762       1.53912893       0.00000000    1134.50473564    -135.60598148    -659.43877416
C       11.26135929       3.60858751       5.93374144       0.00000000   10376.21723035   88694.46387928    4490.88773036
C        4.17744785       6.92529173       1.81865101       0.00000000     480.74477285     927.43087634    -849.84037410
C        3.16164146       8.64064994       2.01714182       0.00000000     -53.30875864      -2.63992312       8.22388069
Re       0.76433308       3.20681818       4.85976959       0.00000000 -5341389.57851767 4177786.80435968 23478166.55304466
O        1.50194145       3.85836159       6.98407346       1.00000000 -251097.70693464 -124116.99480003 -240750.02213171
O        0.70011110       3.27122851       5.28329015       1.00000000 4312889.17537240 -4109713.35073859 -24826365.49959585
