53
Lattice="12.336457 0.0 0.0 -6.168228499999997 10.683685154694365 0.0 0.0 0.0 15.0" Properties=species:S:1:pos:R:3:forces:R:3 energy=-463.42743669495127 free_energy=-463.42743669495127 stress="-0.005419233452842329 3.908054919202202e-06 7.467328900198652e-06 3.908054919202202e-06 0.003789515546283118 -7.259047314330913e-06 7.467328900198652e-06 -7.259047314330913e-06 1.1031882844535407e-05" pbc="T T T"
C        0.01292015      -0.01330277       3.79606011      -0.00002817       0.00373116       0.00515638
C       -1.23270250       2.10128909       3.71924261       0.00280755       0.00375243       0.00226230
C       -2.46395141       4.23806492       3.61738633      -0.00070387       0.00208241       0.00092231
C       -3.69066566       6.38795179       3.63588353      -0.00106340      -0.00326906       0.00258636
C       -4.91853686       8.53748739       3.73318907      -0.00220282       0.00025623      -0.00019056
C        2.47756680       0.00809869       3.82590622      -0.00015351       0.00280278      -0.00211072
C        1.24097054       2.15573316       3.88732788       0.00108706      -0.00185340      -0.00362757
C       -0.00482744       4.26514474       3.72360455       0.00426935       0.00419187      -0.01063816
C       -1.25037351       6.39274450       3.63818860       0.00321425      -0.00145369       0.00342311
C       -2.46303032       8.53772722       3.73508358       0.00671630      -0.00393907       0.00370809
C        4.94223857      -0.01298840       3.79083432       0.00095505       0.00232224       0.00376237
C        3.71475989       2.15573037       3.87851924      -0.00234806       0.00272847      -0.00117862
B        2.47965762       4.37070244       4.25354478      -0.00204474      -0.00387803      -0.00356842
O        1.10450336       6.39574825       3.36092479       0.00159872       0.00619196       0.00001306
C       -0.01641207       8.51282910       3.81566436       0.00617068      -0.00305708       0.00153270
C        7.41832888      -0.06065923       3.72585149      -0.00010181      -0.00310354      -0.00042121
C        6.18802677       2.10156844       3.70534392      -0.00248827       0.00232782       0.00533399
C        4.95987259       4.26558766       3.70516922      -0.00154782      -0.00413879      -0.00407257
O        3.84805193       6.39682309       3.35014165       0.00197753       0.00166660       0.00219614
C        2.47738883       8.43792981       3.74061804      -0.00544247      -0.00298242       0.00935410
C        9.87325198      -0.06065716       3.72974882       0.00130469      -0.00567450      -0.00374915
C        8.64605186       2.08743333       3.65048882      -0.00177925      -0.00046479       0.00105722
C        7.41960628       4.23823040       3.60722214      -0.00315514       0.00154484       0.00217327
C        6.20512650       6.39289332       3.62436551      -0.00407351      -0.00243173       0.00358515
C        4.97156248       8.51232989       3.81130003      -0.00324817       0.00166847       0.00298755
C        0.00894791       1.41114386       3.79989315       0.00234818       0.00224528      -0.00442896
C       -1.23699659       3.52973413       3.67074313       0.00229803       0.00517735      -0.00544474
C       -2.47030003       5.66582029       3.62323534       0.00086961       0.00058666       0.00055112
C       -3.69075005       7.82045772       3.69287644       0.00132259      -0.00200758      -0.00120923
C       -4.91817379       9.96900624       3.79287665      -0.00157954       0.00361340       0.00397154
C        2.47783639       1.44005700       3.89042228       0.00067157       0.00220764      -0.00578294
C        1.21378112       3.58009109       3.94148281      -0.00155521      -0.00308914      -0.00002051
C       -0.07082327       5.66766115       3.60539037       0.00410900       0.00401558      -0.00521833
C       -1.24346589       7.81931124       3.72839536       0.00857891      -0.00406771      -0.00042911
C       -2.46318844       9.96934949       3.79167546       0.00143343      -0.00019991       0.00122848
C        4.94642650       1.41134145       3.78788650      -0.00263494       0.00380571       0.00305274
C        3.74269703       3.58025418       3.93066035      -0.00134375      -0.00030306      -0.00135812
C        1.20028071       7.76519712       3.82654124      -0.00168274      -0.00330904      -0.00021708
C        0.00479910       9.93932126       3.78487584       0.00188049      -0.00246350       0.00498760
C        7.41673241       1.37197586       3.68409097      -0.00353988      -0.00043627       0.00253550
C        6.19223699       3.53007092       3.65353268      -0.00137457       0.00073437      -0.00039888
C        5.02527678       5.66834796       3.58796584      -0.00219314      -0.00406908      -0.00823809
C        3.75486107       7.76420976       3.82189112      -0.00360369       0.00340096      -0.00032426
C        2.47756004       9.88876996       3.71582721      -0.00086766      -0.00562126      -0.00233534
C        9.87512217       1.37194279       3.69101316       0.00194732      -0.00240561       0.00295463
C        8.64610557       3.51621782       3.61502795      -0.00243322       0.00170648      -0.00565737
C        7.42547739       5.66601652       3.61421306      -0.00298843      -0.00082113       0.00173657
C        6.19828791       7.81907320       3.72136948      -0.00433997      -0.00103527      -0.00176541
C        4.95025078       9.93896727       3.78718260       0.00217252       0.00028097       0.00626501
Re       2.48319557       6.39226716       4.92091620       0.00557843      -0.00113587       0.00050357
O        2.50446722       5.96562452       6.59178967       0.00083326       0.00294082      -0.00292705
O        2.42734643       6.98999447       8.01644697       0.00766550      -0.00953886      -0.00038615
H        2.69560596       6.23154601       8.58632247      -0.01129225       0.01076688      -0.00214236
