51
Lattice="12.336457 0.0 0.0 -6.168228499999997 10.683685154694365 0.0 0.0 0.0 15.0" Properties=species:S:1:pos:R:3:initial_magmoms:R:1:forces:R:3 energy=-457.83339930133155 free_energy=-457.83339930133155 stress="-0.005121181284663261 -0.0007879197208862774 -2.4247703272767927e-06 -0.0007879197208862774 -0.0015651011681557135 -3.639751927195122e-05 -2.4247703272767927e-06 -3.639751927195122e-05 3.3180638155224357e-07" pbc="T T T"
C       -0.02177717       0.00965319       3.72750076       0.00000000      -0.00931144       0.00453071      -0.00108220
C       -1.26204096       2.12638785       3.65013006       0.00000000      -0.00246558      -0.00094546       0.00165740
C       -2.48855124       4.26460467       3.42511064       0.00000000       0.00869184      -0.00323615      -0.00083490
C       -3.72235934       6.41597343       3.39140719       0.00000000       0.01319280       0.00229883      -0.00455164
C       -4.95242763       8.56127907       3.55193648       0.00000000       0.00288601       0.00160981       0.00522860
C        2.43589091      -0.00159355       3.70244900       0.00000000       0.01208464      -0.00658453       0.01093437
C        1.20152133       2.18040770       3.99346884       0.00000000      -0.00012081      -0.00613903       0.00008618
C       -0.05753871       4.26862523       3.74551133       0.00000000      -0.00205100       0.00257055       0.00066721
C       -1.27393506       6.41451242       3.41221905       0.00000000      -0.01314186       0.00032685       0.00620107
C       -2.49340231       8.55521328       3.46014340       0.00000000       0.00795733      -0.00085377       0.00670869
C        4.92020085      -0.02230453       3.65600314       0.00000000       0.00090463       0.00069536      -0.00365770
C        3.68489220       2.00878760       4.10572735       0.00000000      -0.00694780       0.00103867       0.00335595
C        1.14326475       6.39203173       3.85882824       0.00000000       0.00461084      -0.00152809       0.00553566
C       -0.01910322       8.52973479       3.58214820       0.00000000      -0.00616608       0.00142513      -0.01414707
C        7.38776686      -0.02394651       3.65973904       0.00000000       0.00225116      -0.00506454       0.00399660
C        6.15975604       2.12161779       3.73844344       0.00000000      -0.01399913      -0.00344049       0.00501580
C        5.06521468       4.34314983       3.99859248       0.00000000      -0.00827626      -0.00214762      -0.00394867
C        3.74530378       6.40529712       4.26418000       0.00000000      -0.00236101       0.00080140      -0.00581320
C        2.45056078       8.51871313       3.85743552       0.00000000       0.00488444       0.00157894      -0.00304433
C        9.84502790      -0.01608879       3.71302607       0.00000000       0.00381911      -0.00734533      -0.01097449
C        8.61693259       2.12179194       3.55502917       0.00000000       0.00537008      -0.00403702       0.00449926
C        7.40657470       4.27450543       3.51752407       0.00000000       0.00382487       0.00502477      -0.00581004
C        6.18304411       6.43896070       3.65952763       0.00000000      -0.00541079      -0.00111934      -0.00110425
C        4.91915004       8.54293068       3.80140611       0.00000000      -0.00206980      -0.00058130       0.00429568
C       -0.02122621       1.43883396       3.78992720       0.00000000      -0.00747228       0.00253044       0.00591387
C       -1.26971342       3.54381633       3.55478445       0.00000000      -0.00204741      -0.00159112       0.01909810
C       -2.49646131       5.69525053       3.37160471       0.00000000       0.00327406      -0.00767172      -0.00542176
C       -3.72528405       7.84482649       3.43945723       0.00000000       0.01007140       0.00275250       0.00106896
C       -4.96056604       9.97840539       3.65018534       0.00000000      -0.00111589       0.00712126       0.00212122
C        2.42303916       1.40021800       3.94903256       0.00000000       0.00463942      -0.00605070       0.00113104
C        1.13381772       3.61953419       4.16428351       0.00000000      -0.00008993      -0.00040473      -0.00095579
C       -0.06404016       5.69412574       3.62815904       0.00000000      -0.00753453       0.00775189       0.00359081
C       -1.25928268       7.83831373       3.45554509       0.00000000      -0.00645515      -0.00240362      -0.00710490
C       -2.49336797       9.97222357       3.59601381       0.00000000       0.01229973      -0.00513989       0.00681191
C        4.93320349       1.38919100       3.83196367       0.00000000      -0.01382763      -0.00257328      -0.00023198
P        3.65393967       3.61476347       4.66778613       0.00000000      -0.00553435      -0.00295417       0.00482640
C        1.21475428       7.80337979       3.75498773       0.00000000      -0.00294755       0.00922835       0.00449048
C       -0.01384858       9.94827377       3.61751515       0.00000000      -0.00079274       0.00006117      -0.00663090
C        7.38348126       1.40702599       3.63318623       0.00000000      -0.00589048      -0.00331103      -0.01393203
C        6.19455941       3.55778014       3.72807116       0.00000000      -0.00568377       0.00229591       0.00329152
C        4.98041835       5.74740665       3.96678308       0.00000000      -0.00802274      -0.00375281      -0.00359595
C        3.68757212       7.80310102       3.99298661       0.00000000       0.00251577      -0.00057451      -0.00506633
C        2.44887203       9.94320187       3.73490467       0.00000000       0.00698496      -0.00451034      -0.01241511
C        9.84379769       1.40690778       3.61755035       0.00000000       0.00427054      -0.00839411       0.00719815
C        8.62230835       3.55028303       3.46160654       0.00000000       0.00852708       0.00106284       0.00515891
C        7.39208585       5.70383246       3.49125679       0.00000000       0.00845127       0.00808759      -0.00133619
C        6.15865722       7.85380439       3.65919457       0.00000000      -0.00430138      -0.00023693      -0.00431340
C        4.91421753       9.96498138       3.74317876       0.00000000      -0.00238837      -0.00340216      -0.00264826
Re       2.16444873       5.23328667       5.23273238       0.00000000       0.00724769       0.01137286      -0.00897468
O        3.46867639       3.91295841       6.22107429       1.00000000       0.00650925       0.00660514      -0.00071845
O        1.36822559       5.93831231       6.59220203       1.00000000       0.00115682       0.01522284       0.00543039
