51
Lattice="12.336457 0.0 0.0 -6.168228499999997 10.683685154694365 0.0 0.0 0.0 15.0" Properties=species:S:1:pos:R:3:initial_magmoms:R:1:forces:R:3 energy=-441.8572153503291 free_energy=-441.8572153503291 stress="-0.007313911473696583 0.004124307052817659 -8.821795938798364e-06 0.004124307052817659 -0.005504883130000714 7.791613902593354e-06 -8.821795938798364e-06 7.791613902593354e-06 -1.5724911916860886e-05" pbc="T T T"
C       -0.02775467      -0.00580628       3.59554532       0.00000000       0.00254754       0.00744803      -0.00148095
C       -1.23558215       2.12625170       3.73118486       0.00000000       0.00854947       0.01038802      -0.00220043
C       -2.50667915       4.25580204       3.91712710       0.00000000      -0.00808655      -0.00190623      -0.00089285
C       -3.76414546       6.39086139       3.85061083       0.00000000       0.00838649       0.00236294      -0.00294036
C       -4.99970105       8.51007996       3.65813627       0.00000000       0.00123153       0.00146549       0.00655178
C        2.42688684      -0.04472353       3.73353378       0.00000000       0.00213292       0.00359667      -0.00337468
C        1.27028834       2.10050527       3.39265971       0.00000000      -0.00933954       0.01159587       0.00856135
C       -0.10357635       4.32096265       4.02395704       0.00000000       0.00894686       0.00175365       0.00863379
C       -1.35388585       6.43388820       3.85758312       0.00000000       0.00870490       0.00911563      -0.00245082
C       -2.53299463       8.53189120       3.78155757       0.00000000       0.00378201       0.00137877      -0.00682169
C        4.90496200      -0.04151756       3.85429803       0.00000000      -0.00279108      -0.00233355       0.00094935
C        3.67419621       2.01542557       4.10994899       0.00000000      -0.01163509      -0.00090026       0.00424483
C        1.09068041       6.44001381       3.66049022       0.00000000      -0.00014420      -0.00484098      -0.00468290
C       -0.05395466       8.53292334       3.70552948       0.00000000       0.00199504       0.00073353       0.00912123
C        7.37736237      -0.02571788       3.79244317       0.00000000      -0.00639650      -0.00635720       0.00053229
C        6.15762734       2.08900308       4.07251995       0.00000000      -0.00100990       0.00345433       0.00198678
C        4.97408164       4.26086606       4.14998743       0.00000000      -0.00799486      -0.00895048      -0.00275218
S        3.61227497       6.19095697       2.80871977       0.00000000       0.01808970      -0.00128756      -0.00109186
C        2.42760064       8.53834682       3.50056264       0.00000000      -0.00750799      -0.00951600       0.00411518
C        9.84762087      -0.01413072       3.65599361       0.00000000      -0.00153369      -0.00395240      -0.00286437
C        8.62595936       2.10898017       3.88515578       0.00000000       0.00851165      -0.01599087       0.00735772
C        7.38740049       4.24130767       3.96657754       0.00000000      -0.00093492       0.00643688       0.00612862
C        6.13421764       6.37284535       3.71456553       0.00000000      -0.00486811      -0.00200265      -0.00542102
C        4.88913443       8.51719630       3.48374216       0.00000000      -0.00482272       0.00326821       0.00293239
C       -0.00427281       1.43051512       3.57547904       0.00000000       0.00049774       0.00670780      -0.00546672
C       -1.26070970       3.54547757       3.89046170       0.00000000       0.00094270       0.00977393       0.00219038
C       -2.54217961       5.67989428       3.90093064       0.00000000       0.00866408       0.00331091       0.00722912
C       -3.76463031       7.81056054       3.76636055       0.00000000       0.00543987       0.00089213      -0.00724168
C       -4.98135515       9.93867839       3.63337865       0.00000000       0.00340993       0.00455823       0.00301467
C        2.45501918       1.37060005       3.76950556       0.00000000      -0.00840705       0.00425155      -0.00842322
S        1.51944423       3.32594414       2.12279254       0.00000000      -0.00727935      -0.00452080       0.00151506
C       -0.12502038       5.73765204       3.86833733       0.00000000       0.00540369       0.00711635       0.01118835
C       -1.30256391       7.83853771       3.78657891       0.00000000       0.00570844       0.00829143      -0.00579657
C       -2.50721697       9.94182318       3.79201707       0.00000000      -0.00055375      -0.00104808       0.00922870
C        4.92738286       1.36973941       4.01743847       0.00000000      -0.00664542       0.00098810      -0.00282493
S        3.64433436       3.46725653       5.01241050       0.00000000       0.00687051       0.00136249       0.00771916
C        1.17867445       7.82572902       3.57939375       0.00000000      -0.00498632      -0.00443688       0.00559047
C       -0.03027515       9.94629069       3.77985319       0.00000000      -0.00466832      -0.00276638      -0.00766946
C        7.38575747       1.39326095       3.92463331       0.00000000      -0.00130095      -0.00538593      -0.00923060
C        6.17023572       3.51161289       4.09379512       0.00000000      -0.00051264       0.00650345       0.00073629
C        4.95729097       5.58496852       3.70764358       0.00000000      -0.00169866      -0.01082258      -0.00292471
C        3.64654948       7.85675426       3.32591019       0.00000000      -0.00268227      -0.00428445      -0.00040295
C        2.44043682       9.95724852       3.65389433       0.00000000      -0.00717509      -0.00789905      -0.00338268
C        9.86197670       1.41035133       3.76171271       0.00000000       0.01577466      -0.00361936      -0.00325813
C        8.61758823       3.53172534       3.93030110       0.00000000      -0.00686373      -0.01162392       0.00107787
C        7.36272315       5.66511640       3.86794907       0.00000000       0.00204843       0.00742762      -0.01171377
C        6.11025935       7.79170752       3.58038503       0.00000000      -0.00367840       0.00040335      -0.00911984
C        4.90188806       9.95695072       3.57801604       0.00000000      -0.00001991       0.00580585      -0.00509700
Re       1.82710110       4.64855859       3.93871320       0.00000000      -0.00839659      -0.00549706      -0.00104735
O        3.36263242       5.28697281       6.27993108       1.00000000       0.00607559      -0.00436109       0.00245229
O        2.24787275       5.72573394       5.71253732       1.00000000      -0.00178013      -0.00608746       0.00751604
