52
Lattice="12.336457 0.0 0.0 -6.168228499999997 10.683685154694365 0.0 0.0 0.0 15.0" Properties=species:S:1:pos:R:3:forces:R:3 energy=-464.9074213112427 free_energy=-464.9074213112427 stress="-0.0034371206864284827 -0.0005022669089948476 5.859883211376655e-06 -0.0005022669089948476 0.007187106909801179 3.356204656024245e-05 5.859883211376655e-06 3.356204656024245e-05 3.3543594248723345e-06" pbc="T T T"
C        0.03058555       0.02627998       3.73145234      -0.00566759       0.00037416       0.00422192
C       -1.22053766       2.12924275       3.64766576      -0.00100464      -0.00297915      -0.00232023
C       -2.44987293       4.27493379       3.58349685      -0.00084270       0.00391424       0.00039918
C       -3.66513797       6.43391392       3.60213462       0.00002462       0.00528914       0.00269083
C       -4.89314205       8.58758110       3.67337340       0.00065273       0.00001159       0.00970442
C        2.49546619       0.07088868       3.85008632      -0.00275010      -0.00065587      -0.00736914
C        1.23551952       2.22064976       3.84590326       0.00318238       0.00466260       0.00621366
C       -0.00845755       4.25166887       3.73177764       0.00223564       0.00291650       0.00416842
C       -1.22589921       6.42509994       3.72937218       0.00343625      -0.00144994       0.00442235
C       -2.44103600       8.58434264       3.77618976      -0.00191084      -0.00277666      -0.00160381
C        4.96369513       0.02593513       3.90129067       0.00233247      -0.00363169      -0.00012708
C        3.73110628       2.21729229       4.02645254       0.00249674       0.00385715      -0.00175821
C        1.19323680       6.36146275       4.15386809      -0.00051059       0.00003203       0.00029400
C        0.02878164       8.53945533       3.92003006      -0.00474793      -0.00206943      -0.00132802
C        7.43830009      -0.02464054       3.84888602       0.00175521       0.01032044      -0.01217217
C        6.20987100       2.13740310       3.80468140      -0.00334081       0.00519761       0.00760151
C        5.00048686       4.30215708       3.83989778      -0.00116024      -0.00357344       0.00938930
N        3.82429878       6.39172133       3.84635887       0.00639889      -0.00251693      -0.00371089
C        2.50725682       8.48451487       3.92675950       0.00239334       0.00035679       0.00450023
C        9.89223958      -0.02801284       3.74590086      -0.00539011      -0.00274105       0.00617287
C        8.66011658       2.12327530       3.66544319       0.00265287      -0.00193336       0.00013314
C        7.44123896       4.28057204       3.60681969      -0.00163856      -0.00209481      -0.00150541
C        6.22672066       6.44333533       3.59319912      -0.00464326      -0.00187700      -0.00242977
C        4.97262844       8.53400073       3.72074643       0.00588718       0.00429911       0.00280265
C        0.02070411       1.45423127       3.72975164      -0.00004936       0.00156742       0.00008418
C       -1.23205522       3.54645133       3.60449927       0.00242756       0.00182254      -0.00131179
C       -2.44446279       5.70935413       3.61788863       0.00204659       0.00641619      -0.01114581
C       -3.66467614       7.86698342       3.67288275       0.00057185       0.00256722      -0.00527234
C       -4.89612263      10.01864756       3.75146785      -0.00513451      -0.00190322       0.00460623
C        2.48833929       1.50698988       3.93914866       0.00234480       0.00336938      -0.00690395
N        1.16368508       3.59216008       3.86994104       0.00568529       0.00514205       0.00941639
C       -0.00202843       5.68827205       3.85234036       0.00458238       0.00075458       0.00326209
C       -1.21457013       7.85306436       3.81382161      -0.00451638      -0.00395912       0.00102591
C       -2.44323118      10.01568387       3.85717055      -0.00103603      -0.00280449      -0.01004095
C        4.96575644       1.45369341       3.92249846      -0.00155831      -0.00005200      -0.01234378
C        3.80810427       3.63614704       4.15974323       0.00321615       0.00236295       0.00229442
C        1.26435946       7.77839335       4.01809052      -0.00221058       0.00002785      -0.00307624
C        0.03029005       9.96690001       3.89858290       0.00518151       0.00034412      -0.00658237
C        7.43616806       1.40592361       3.76602553      -0.00108123       0.01055886       0.00213053
C        6.22303412       3.56405828       3.71461407      -0.00323710       0.00098954       0.00546674
C        5.00655138       5.73619943       3.71531872      -0.00348070      -0.00739062      -0.00427747
C        3.75652496       7.77006017       3.83247558       0.00810848      -0.00087077      -0.00196125
C        2.50009451       9.92116451       3.83965143      -0.00323937       0.00073292      -0.00440039
C        9.88827535       1.40298543       3.67254295      -0.00037317      -0.00602859       0.00199729
C        8.66146805       3.55604811       3.59701048       0.00048667      -0.00271338       0.00143275
C        7.44635408       5.71513576       3.57808674      -0.00125716       0.00127199      -0.00509500
C        6.21558560       7.86115777       3.63952385       0.00208335       0.00043407       0.01071697
C        4.96480828       9.96257893       3.72819376      -0.00511702       0.00275757       0.00055889
Re       2.52284768       5.02829517       5.04438759      -0.00074959      -0.01126377      -0.00342214
O        3.35448245       5.87048783       6.31326315       0.00656621       0.00021061      -0.00255812
O        1.51586474       4.04681250       6.36193001      -0.00443503      -0.00701392       0.01785211
H        1.74615205       4.31013461       7.27329447      -0.00566625      -0.01026202      -0.01084260
