51
Lattice="12.336457 0.0 0.0 -6.168228499999997 10.683685154694365 0.0 0.0 0.0 15.0" Properties=species:S:1:pos:R:3:initial_magmoms:R:1:forces:R:3 energy=-1052210.3570553989 free_energy=-1052210.3570553989 stress="743.5278188595806 -258.1425607749949 -178.49109473622445 -258.1425607749949 479.1575284663053 428.23429098427323 -178.49109473622445 428.23429098427323 -658.4687200357739" pbc="T T T"
C        6.59458127      -4.55434067       5.51585857       0.00000000   74093.10395898 -112982.83781478   -6927.02763108
C       -4.37730826       2.63169364       4.12781544       0.00000000   -1165.35068273    1556.17614505    -534.06344086
C       -3.21312656       5.88237981       7.35193320       0.00000000     383.30291318    -847.91703404    -531.73632065
C       -0.65613259       5.97949680       3.68911959       0.00000000  113143.82453708  -58100.35153513   53350.70387561
C       -7.97165397      13.79778076       1.10521209       0.00000000   -5048.65695810    2022.33359090   -3246.09314721
C       -0.14649267       4.61633236       6.77561600       0.00000000  215270.90514332  -42940.10417500 -194163.21196446
C        2.06663381       6.21782749      10.36203839       0.00000000      10.83262518       6.51510248      20.85161240
C       -2.65415465       3.66448562      11.42864809       0.00000000      -1.69391567      -6.77511396      32.04346252
C       -2.52292416       6.39189180       1.85848644       0.00000000    1500.59740649    1198.55105020     734.94472274
C        3.13348185      13.52331956       4.01283353       0.00000000   52410.04859937   16799.65469656    3873.01303980
C        8.43795609       1.89352349       5.71607305       0.00000000    -311.19998121     753.24301283    -772.01318629
C        2.04398467       4.45025154      14.90660474       0.00000000    1721.51472881     923.69370229    3796.39623291
C        6.74531391      12.88322376       3.89164684       0.00000000  -11593.71611785  -27043.05145887    5881.39360152
C       -0.12750834       5.49210659       4.60288203       0.00000000   64394.88884871   58073.17544270   92285.96511564
C        6.32876014       1.42180915       7.95560734       0.00000000      27.50282409       2.12137877     -28.48186523
C        0.03166029       0.74319351      14.52246045       0.00000000      -0.40787763      66.52829797     167.70634961
C        2.51417475       1.79173678       2.85102050       0.00000000    2103.13104294   80829.43445899   70877.48791886
N        1.29280903       5.02158930       4.44904236       0.00000000 -791852.65932730  997986.63307884 -279539.37475716
C       10.60129941       6.64581491       1.89240428       0.00000000    2881.22624521    -588.59744576    6383.52278302
C       18.24050723       0.43823978       5.27991232       0.00000000    1663.78435483   -1766.20451985      67.79209334
C        7.58986475       1.72437315       6.83133779       0.00000000     377.57076193     159.48916033    -511.59551361
C        3.54830636       6.61970166       1.27572643       0.00000000    1855.40798304    2909.68017256    1711.23058138
C        9.54381715       3.93157986      -1.38687723       0.00000000       2.03197451     -19.00396809       7.31730823
C        3.54343894      14.79692350      -6.80543348       0.00000000   -1579.70969701     -15.75682200     674.59090565
C       -7.48921390      -4.81010194      -6.03263480       0.00000000    -895.69417589    1094.88401167    1959.58051065
C       -0.94662744       5.11126587       4.01015799       0.00000000   94836.09369725  -30981.64493560   28208.02815734
C       -1.43481211       2.45206972       1.04526539       0.00000000    -647.76496612   -4816.91122122   -3404.08418712
C       -5.00882172       7.53894364       2.43056159       0.00000000     109.86578629      60.59947513      11.04675275
C       -3.03311754      12.51106559       3.15225263       0.00000000  -60179.09887899   74211.66483759   35898.61888361
C       -0.69740822      -2.35599049      10.48332788       0.00000000      -0.72143562      -0.39107773      -0.01372592
C        1.68124813      -9.52636736       3.95722408       0.00000000      55.59977226    1303.50239861     196.00700451
C        2.20454153      14.11927448       7.74416558       0.00000000     201.29407509     113.78228191     -18.37911142
C       -0.44951986       6.09159077       5.05167314       0.00000000  173075.12532482 -161127.82331977  -87378.42895407
C       -0.29887908       9.88227331       3.77678049       0.00000000     -87.26487078    -235.56266906     109.88377412
C        4.04914635       4.63687160       2.69422689       0.00000000  -51045.74862390  -10738.40509996   20237.19863698
N        2.15634861       3.10977534       5.02388196       0.00000000  -93918.77927961  604163.97258930  169047.05633190
C       -3.93517189       1.48969851      -1.64576154       0.00000000      -2.80680203      -4.09590267      -8.98864506
C        2.71611578      13.66914261       4.08363491       0.00000000  -41245.75288696  -15281.57523677   -4445.63820192
C        9.02001453      -1.79620393      -3.03450718       0.00000000      11.86354080       9.90802626      38.53792448
C        3.20768005       5.76810645       1.19021092       0.00000000  -13758.89392748  -18989.59990217   21806.46398295
C        8.31724010       3.39439093       3.50091941       0.00000000    1804.86752532   -1068.81451542    2643.88758342
C        2.92326891       5.26543871       2.09742236       0.00000000  -27946.17641243  -39324.28029232   58551.38277101
C        0.57255922       4.17946245       1.44201328       0.00000000   23835.29477462    1281.87164803   53708.32537184
C        7.99936519       2.25039107       2.08424922       0.00000000    -186.71853588     164.83179502    1017.84192972
C       11.79096542       4.13764770       4.10758681       0.00000000   18350.15100078   -1064.40827258   14697.77923209
C        5.46061538       7.31745915      -0.56242827       0.00000000     -15.01593093     167.10625751     -25.38011067
C       10.08128567       4.74476263       6.58541408       0.00000000     118.56504300    2530.60006335    -784.61847898
C        0.85416000      16.34601491      -5.80934687       0.00000000     -35.51966452       5.19997370      25.62039960
Re       1.97256814       4.15796327       4.42925830       0.00000000 -464782.25365691 2079947.67871969 3099383.31424526
O        1.67117949       4.14090735       6.64615438       1.00000000 -302447.84180812   94172.06837210 1784602.65454337
O        1.89590524       4.20931307       4.75463626       1.00000000 1024511.05192579 -3494570.78740757 -4949689.05839713
