52
Lattice="12.336457 0.0 0.0 -6.168228499999997 10.683685154694365 0.0 0.0 0.0 15.0" Properties=species:S:1:pos:R:3:forces:R:3 energy=-449.4789354223683 free_energy=-449.4789354223683 stress="-0.008061205399641677 0.0042297399403839996 3.6787192042933956e-05 0.0042297399403839996 -0.006647243863148491 -1.4413071925401072e-05 3.6787192042933956e-05 -1.4413071925401072e-05 -7.664449921197578e-06" pbc="T T T"
C        0.03436206      -0.03174165       3.73027634       0.00044011       0.00566419       0.00517582
C       -1.17310951       2.11745521       3.51418646       0.00598257       0.01668977       0.00478878
C       -2.44138772       4.25347264       3.44503159       0.00121501      -0.00521486       0.00966035
C       -3.67448173       6.38858848       3.58568825      -0.00769729      -0.00457798      -0.00174269
C       -4.92491403       8.50751627       3.71632393      -0.00089982       0.00372707       0.00235855
C        2.49580192      -0.05518700       3.90879183       0.00010244       0.00389331       0.00478096
C        1.31041753       2.04694816       3.77756485      -0.00569150      -0.00429125       0.00134554
C       -0.04222246       4.32147367       3.28687443      -0.01151258      -0.00552661       0.00737318
C       -1.26281576       6.43068542       3.41030647       0.01067553      -0.00012589       0.00548569
C       -2.45958657       8.53435191       3.65396076      -0.00025733       0.00778141       0.00382458
C        4.96756477      -0.02715188       3.90246064       0.00064537      -0.00548442       0.00124311
C        3.75088300       2.01716545       4.40403933      -0.00609790       0.00286494       0.00433772
C        1.12586520       6.42119732       3.84662579       0.01301756       0.00989788       0.00170252
C        0.00368513       8.54199395       3.67357961       0.00343297       0.00376131      -0.00036132
C        7.43771091      -0.01933986       3.79727060      -0.00605698      -0.00428304       0.00207200
C        6.24206449       2.09203113       4.12305417      -0.00268767      -0.00419210       0.00627457
C        5.18181026       4.25465510       4.58063455      -0.00206082      -0.00088245      -0.00012327
S        3.60015409       6.13167572       3.63211024       0.01372687       0.00105817       0.00328110
C        2.47985773       8.53284553       3.76292793      -0.00070992      -0.00782689       0.00096839
C        9.91106883      -0.02331399       3.69513248       0.00094047       0.00153111      -0.00570615
C        8.69110982       2.10885495       3.70565386       0.00018568      -0.00639123       0.00915430
C        7.48403925       4.23704358       3.85877386       0.00476647      -0.00563161       0.01100152
C        6.24716194       6.37634380       3.88804446      -0.00787022       0.00067658       0.00032428
C        4.95610378       8.50507090       3.74102442       0.00155258      -0.00488384       0.00525332
C        0.05720855       1.40698495       3.65491233      -0.00305558       0.00621831      -0.00808484
C       -1.20168842       3.53748240       3.36229846      -0.00069737       0.00491613       0.00038768
C       -2.45893475       5.68022111       3.43869905       0.00470550      -0.00473673      -0.00022919
C       -3.68618858       7.81101340       3.63888858      -0.00346060       0.00142483      -0.00442923
C       -4.91254476       9.93347346       3.77935707       0.00183316       0.00691321      -0.00723248
C        2.51383995       1.35605762       4.08371974      -0.00125886       0.00507296      -0.00599280
S        1.54745343       3.67773927       3.27097644       0.00425662      -0.01036477      -0.00991378
C       -0.03453081       5.72167150       3.45431904       0.01184126      -0.00332303      -0.00897258
C       -1.23567933       7.83984705       3.56191232       0.00525640       0.00815374       0.00205177
C       -2.43745100       9.94146429       3.83210753      -0.00038995       0.00320115       0.00351281
C        4.98937715       1.38542283       4.15960378      -0.00514841      -0.00465370      -0.00433788
S        3.82077723       3.48499101       5.36946725       0.00601615       0.00715835       0.00450232
C        1.23262416       7.81430547       3.75325522       0.00067206       0.00265573      -0.01284385
C        0.02782750       9.95759027       3.78213274      -0.00073984      -0.00240277      -0.00008584
C        7.45204048       1.40025648       3.86907671      -0.00735093      -0.00306009      -0.00916128
C        6.30670828       3.50497659       4.20979522       0.00392674      -0.00410577       0.00872527
C        5.11557051       5.59733934       4.20447878      -0.00000966      -0.00085706       0.00400296
C        3.70141467       7.85067715       3.74012498       0.00200941      -0.00388610      -0.01297269
C        2.50088187       9.96082082       3.74307566      -0.00475703      -0.00611063      -0.00384118
C        9.92975334       1.40608319       3.62047309       0.00975617       0.00877677      -0.00253322
C        8.69245467       3.52902905       3.64843523      -0.00006306      -0.00895323      -0.00359446
C        7.46640239       5.65960703       3.77205648      -0.01037079      -0.00295520       0.00192564
C        6.18569100       7.78971458       3.75222721      -0.00247206      -0.00156203      -0.00538593
C        4.96583460       9.94168208       3.71224804       0.00363797      -0.00035013      -0.00989206
Re       2.14188940       5.22493663       5.23173812       0.00108884      -0.00203593      -0.00095945
O        2.74737765       6.37863083       6.35035243      -0.00687547       0.00156723       0.00396582
O        0.74474608       4.22362448       6.18149486       0.00325853       0.00118132       0.00548603
H        0.75411254       4.38424984       7.14037946      -0.01675082       0.00388387      -0.00657042
