52
Lattice="12.336457 0.0 0.0 -6.168228499999997 10.683685154694365 0.0 0.0 0.0 15.0" Properties=species:S:1:pos:R:3:initial_magmoms:R:1:forces:R:3 energy=-459.86995977944605 free_energy=-459.86995977944605 stress="-0.0008116056539394489 -0.0006914397433642911 -2.4398640857672674e-05 -0.0006914397433642911 -0.008020451547843402 -1.0414562655714272e-05 -2.4398640857672674e-05 -1.0414562655714272e-05 3.2422833680273105e-06" pbc="T T T"
C        0.03090922       0.01171923       3.89422430       0.00000000      -0.00195422       0.00086168      -0.00654759
C       -1.19946342       2.16071504       3.82419347       0.00000000       0.00377803       0.00608723       0.00540694
C       -2.44230328       4.29584959       3.70490340       0.00000000       0.00103587      -0.00049674      -0.01042485
C       -3.67976927       6.42620438       3.73502212       0.00000000       0.00219168       0.00062315       0.00208705
C       -4.91803181       8.54457932       3.82568461       0.00000000      -0.00291060       0.00861540      -0.00849112
C        2.49914366      -0.01796250       3.81599660       0.00000000      -0.00001143       0.00342915       0.00244172
C        1.26383653       2.11949485       3.66618032       0.00000000       0.00047075       0.00015033      -0.00555748
C        0.01102414       4.25617835       3.49353082       0.00000000      -0.00587984       0.00138035      -0.00317349
C       -1.20653104       6.42365540       3.59290187       0.00000000      -0.00180670      -0.00653839      -0.00017110
C       -2.41843071       8.53754465       3.84305780       0.00000000       0.00362302       0.00164962      -0.00673599
C        4.96780111       0.00648966       3.91089524       0.00000000      -0.00515856       0.00104947      -0.00076179
C        3.73055708       2.11066371       3.66660438       0.00000000      -0.00144580      -0.00312746       0.00066231
C        2.50091447       4.19582047       3.46478560       0.00000000       0.00272090      -0.00441518      -0.00838575
O        0.95740385       6.21008420       2.56832111       0.00000000      -0.00986643      -0.00596260       0.00883671
C        0.04678467       8.56075695       4.03665296       0.00000000      -0.00072351      -0.00543514      -0.00227954
C        7.41732389       0.07245991       4.11740849       0.00000000      -0.00679543       0.00020553       0.00097856
C        6.18691189       2.16194653       3.83034995       0.00000000      -0.00351371      -0.00346753      -0.00245449
C        4.96143333       4.26101449       3.48003330       0.00000000       0.00949532       0.00397146       0.00045706
S        3.91602752       6.31740792       2.02046746       0.00000000      -0.00140272      -0.00071781       0.00354740
C        2.50119868       8.70449340       4.23254712       0.00000000      -0.00226986      -0.00807355       0.01121059
C        9.91800360       0.07443046       4.10544236       0.00000000      -0.00324925       0.00197423      -0.00408858
C        8.66205437       2.18300229       3.92510202       0.00000000      -0.00018387       0.00724787      -0.00314751
C        7.42180475       4.29711365       3.71064174       0.00000000       0.00940105      -0.00603798       0.00466538
C        6.17819028       6.43009899       3.59768433       0.00000000       0.00153691      -0.00460566      -0.00069588
C        4.95326205       8.57019252       3.98186263       0.00000000       0.00318409      -0.00684132       0.00239744
C        0.03091007       1.43344156       3.80172212       0.00000000       0.00148275       0.00098030      -0.00000047
C       -1.21041835       3.57561928       3.68250311       0.00000000      -0.00220389       0.00370704      -0.00455714
C       -2.43813436       5.71744513       3.67170045       0.00000000       0.00042329      -0.00440680      -0.00245775
C       -3.67184788       7.83908034       3.79155378       0.00000000      -0.00103239       0.00596159      -0.00427342
C       -4.90874362       9.96793652       3.85146526       0.00000000      -0.00069981       0.00808685       0.00228006
C        2.49724321       1.40247565       3.71735872       0.00000000      -0.00155388      -0.00002831       0.00883826
C        1.26918251       3.55195269       3.51844941       0.00000000      -0.00149003       0.00334055      -0.00191890
C       -0.04431948       5.65272534       3.23341738       0.00000000      -0.00379022      -0.00161992       0.00251024
C       -1.18081064       7.83030236       3.82391045       0.00000000       0.00222953      -0.00677099      -0.00607382
C       -2.42924527       9.96427698       3.86544283       0.00000000      -0.00118661       0.00331271      -0.00263422
C        4.96369599       1.42850769       3.80696926       0.00000000      -0.00589828      -0.00158027       0.00849942
C        3.72330440       3.54220635       3.50867399       0.00000000       0.00686616      -0.00139947      -0.00814979
C        1.30483444       7.98362622       4.18488093       0.00000000      -0.00412733      -0.00993332       0.00283042
C        0.03066998      10.00281024       4.04565951       0.00000000      -0.00581820      -0.00208237      -0.00395107
C        7.41907547       1.48128061       3.97512719       0.00000000      -0.00209768       0.00388093       0.00412346
C        6.18847356       3.57890939       3.68474538       0.00000000       0.00673328      -0.00229292       0.00814155
C        4.98792680       5.67547137       3.24028523       0.00000000      -0.00851103       0.01037482      -0.00132116
C        3.69771414       7.96612838       4.14303451       0.00000000       0.00072020      -0.00297258      -0.01235962
C        2.50184998      10.11258731       4.23176147       0.00000000      -0.00539843      -0.00497199       0.00309052
C        9.90693861       1.48149000       3.96953782       0.00000000       0.00100015       0.00890640       0.00251465
C        8.65841792       3.59346133       3.78719482       0.00000000       0.00639745       0.00308909       0.00520032
C        7.41117381       5.72042403       3.68301424       0.00000000       0.00454813      -0.00662995      -0.00419622
C        6.17552306       7.83973096       3.78464999       0.00000000       0.00199159      -0.00593256       0.00725785
C        4.96822513      10.00971374       4.01643183       0.00000000      -0.00113050      -0.00462145       0.00026573
Re       2.48666231       6.33116382       3.82159618       0.00000000       0.00160406       0.01007211       0.01387233
O        1.21545590       5.58703423       6.03586172       1.00000000       0.01034659       0.00077035      -0.00484557
O        2.48618908       5.75092824       5.66683551       1.00000000       0.01032941       0.01123408       0.00753837
