51
Lattice="12.336457 0.0 0.0 -6.168228499999997 10.683685154694365 0.0 0.0 0.0 15.0" Properties=species:S:1:pos:R:3:initial_magmoms:R:1:forces:R:3 energy=-1184094.1549787337 free_energy=-1184094.1549787337 stress="4133.637542374169 -155.12662708147485 -597.3136982342072 -155.12662708147485 3430.885057211449 -1460.6133842852566 -597.3136982342072 -1460.6133842852566 2622.6736278236376" pbc="T T T"
C        2.28888079      -1.56356736       6.15637969       0.00000000     213.92809405    -215.38796926     -59.41838447
C        0.51154238       3.55569212       2.54770745       0.00000000  -29017.05585337   44302.48555545   87817.88626115
C       -3.33335087       4.46737822       1.68924897       0.00000000   -7024.77324786   -2454.91087083   -4847.28531691
C       -4.24377181       5.83817874       6.06007778       0.00000000     -87.25240972    -467.49547273     365.17159960
C       -7.13341622       7.09355835       1.23589185       0.00000000   -2864.27261086    -430.65253010    1914.80362664
C        3.66698820       2.71800387       3.09644157       0.00000000    1358.39320272  -10513.34155058   -5517.07544726
C        1.94514630       4.01330744       4.27387168       0.00000000 -196489.36544190   81757.33054029  291306.69088222
C        0.84986779       4.35799320       4.41136941       0.00000000   -6691.57990788   58022.02883684  466225.09167921
C       -1.03358473       4.25327798       5.14091854       0.00000000  140294.31266745  137410.25191593  -24285.72443461
C       -3.99756952       7.18262207       8.96546467       0.00000000     200.69577378     -87.71384371    -182.34714739
C        3.66719456      -0.80826683       3.77952895       0.00000000   -4412.99634903    5839.20508842   -1232.39760362
C        1.85108924       3.55557168       5.90789495       0.00000000 -171979.66869067  206547.18609911  -86304.35339036
N        5.95926461      13.06000585       2.24786399       0.00000000  -10462.21343579  -20155.67369271  -34018.31922444
C        1.01934806       8.71178506       5.26534581       0.00000000   10153.49619213  -64889.20479504   32604.35280881
C        5.40963199       1.20510174       1.65893933       0.00000000     -76.99251811      88.90638543      35.92509948
C        7.14220157       0.54892583       4.14679915       0.00000000    -259.21197636     153.27260364     685.31226821
C        2.87317617       5.08998867       0.23032762       0.00000000      24.68730973    1167.13055015     281.97050029
N        2.73189696       6.75929393       2.66016414       0.00000000  -91081.46275587   -8125.26973603   31869.66777755
C        1.31021521       7.62073288       5.18813841       0.00000000 -100460.86778668 -123165.84327050   67975.02892636
C        9.72400771       1.39719953       4.81652011       0.00000000     309.69341642    -174.77903283     590.81267006
C        6.82846947       4.18146008       3.21131800       0.00000000   -2567.84394414     761.63305777    1348.18040018
C       12.64466213       0.60853895      -8.77659827       0.00000000       3.76000492    5787.64734898   -2240.99698582
C        9.01812216      -6.92181021      10.42208680       0.00000000     -66.26491989      59.00768005    -316.68313781
C        1.65796698       8.64429016       3.77286402       0.00000000  -16421.26144834  -40134.58482966  -17106.13029828
C        1.39396388       4.16265663       5.47325617       0.00000000 -348577.03915066  475909.50855265 -622439.22977126
C        0.05411293       3.73297543       3.44377496       0.00000000   98534.17806129  217826.79767620  280909.72855857
C       -0.09589002       8.83234126       1.97296605       0.00000000    2143.53477896    3581.92760623   -2294.77047133
C       -5.28282365       7.49858402      -0.29193144       0.00000000     -35.71865478       1.53567503      23.47167522
C       -6.61206854      11.75748601       4.46105518       0.00000000    3003.09158204     642.82142802   15408.22378337
C        4.15711816       4.98711971       4.68913182       0.00000000  -83131.31670695     942.52849640  -18373.21159985
C        0.18668413       3.01024492       4.94257130       0.00000000   98378.88511595  372359.45516422  -54729.70073807
C       -0.35466230       4.71533755       5.24912591       0.00000000 1418116.84333398  909336.52933301 -888592.30493224
C       -1.61436326       6.98816460      -0.94904009       0.00000000      10.41317200      -1.99457584      21.50922519
C        0.79589831      12.96698037       2.50020708       0.00000000    -199.91496105     246.00507627     163.61654357
C        2.33290316       4.11233308       5.16006201       0.00000000 -485882.83212311  473519.47976833 -141171.76282696
C        2.76624532       4.91200494       4.70155926       0.00000000 -113498.21272943    4714.62254037  230848.97077651
C       -1.88259514       5.39673294       4.88323873       0.00000000  393066.08422528   -6693.65994240   47500.46058113
C        1.04336019      10.09214402      -0.43951187       0.00000000      -1.34761015     -60.80328723      60.52752865
C        5.28203167       1.96754994       8.19396692       0.00000000    -317.62265516     319.88345415    -365.62016766
C        2.75338743       6.56908896       4.84069951       0.00000000  144203.79492017  -53810.20510626  211200.42547860
C        2.79081643       5.76073246       5.21681060       0.00000000 -269961.68817473 -174245.58839468  187231.22501063
C        3.14263725       5.87782823       4.10794308       0.00000000 -145475.93911770  -93943.02125664   71738.53564967
C        2.56529814       7.74518749       4.34375947       0.00000000   45714.60783386  -83354.55072264   10902.95008666
C       16.79617277      -5.45577653       7.20209602       0.00000000   65048.41230169   13149.48417086  -69948.75545456
C        9.50184381       6.70894382       6.25050578       0.00000000   12091.08647495   -2925.96251359   -6540.49043923
C       10.53545554       9.50420008      -0.25476034       0.00000000     -12.24210970     -59.48544638      19.97318474
C        6.94676149       3.90696866       1.80244456       0.00000000    -140.73548708     166.06207385     371.54872894
C        3.64444952       7.05171606       4.65124655       0.00000000 -113601.13660667  -22654.86629108   -7752.47010215
Re       0.82114308       5.69588807       4.42107314       0.00000000 -6628060.39226983 -950880.01884119 6492423.16973678
O        2.01392818       4.47515919       5.89974268       1.00000000 -1026885.66291636 1254970.96590783 -1203984.90397319
O        0.72281628       5.60008797       4.69343404       1.00000000 7422874.98610843 -2610138.67861357 -5339541.27920052
