52
Lattice="12.336457 0.0 0.0 -6.168228499999997 10.683685154694365 0.0 0.0 0.0 15.0" Properties=species:S:1:pos:R:3:forces:R:3 energy=-453.9276985305674 free_energy=-453.9276985305674 stress="-0.00487512696360934 8.532385031517522e-06 -1.0428964137155e-05 8.532385031517522e-06 0.0016849778724637456 2.8241488000562288e-06 -1.0428964137155e-05 2.8241488000562288e-06 -3.31434048311715e-05" pbc="T T T"
C        0.01686946       0.00179023       3.95611561       0.00549838       0.00567346      -0.00021396
C       -1.22161706       2.12536237       4.01325408      -0.00400955       0.00077927       0.00284091
C       -2.43366832       4.26835295       3.91634934      -0.00496638      -0.00490476      -0.00557389
C       -3.65324455       6.41348634       3.78070008       0.00184590       0.00343839      -0.00755158
C       -4.91872740       8.54866776       3.79620802       0.00080345       0.00637514       0.00127701
C        2.47798162       0.01480458       3.97690338       0.00636036      -0.00654358      -0.00607053
C        1.23031720       2.18008459       4.02629107       0.00404920      -0.00037415       0.00059987
C        0.00504888       4.25694994       4.08729841       0.00072345       0.00194677      -0.00004256
C       -1.21951439       6.41809178       4.01572293      -0.00427408       0.00276702      -0.00035303
C       -2.45184372       8.55399854       3.95806500       0.00043137       0.00173990       0.00593633
C        4.95185352       0.00295700       3.89506329      -0.00035797      -0.00030836       0.00066156
C        3.70142960       2.09374212       3.64955988      -0.00156848      -0.00381431      -0.00090792
N        1.16903746       6.41316968       4.11843610       0.00242611      -0.00333558       0.00201017
C        0.01292065       8.52858463       4.02189957       0.00327083      -0.00370232       0.00778211
C        7.41666439      -0.01342678       3.93048094      -0.00199593       0.00117344       0.00554464
C        6.20232623       2.12134610       3.58429957       0.00829622      -0.00078904       0.00177147
C        5.17808726       4.28596882       2.91204462      -0.00393229       0.00179993       0.00329710
S        3.56534313       6.32733817       2.85270322      -0.00627260       0.00967847      -0.00494885
C        2.47376796       8.50985637       3.93434045      -0.00032077       0.00072238      -0.00428511
C        9.88364135      -0.02279764       3.95776569       0.00203075       0.00379021      -0.00331782
C        8.65982662       2.12355468       3.84647481       0.00195597       0.00153406       0.00227622
C        7.48761917       4.26619315       3.53772190       0.00023917      -0.00258434      -0.00307380
C        6.27937078       6.43620485       3.32278101       0.00136005      -0.00329239      -0.00146514
C        4.95493183       8.53536456       3.69615760       0.00014922      -0.00467106      -0.00162566
C        0.01309872       1.43407139       4.02539458       0.00018527       0.00547649       0.00693240
C       -1.21950995       3.54458047       4.01838289      -0.00261350      -0.00103366      -0.00440528
C       -2.43376901       5.69449052       3.91622118      -0.00193390      -0.00340962      -0.00952739
C       -3.67648659       7.83884412       3.84686849      -0.00029792       0.00559527       0.00420635
C       -4.91993367       9.97595928       3.93348821       0.00524105       0.00395771       0.00095190
C        2.47371377       1.45364943       3.93687858      -0.00044521      -0.01058369      -0.01151776
N        1.16917998       3.54961473       4.12314459       0.00593697       0.00253942       0.00455836
C        0.00532468       5.70575782       4.08528727      -0.00219155       0.00245658      -0.00127933
C       -1.22168977       7.83720727       4.00978327      -0.00033324       0.00289529       0.00738798
C       -2.45301913       9.98563832       3.95696562       0.00360125      -0.00323118      -0.00008484
C        4.95447183       1.42768590       3.69514669       0.00324798       0.00003757      -0.00465585
S        3.56477556       3.63389496       2.84759911      -0.01159221      -0.00280364      -0.00507487
C        1.23033399       7.78249868       4.02332694       0.00514258      -0.00425203      -0.00655090
C        0.01697471       9.96078385       3.95337155      -0.00190243      -0.00281649      -0.00274048
C        7.41742308       1.41377272       3.79419520       0.00731628       0.00029978       0.00168055
C        6.27932057       3.52659925       3.32191288       0.00115703       0.00026129      -0.00076373
C        5.17835999       5.67628131       2.91299226      -0.00848729       0.00283051       0.00467675
C        3.70196924       7.86959410       3.65021405      -0.00378144      -0.00355948      -0.00458826
C        2.47825146       9.94823429       3.97512744      -0.00048442       0.00282576      -0.00632919
C        9.88467508       1.40864025       3.95916582      -0.00202578       0.00365508       0.00838255
C        8.68340408       3.54910522       3.78019321      -0.00274014      -0.00365621      -0.00441826
C        7.48762565       5.69659180       3.53764229       0.00157460      -0.00278862       0.00308146
C        6.20272187       7.84137707       3.58605094       0.00201723      -0.00200471      -0.00053866
C        4.95188912       9.95987464       3.89674521       0.00418197       0.00081013       0.00043491
Re       2.76898173       4.97888867       4.66886879      -0.00777176      -0.00039315       0.00528837
O        4.24149981       4.96073732       5.51247434      -0.00366072      -0.00010917       0.00111808
O        1.72931524       4.99970371       6.37428937      -0.01034545       0.00022612       0.01475690
H        2.33899419       4.98524038       7.12983846       0.00926235      -0.00032394       0.00445067
