52
Lattice="12.336457 0.0 0.0 -6.168228499999997 10.683685154694365 0.0 0.0 0.0 15.0" Properties=species:S:1:pos:R:3:forces:R:3 energy=-450.92724447329044 free_energy=-450.92724447329044 stress="-0.0018022115307058245 -0.003390703720045545 -6.76833295123492e-06 -0.003390703720045545 -0.004013484802333642 8.011982595419564e-06 -6.76833295123492e-06 8.011982595419564e-06 9.049156841493302e-06" pbc="T T T"
C        0.04614998       0.04047856       3.85039072       0.00025518      -0.00225940       0.00131658
C       -1.21973957       2.17163510       3.67452778      -0.00335123      -0.00515436       0.00212615
C       -2.46939172       4.32375833       3.83846325      -0.00648672      -0.00072189      -0.00235900
C       -3.62869639       6.47156201       4.07214784       0.00192418       0.00764354      -0.00529059
C       -4.85389561       8.61605950       4.06360381       0.00263523       0.00066382       0.00599887
C        2.52491131       0.01336365       3.71122389      -0.00921743      -0.00577060       0.00189846
C        1.26072188       2.05419746       3.28002212      -0.00269916      -0.00097337      -0.00396619
C       -0.15818287       4.34071056       3.15657495       0.00383531       0.01017776       0.00437144
C       -1.21935215       6.46850774       3.59091561       0.00348022       0.00417296      -0.00891286
C       -2.38698865       8.58960847       3.84914649       0.00392768       0.00145080      -0.00017933
C        4.99338915       0.05328252       3.79588275      -0.00703019       0.00168404      -0.00263694
C        3.74890088       2.09468002       3.36692404      -0.00619515       0.00175092      -0.00240508
S        1.47081706       6.40325942       2.79995368      -0.00902104       0.00373955       0.00297130
C        0.07745344       8.58901579       3.71585422      -0.00023780      -0.00674761       0.01032096
C        7.44405672       0.05847344       3.98632173      -0.00084646       0.00990402       0.00139039
C        6.17256269       2.22070927       4.06564759       0.00150660       0.00556300       0.01009304
C        5.02162898       4.45336413       4.58249317      -0.00021586      -0.00304324      -0.00022639
N        3.88556136       6.49555035       4.26980537       0.00036257      -0.00229099      -0.00099995
C        2.53891914       8.58492747       3.95909858      -0.00228119      -0.00626422      -0.00314715
C        9.91304765       0.05370131       4.01577942      -0.00231429       0.00070048      -0.00916284
C        8.65596553       2.19688485       4.03132289       0.00249451      -0.00054784      -0.00137725
C        7.43123378       4.34292073       4.25417678       0.00379848      -0.00307158      -0.00057543
C        6.30305225       6.53922793       4.39535032       0.00086986      -0.00155728       0.00405622
C        5.00248331       8.60630836       4.15208495       0.00264289       0.00058956      -0.00229285
C        0.02525693       1.44957043       3.58932875      -0.00022738      -0.00349297       0.00327674
C       -1.27406481       3.58834585       3.55341632      -0.00117080       0.00409464      -0.00012648
C       -2.43466585       5.74695156       3.84679278       0.00076656       0.00179921      -0.00074622
C       -3.62282392       7.89206813       4.00656663       0.00615112       0.00943921       0.00536591
C       -4.87998945      10.01956932       3.87810289      -0.00360703      -0.00539832      -0.00251162
C        2.50286476       1.39136347       3.41134511      -0.00680725      -0.00678502      -0.00544933
S        1.33302441       3.65683418       2.65870577       0.00388836      -0.00892096       0.00207899
C       -0.10648370       5.72418245       3.17529072       0.01109550       0.01067961      -0.00165367
C       -1.16343569       7.88412751       3.70449921       0.00276301      -0.00126770      -0.00486180
C       -2.39703451      10.01280897       3.78447841      -0.00773565      -0.00247751       0.00405056
C        4.97965557       1.48210246       3.76203015      -0.00142000       0.00300987      -0.00533552
O        3.74048245       3.35312874       3.04017455       0.00613824       0.00237329      -0.00516913
C        1.33353925       7.93190146       3.60860390      -0.00271668      -0.00856960      -0.00225190
C        0.06119824      10.02116427       3.86632596      -0.00119305      -0.00127069       0.00128481
C        7.41021714       1.49822584       4.05731726       0.00417034       0.01133267      -0.00201070
C        6.16512822       3.65059081       4.33397793       0.00444226       0.00231844       0.00704579
C        5.08426828       5.86248491       4.47363979      -0.00064409      -0.00087683      -0.00075840
C        3.78902441       7.86957895       4.11934954       0.00025497      -0.00243597      -0.00379177
C        2.51642914      10.02018422       4.03047879      -0.00298723      -0.00095649       0.00681817
C        9.90110202       1.48016840       3.92216122      -0.00340395      -0.00088178       0.00231744
C        8.64718824       3.62036248       4.05663644      -0.00312984      -0.00643759      -0.00581485
C        7.48628032       5.77064134       4.27840023       0.00371870      -0.00146575       0.00114936
C        6.25829999       7.93411168       4.22769060       0.00452371      -0.00078043       0.00777926
C        4.98293606      10.02563739       4.01812397      -0.00015847       0.00120085       0.00496756
Re       2.93635886       4.65721812       4.48709819       0.01007929      -0.00187323       0.00700042
O        1.70987121       5.41290259       5.43477117      -0.00004230      -0.00737664      -0.00289698
O        2.94450371       3.17128284       5.77496560       0.00069549       0.01759489      -0.00016324
H        2.42159126       3.37592016       6.56981191      -0.00128000      -0.01221327      -0.01060495
