51
Lattice="12.336457 0.0 0.0 -6.168228499999997 10.683685154694365 0.0 0.0 0.0 15.0" Properties=species:S:1:pos:R:3:initial_magmoms:R:1:forces:R:3 energy=-787392.1937467437 free_energy=-787392.1937467437 stress="2092.710524971899 193.8695598318459 157.8456228386564 193.8695598318459 1260.7814130547356 -336.4628231925662 157.8456228386564 -336.4628231925662 2127.977599222211" pbc="T T T"
C        2.33734576      -5.19170072       8.64904375       0.00000000     583.97189211     158.08463871    -137.48470042
C       -0.68164225       2.14271794       0.56810878       0.00000000   13949.35619447     -64.24417703  -10683.69999370
C       -1.12320516       3.62542389       1.45875865       0.00000000   63600.86572208  117077.17612048  280503.98250465
C       -5.42382521       5.33845718       7.92762987       0.00000000    4101.80771661    4015.59546807   -1622.11174241
C       -2.11243240       7.20760767       1.19695104       0.00000000   18050.26375805  -36267.42933432   38494.61125376
C        6.17150021      -1.96865130       0.72581014       0.00000000   -2054.30573254   -4785.42774234    3777.98562418
C        3.43928295       6.50081542       1.96065896       0.00000000   -8273.83122455   -2895.20010880    1642.08193744
C        1.34925471      -1.52932406      -1.33912669       0.00000000       7.99684542      18.28185767      58.78711410
C       -0.69126646       5.18476711       5.66522108       0.00000000   67632.13602290   30965.26494766 -417008.02096063
C       -1.95090631       8.15457849       1.76742047       0.00000000   16339.63652284  -31152.70813565   17508.57479171
C        5.39509427      -0.20864380       0.06259248       0.00000000     105.46937238   -1207.93878127     660.75706152
C       -3.85709487       1.08293734      -3.61381442       0.00000000       8.91526979       0.88647907      23.82088738
P       -0.91858490       4.88318266       2.91093699       0.00000000 1074851.36221332 1029561.84686844  465125.16623359
C        9.94414352       8.16643694       8.97856990       0.00000000     -12.54135516     -45.12569114     -73.26586539
C        8.66092772      -2.61045213       5.17226258       0.00000000   -5282.34392558   -3625.30766822    -824.69799036
C        2.32622031       4.87128772       2.60183643       0.00000000 -123553.80112276   57273.13151186   13968.27104580
C        6.62335701       4.96312409       8.11332278       0.00000000   -3283.76473668   -3985.32202401     286.81981563
P        0.35895378       6.63706918       4.51282788       0.00000000   59814.61030486   90508.64851610   84155.81881958
C        6.81062301       9.15556706       6.82975638       0.00000000   -2310.13740077    -704.02201394   -6680.01557755
C       12.83156853      -1.36741223       5.22391298       0.00000000   -9180.34155132   15256.92839901   -7095.89042703
C        9.88709694       5.42716917       2.75547887       0.00000000  355195.30115505   10487.71128130  -18593.10735604
C       10.24588720       5.19426731       3.23341500       0.00000000   71064.60886117  -13022.34542269  -14058.44239956
C       10.38298746      11.85562635      10.84656490       0.00000000       0.35175259      -0.07801096       0.19383723
C        8.53971012       6.09970949      14.21727122       0.00000000   -2266.65325301     -86.02549590   -1865.94864778
C        4.62111407       0.14449168       3.97595397       0.00000000    -832.82944728    2723.32869782     539.04834601
C       -1.48668227       4.16192192       1.73502709       0.00000000   34576.72478821  -35915.59081280   27503.12130747
C       -2.60202698       7.09243985       2.36848238       0.00000000   44278.18867071  -39972.37312528   17478.80299144
C       -9.12979086       4.52050428       5.66817039       0.00000000    -116.10309124    1056.06752524   -1776.76708236
C       -8.89967451       7.54450435       3.33296098       0.00000000   -4434.95920045   -2701.91990574     601.88681092
C        0.59228722       5.26441567       3.22030702       0.00000000 -2106968.75773386  741766.39236705 -989861.35164535
N       -5.26686830       8.87193523      -9.62811193       0.00000000    5588.40473670   -8903.18665408   14690.33607945
C       -2.34736132       6.26450288       5.61520247       0.00000000   54013.63011428  -14900.86400783  -73318.49019001
C        0.16740518      11.04170683       3.00882820       0.00000000     358.95107656    3831.59221576     -56.27232931
C       -1.25295231      12.96561994       6.61040808       0.00000000     249.52979128     964.16350913    -286.44956852
C        6.30675305       0.60875904       5.37602720       0.00000000     -24.59234097      36.13368513      13.24176961
N       -2.99153918      -6.56395632       7.32251515       0.00000000    1690.31486531   -2178.59630194    3233.32241158
C       -9.16455996      17.25703129       9.57782875       0.00000000      -6.91089888     -10.13345645     -61.75989404
C        0.01605397      13.12262646       2.21620958       0.00000000     563.10653277     337.83905490     -89.88164919
C       11.06559520       3.54583478      -1.82997802       0.00000000    -609.82268552    -713.56702771    -752.91714017
C       -0.74673016       3.27186607       1.97444862       0.00000000    4243.18684785  246613.06761164   18426.09054827
C        5.31161872       4.93596187       5.77099212       0.00000000  103462.99979306  -45834.13400931 -431725.30669082
C        6.46808757       9.57795008       6.01192835       0.00000000     801.98392623   -4103.65180059   -9016.49645575
C        6.00426579       9.46464386       5.92746209       0.00000000    4938.10468900   -1964.55498435    7959.66225270
C       10.91363409       2.03397854       0.17891724       0.00000000  -11786.42215205    4715.72196308   -5007.52947342
C       11.06297079       2.68165724       2.63466210       0.00000000  -10032.19262377   71979.36180703   18174.56611746
C        8.91273660       4.11181593       1.08598027       0.00000000    2674.09202580     238.31764294   -1680.23018442
C        5.23465436       4.96935298       6.09234370       0.00000000 -105164.86537860   45536.30596357  435464.94654876
C        5.40207274       6.99035090       7.48858564       0.00000000     437.13382542      -8.96061557    -768.26776462
Re      -0.08046350       5.58561948       2.76195497       0.00000000 1947698.34230641  -74988.47985684 2241165.69903321
O       -0.72703834       4.62677258       4.83762769       1.00000000  403184.72681631  517033.95248142 -950799.92471159
O       -0.17640943       5.54643815       3.09213571       1.00000000 -1957870.89855451 -2662118.61344832 -747613.26470301
