51
Lattice="12.336457 0.0 0.0 -6.168228499999997 10.683685154694365 0.0 0.0 0.0 15.0" Properties=species:S:1:pos:R:3:initial_magmoms:R:1:forces:R:3 energy=-447.0184059530785 free_energy=-447.0184059530785 stress="0.00027406868785837674 -0.0001895429370471383 -1.780317633978437e-05 -0.0001895429370471383 0.0009074133815422989 1.661534971857097e-05 -1.780317633978437e-05 1.661534971857097e-05 1.6020773387510276e-07" pbc="T T T"
C       -0.01061203       0.00864944       3.63463596       0.00000000      -0.00260346      -0.00036101      -0.00198167
C       -1.24279903       2.15259276       3.75857391       0.00000000      -0.00082436       0.01443383       0.00369502
C       -2.52108102       4.27831808       4.04847898       0.00000000      -0.00636985      -0.00201663       0.01012105
C       -3.74321902       6.41480509       4.04612320       0.00000000      -0.00084513      -0.00781619      -0.00252860
C       -4.95790414       8.55287712       3.80076507       0.00000000      -0.00323375      -0.00048812       0.01659548
C        2.46219530      -0.02840065       3.54721573       0.00000000      -0.00720623       0.00409105       0.00703187
C        1.24389345       2.07911769       3.36578612       0.00000000      -0.00790110       0.00659094      -0.00550429
C       -0.10587561       4.35409299       3.95108738       0.00000000       0.00222911       0.00142727      -0.00853146
C       -1.29187052       6.44074944       4.13754451       0.00000000       0.00390845      -0.00196591       0.00411443
C       -2.49128586       8.54493283       3.90183721       0.00000000      -0.00504279       0.00677026      -0.00595084
C        4.93047643      -0.03229465       3.66721613       0.00000000      -0.00235550       0.00464478      -0.00232705
C        3.72854616       2.02653644       3.08176422       0.00000000      -0.00135357       0.00605058       0.01700041
N        1.16503324       6.38557131       4.06067232       0.00000000       0.00919660      -0.01059482      -0.00282113
C       -0.00620162       8.51132849       3.92205708       0.00000000       0.00310830       0.00181180       0.00011210
C        7.39442507      -0.02596904       3.79085977       0.00000000      -0.00880583       0.00527553      -0.00632402
C        6.14250706       2.13831248       3.68954409       0.00000000      -0.00101778       0.00179596      -0.00225944
C        4.87421589       4.33089197       3.65657331       0.00000000       0.01506132       0.00572404      -0.00123646
O        3.78874591       6.47593828       3.29590239       0.00000000      -0.00151792       0.00173580      -0.00112591
C        2.46788482       8.48107988       3.74890373       0.00000000       0.00199597      -0.00763582      -0.00975134
C        9.84939192      -0.00768076       3.73644869       0.00000000      -0.00204986      -0.00950385       0.00410762
C        8.60982452       2.13489247       3.87755920       0.00000000       0.00240660      -0.00813567      -0.00479741
C        7.33959439       4.26807039       3.98626436       0.00000000       0.00548307      -0.00833663       0.00003845
C        6.15199337       6.44351362       3.87643650       0.00000000       0.00358528       0.00746618      -0.00307939
C        4.91938220       8.55641746       3.65050146       0.00000000       0.00042208       0.00203986      -0.00066676
C       -0.00184546       1.44643103       3.58806290       0.00000000      -0.00811661       0.01011916      -0.00462189
C       -1.27423292       3.57382403       3.93130996       0.00000000      -0.00533928       0.01177489       0.00743903
C       -2.51155613       5.70248868       4.11021893       0.00000000      -0.00024670      -0.00536310       0.00416430
C       -3.72856957       7.83726611       3.93279996       0.00000000      -0.00358671      -0.00266291      -0.00187994
C       -4.94846639       9.97402898       3.65699677       0.00000000      -0.00506424      -0.00299029       0.00415130
C        2.47437952       1.37878469       3.27831071       0.00000000      -0.00332292       0.00781557       0.00854998
S        1.33745571       3.79827930       3.25073305       0.00000000      -0.00062737      -0.00728586      -0.00383263
C       -0.04774277       5.76102238       4.11137983       0.00000000       0.00580570      -0.00648225       0.00082045
C       -1.26091380       7.84288227       4.01455708       0.00000000       0.00024214       0.00361552       0.00546211
C       -2.47634270       9.95087523       3.69703028       0.00000000      -0.00658149       0.00884497      -0.00091090
C        4.92719780       1.39423717       3.47487554       0.00000000       0.00410754      -0.00132541       0.00124759
S        3.84438726       3.61902854       2.32552290       0.00000000       0.00477988      -0.00305133      -0.00132590
C        1.21414877       7.74937602       3.93220931       0.00000000       0.00373467      -0.00984074      -0.01173763
C       -0.00273207       9.93643511       3.80066516       0.00000000      -0.00533002       0.00568096      -0.00007750
C        7.37764270       1.41547048       3.79841273       0.00000000      -0.00538895       0.00435345       0.00136499
C        6.12178502       3.55010174       3.83241880       0.00000000       0.00272080       0.00134716      -0.00412845
C        4.96420012       5.77090409       3.65728315       0.00000000       0.00669651       0.00981537      -0.00005142
C        3.71227934       7.87291988       3.56554707       0.00000000       0.00455876      -0.00223916       0.00621603
C        2.45737832       9.92991461       3.77196621       0.00000000      -0.00884976      -0.00521494      -0.00462371
C        9.85963994       1.43181377       3.80004327       0.00000000       0.00393793      -0.00524325      -0.00252214
C        8.58904647       3.55699900       3.98814187       0.00000000       0.00154780      -0.01004050       0.00084006
C        7.36520049       5.69953322       4.00762994       0.00000000       0.00017208      -0.00621386      -0.00549393
C        6.15432056       7.85902950       3.77914063       0.00000000      -0.00060698       0.00570558      -0.00288089
C        4.91760108       9.98472564       3.67984440       0.00000000       0.00097480      -0.00585642      -0.00298203
Re       3.07342083       4.90697284       4.64614837       0.00000000       0.00342902      -0.00363397      -0.00370004
O        3.21000982       6.14009717       5.85786124       1.00000000       0.00499994      -0.00167911       0.00430342
O        3.06117536       3.47131032       5.58085735       1.00000000       0.00908381      -0.00295274       0.00227907
