51
Lattice="12.336457 0.0 0.0 -6.168228499999997 10.683685154694365 0.0 0.0 0.0 15.0" Properties=species:S:1:pos:R:3:initial_magmoms:R:1:forces:R:3 energy=-858472.9963842145 free_energy=-858472.9963842145 stress="1203.0973060862118 356.4068438565801 -75.29539369800672 356.4068438565801 329.07875344971427 22.719334343016335 -75.29539369800672 22.719334343016335 292.6789377681263" pbc="T T T"
C       -0.29869398      -0.17282977       4.04039260       0.00000000    5157.96329594    9258.79050741    6348.72721393
C       -5.01948283       6.41051744       1.80804242       0.00000000       5.44445724      -3.31456905      -8.66989702
C       -8.21193747       2.47670707       2.16177781       0.00000000  -11711.29759508  -10861.93104475    2287.07655921
C       -3.27226963       4.05295394       2.99002181       0.00000000    -767.00998977      -9.25579159    -180.38487481
C       -2.66989487       8.71641746       2.93649973       0.00000000     -16.74283668    -118.77065473    -497.46684483
C       -0.82183414      -7.35452440       1.10825006       0.00000000   -1313.93647583    -842.25767625     849.59580490
C       -1.10108292       1.66327822       5.85300814       0.00000000    5949.72849607   18714.21382720    2151.05503798
C       -0.95682976       2.34063136       6.79656571       0.00000000   43179.57375740   -5557.95757345  -35407.76305724
C       -0.83300771       1.98254374      19.21892128       0.00000000   50926.25589491    4588.07681462   39017.17937776
C       -1.07802534      12.49910850       1.93331733       0.00000000   -2234.99486129    1167.33838541     610.53143690
C        8.98882311      -6.48666999      -2.97344296       0.00000000      -2.97837383      -7.01588952      39.31700519
C       -5.36726143       8.60366577      -1.34752622       0.00000000       1.31059030      -0.48142765       0.62993937
N       -0.62456427       3.37295377       6.58870093       0.00000000  -71038.18932211   15164.30219788   12088.61753603
C        3.49727862      16.18787852      13.38926341       0.00000000      -0.29477199       0.10420069      -0.51674678
C        8.80814981      10.42559939       1.79235482       0.00000000     -50.40127549     267.11748134     464.88293204
C       12.51114440      -4.93179915       2.11905006       0.00000000       4.02387177      19.55303214      -0.69941846
C        7.37738626       9.71327930       3.75190027       0.00000000     942.25470978    2152.08182439    2489.99204921
P        2.49789242       3.81090456       6.69240962       0.00000000  -91279.63006036   -6558.98164197  -15512.63913578
C        2.12328915       9.59168576       8.30479430       0.00000000      21.59460987      12.75468548     -26.59162156
C       10.83683452       8.94283623      -0.05486221       0.00000000      -2.59668521       1.57906883      -0.48765651
C        7.12275312       1.22086056      -1.38810573       0.00000000      18.68313975     -51.07958137     -51.63842848
C        5.38479760       0.71078884       2.16023806       0.00000000     335.79522679     440.64363762    -545.56021033
C        8.53235564       8.86698314       8.55627310       0.00000000     436.99509847   -1900.59446485    1293.64313548
C        7.08413095       6.25623822       6.85966794       0.00000000      44.61136722      26.93481325      -6.38551562
C        1.47846445       0.97986528       4.27183507       0.00000000   39271.78267505  135408.82234099   72170.61664205
C       -5.37563462       9.55244250       9.69448782       0.00000000    -117.41543570    -552.29593027     655.52147098
C      -11.59470473      12.56498590      -0.75114036       0.00000000      -4.07312604      43.18473680      36.27311545
C       -4.09629205       6.67402990       5.51673123       0.00000000     -63.55227071      12.90349860     -21.63825684
C        5.75141586       8.58251068      -0.62546449       0.00000000      -3.80175367       2.32381154       6.30235156
C        2.59023700       3.79685114      11.01525958       0.00000000      49.95616201      39.18494257     332.50701387
N        2.02524919      -3.82264687       6.59354777       0.00000000       2.56134753      55.17779743       4.53909956
C       -0.81830093       4.57878749       5.37398013       0.00000000   26825.80613895  -35031.36638399   13770.99016504
C       -2.65158388      12.89836922       2.40982366       0.00000000    4144.92424910    9907.35403970   10155.70356198
C       -3.02430653       6.41631370       5.58527098       0.00000000    -398.10793535     258.30603550     115.35413847
C        6.76756359      -5.50268402       0.61558782       0.00000000    -128.26738125     460.48022434    -930.48038663
P        1.83773445       3.07016648       3.31516917       0.00000000  -24258.87260570  -41867.94776409  144703.86248022
C       -5.13006631       1.38777779       3.12993727       0.00000000     149.58654443      21.09243850      45.97110876
C        1.17539368       4.90149308       5.97743374       0.00000000   16224.54054439  -28190.02416256    1342.44726287
C        9.81358510      11.32716910      -0.30089644       0.00000000      22.00097665     211.08964970     247.63423994
C       10.56598917      16.33745626      -5.35445149       0.00000000     134.70342533     110.23711391     170.39063295
C        9.59457813       9.58483755       2.60299970       0.00000000     110.98024204    -290.41634555     770.20453615
C        4.54660537      11.76473554       3.65766350       0.00000000    3777.33341856    5901.86804297    1882.27225724
C        5.79444264       9.05753851      -1.81641674       0.00000000      -0.38905944       1.26926462      -0.89657537
C       16.01659440      -3.66571225       4.57668172       0.00000000    -182.36173327     358.95382397    -171.48686950
C        5.67642403      -0.66171034      13.00094780       0.00000000      -0.00091614      -0.71610957       3.64212471
C        4.23694145       6.23866917      -4.50996050       0.00000000      23.10844953      69.57470139      99.88103051
C        9.37901850       2.70836702       5.08928622       0.00000000    6162.74232427    -817.19014632    3725.56963480
C        1.92684107       7.62988669      -2.59870409       0.00000000      -0.00397419      -0.03409248       0.00159625
Re       1.15664638       2.54229063       5.53746243       0.00000000 5876693.76066769 1933853.05629856 -539759.48607361
O        1.19404510       3.61156160       5.91921769       1.00000000 -193969.96201556 -135697.10386473   15415.69086805
O        1.51541299       2.58999523       5.47007110       1.00000000 -5683073.14122638 -1870169.63412263  259826.16820996
