51
Lattice="12.336457 0.0 0.0 -6.168228499999997 10.683685154694365 0.0 0.0 0.0 15.0" Properties=species:S:1:pos:R:3:initial_magmoms:R:1:forces:R:3 energy=-450.0594319614123 free_energy=-450.0594319614123 stress="-0.004332353354331138 -0.001234812159366455 1.9213977699950968e-05 -0.001234812159366455 0.0018905321017965895 -1.0232296487797102e-05 1.9213977699950968e-05 -1.0232296487797102e-05 -1.2892002309882435e-05" pbc="T T T"
C       -0.01785440       0.00412952       3.82535220       0.00000000       0.00268662      -0.00257023       0.00481425
C       -1.26334280       2.12248256       3.93258102       0.00000000      -0.00235224       0.00270974      -0.00082466
C       -2.47975714       4.26639624       3.90444009       0.00000000       0.00040772       0.00238684       0.00511150
C       -3.68832098       6.41408154       3.74769879       0.00000000       0.00279815      -0.00265354       0.00500172
C       -4.94874246       8.55007481       3.69501479       0.00000000      -0.00599629       0.00024762       0.00008933
C        2.44263300       0.00884991       3.90281194       0.00000000       0.00753369       0.00610227      -0.00004117
C        1.18730534       2.18382938       3.88841095       0.00000000      -0.00240159      -0.00249534      -0.00508530
C       -0.05022913       4.24884028       4.05805938       0.00000000       0.00146792      -0.00269692       0.00248094
C       -1.24809891       6.40942322       4.01935916       0.00000000       0.00085398       0.00160720      -0.00065266
C       -2.47949924       8.54698494       3.92407716       0.00000000      -0.00329440      -0.00302023      -0.00074427
C        4.92305814      -0.01186270       3.87445943       0.00000000       0.00401635      -0.00025676      -0.00259847
C        3.66950257       2.08059669       3.64556319       0.00000000       0.00329173       0.00191602      -0.00152658
N        1.15906668       6.38006064       4.13635458       0.00000000      -0.01018995       0.00214524       0.00130941
C       -0.00284962       8.50598988       3.98587067       0.00000000       0.00268239       0.00185386      -0.00082132
C        7.38443224      -0.02446040       3.87700416       0.00000000      -0.00414814       0.00125227       0.00437084
C        6.16282265       2.12176244       3.60135316       0.00000000       0.00094422       0.00021833      -0.00619001
C        5.13863051       4.29882687       2.94566680       0.00000000      -0.00651341       0.00059349       0.00376472
S        3.55198773       6.38033637       2.53476091       0.00000000       0.00051445      -0.00521174      -0.00868263
C        2.44702838       8.49600372       3.78036442       0.00000000       0.00748213      -0.00266665       0.00173393
C        9.84718799      -0.02532402       3.83696090       0.00000000      -0.00082790      -0.00535369      -0.00653761
C        8.61815431       2.12085548       3.81518119       0.00000000      -0.00062307      -0.00057915       0.00666273
C        7.44398828       4.27061031       3.54908524       0.00000000      -0.00082390       0.00020383      -0.00334047
C        6.25110784       6.44024397       3.23218439       0.00000000       0.00308589      -0.00062399      -0.00563736
C        4.92302279       8.54907472       3.50164301       0.00000000       0.00167622      -0.00476274       0.00671422
C       -0.02486903       1.43598263       3.90339194       0.00000000      -0.00400860      -0.00048506      -0.00101970
C       -1.26946587       3.53873682       3.98809732       0.00000000       0.00166305       0.00415821      -0.00723689
C       -2.47144463       5.69220990       3.90484943       0.00000000       0.00435191       0.00050725       0.00804963
C       -3.70709883       7.83890171       3.79127422       0.00000000      -0.00817862      -0.00312601       0.00572687
C       -4.95446104       9.97545579       3.82584822       0.00000000       0.00671612       0.00274959      -0.00230661
C        2.43037012       1.44611993       3.86036007       0.00000000       0.00145785       0.00534448      -0.00490200
N        1.10959771       3.56051676       3.90472296       0.00000000       0.00666880      -0.00101078       0.01136919
C       -0.03473689       5.69499175       4.11123644       0.00000000      -0.00743858      -0.00300431      -0.00518219
C       -1.24722464       7.82705486       3.99543803       0.00000000       0.00093738       0.00232222       0.00738902
C       -2.48507935       9.97734147       3.91680429       0.00000000       0.00464276       0.00036445       0.00047711
C        4.92174189       1.41620041       3.69748405       0.00000000       0.00220214       0.00026249       0.00523407
S        3.54555298       3.64285796       2.90549030       0.00000000      -0.00108280       0.00327700      -0.00348449
C        1.21227767       7.76523749       3.96160130       0.00000000       0.00158262       0.00330832      -0.00041686
C       -0.00969928       9.94414069       3.91660316       0.00000000      -0.00002661      -0.00004791       0.00390586
C        7.37925170       1.40888550       3.77347318       0.00000000      -0.00090372       0.00025961       0.00435265
C        6.23565624       3.53377712       3.35573735       0.00000000       0.00043625      -0.00045854      -0.00681513
C        5.14500802       5.68604322       2.81994071       0.00000000      -0.00251928       0.00202478      -0.00767676
C        3.66623814       7.89859049       3.37227772       0.00000000       0.00505162      -0.00221214      -0.00348145
C        2.44666730       9.93756535       3.86246878       0.00000000      -0.00430991      -0.00243152      -0.00406196
C        9.84501794       1.40458648       3.88317818       0.00000000      -0.00007566      -0.00219324       0.00161127
C        8.63789082       3.54807812       3.77324631       0.00000000      -0.00191570       0.00175926       0.00584879
C        7.44806435       5.70073998       3.50902434       0.00000000       0.00343396       0.00139885      -0.00452160
C        6.17593729       7.85042444       3.44654534       0.00000000      -0.00329172      -0.00357087      -0.00229163
C        4.91852235       9.96459920       3.74241016       0.00000000       0.00248946      -0.00477807       0.00199972
Re       2.69907620       4.97847321       4.71710138       0.00000000       0.01736821       0.00184824       0.00539400
O        2.38884367       3.96377888       6.08305175       1.00000000      -0.01586132       0.00436874       0.00532179
O        3.84689904       6.07106530       5.38371751       1.00000000      -0.01166018       0.00101922      -0.01265378
