52
Lattice="12.336457 0.0 0.0 -6.168228499999997 10.683685154694365 0.0 0.0 0.0 15.0" Properties=species:S:1:pos:R:3:forces:R:3 energy=-453.2681140116895 free_energy=-453.2681140116895 stress="-0.00415948469116991 -2.0065830086483018e-05 -1.2177849374934844e-05 -2.0065830086483018e-05 0.00017826506402946913 1.2962480843977933e-05 -1.2177849374934844e-05 1.2962480843977933e-05 1.681967910315567e-05" pbc="T T T"
C        0.02444121       0.08951509       3.62715657       0.00051535      -0.00082386       0.00218967
C       -1.22266597       2.19173822       3.42219234       0.01171101      -0.00250697       0.00018060
C       -2.45456138       4.34241773       3.29472838       0.00490321       0.00268873       0.00188872
C       -3.68177713       6.49427868       3.40209226      -0.00789699      -0.00137611      -0.01014482
C       -4.91262136       8.63818821       3.62754617      -0.00090873      -0.00233608      -0.00200202
C        2.48607935       0.12601338       3.70119482      -0.00279304       0.00330682       0.00897751
C        1.21873564       2.24942847       3.84613376       0.00099983       0.00171470       0.00121736
C       -0.05542486       4.27893146       3.77729335       0.00329982       0.00604377       0.00081816
C       -1.25493089       6.47944142       3.67556776       0.00037744       0.00634205       0.00246127
C       -2.45140015       8.63837868       3.62105022       0.00440086      -0.00188951       0.01173441
C        4.94716909       0.09020746       3.63089497       0.00657843       0.00095520       0.00100542
C        3.75296458       2.24951009       3.85726033       0.00095065       0.00999134      -0.00695342
P        1.12164007       6.39129988       4.99021422      -0.01268649       0.00150145      -0.00833334
C        0.00084229       8.64337037       3.91321917       0.00190544       0.00014415       0.00456349
C        7.42086615       0.06861904       3.59716886      -0.00203032      -0.00856379      -0.00552469
C        6.19388965       2.19291477       3.43331827      -0.00005579      -0.00041602       0.01104145
C        5.02972702       4.28014337       3.80584343      -0.00134042      -0.00017846       0.00038776
P        3.85818461       6.39606592       5.03195223      -0.00476298      -0.00045691      -0.00064763
C        2.48748700       8.67954460       4.14233974      -0.00126952      -0.00829322      -0.00718674
C        9.88838911       0.06799821       3.59507511      -0.00275182      -0.00789059      -0.00301546
C        8.65404665       2.19484373       3.30040744      -0.00277501      -0.00479959       0.00897117
C        7.42669064       4.34270590       3.30941357      -0.00684792       0.00005827      -0.00539556
C        6.22939437       6.47907786       3.70112633      -0.00543177       0.00090780      -0.00299263
C        4.97174843       8.64320478       3.92648666       0.00074376       0.00261540      -0.01033552
C        0.01360422       1.51216921       3.59959063       0.00912291      -0.00287225      -0.00608880
C       -1.23931068       3.60389524       3.40504691       0.00869075       0.00085281       0.00436984
C       -2.46048784       5.77154611       3.39249920      -0.00207170       0.00452223       0.00292681
C       -3.68202570       7.92193937       3.53486423       0.00006284      -0.00147896      -0.00602434
C       -4.90761931      10.07390164       3.65802283      -0.00430297      -0.00207608       0.01802069
C        2.48574625       1.56022487       3.83592173       0.00421201       0.00869066      -0.01097682
N        1.08966466       3.59276736       4.10799158      -0.00632892      -0.00049361       0.00411204
C       -0.12348905       5.68494491       3.97343843       0.00105205       0.00857338      -0.00604051
C       -1.22889722       7.91724170       3.75015309       0.00704117       0.00113052       0.00096761
C       -2.45667788      10.07384348       3.66015259       0.00276887       0.00233430      -0.00205529
C        4.95776872       1.51279976       3.60953123       0.00021358       0.00389074      -0.00730417
N        3.88346723       3.59145924       4.12750682      -0.00613940       0.00973267       0.00522038
C        1.22454037       8.01798367       4.29632827      -0.00381066      -0.00020038      -0.00715475
C        0.01304293      10.05655864       3.69035467       0.00318206      -0.00415474       0.00409472
C        7.42321621       1.48043459       3.39513413      -0.00582437      -0.00760958      -0.00404664
C        6.21153381       3.60510557       3.42525098      -0.00348222      -0.00151529       0.00432273
C        5.09989774       5.68514651       4.00927112      -0.00233047      -0.00262364      -0.00560587
C        3.74886694       8.01795642       4.31110638       0.00232620       0.00110626       0.00040498
C        2.48674888      10.05514530       3.74921333      -0.00463807      -0.00699962       0.00938589
C        9.88486726       1.47939816       3.38898094       0.00477181      -0.00523682       0.00392121
C        8.65397073       3.62417604       3.23906887      -0.00199330       0.00108098      -0.00350376
C        7.43357930       5.77155994       3.40915396      -0.00933079      -0.00046132      -0.00800863
C        6.20221633       7.91730009       3.76529694       0.00116764       0.00153685       0.01145550
C        4.95913400      10.05531356       3.69158871       0.00119800       0.00259755       0.00840155
Re       2.48086206       4.64084829       5.36275045       0.00990743      -0.00101319      -0.00312620
O        2.43585238       4.17653529       7.02592369       0.00788696      -0.00234514       0.00115061
O        2.35945707       2.80759521       8.08488938       0.00336125       0.01384280       0.00242187
H        2.38644697       3.39306360       8.87860035      -0.00154767      -0.01754969      -0.00414582
