52
Lattice="12.336457 0.0 0.0 -6.168228499999997 10.683685154694365 0.0 0.0 0.0 15.0" Properties=species:S:1:pos:R:3:forces:R:3 energy=-451.02226591369106 free_energy=-451.02226591369106 stress="-0.0004875587366619397 -0.0006851111288914034 -2.90898468601488e-05 -0.0006851111288914034 0.0008577740492600898 8.816162545851985e-06 -2.90898468601488e-05 8.816162545851985e-06 2.636177178629827e-05" pbc="T T T"
C        0.00817946      -0.00649215       3.73793626       0.00195676      -0.00766085      -0.00192425
C       -1.22982018       2.13496960       3.80976723       0.00036762      -0.00903327      -0.00743673
C       -2.49861407       4.25999979       4.12822455       0.00515108       0.00798987       0.00155109
C       -3.71774922       6.39963414       4.17336936      -0.00428381      -0.00264164      -0.00211705
C       -4.93578183       8.54100132       3.95365641       0.00086863       0.00584140      -0.01358097
C        2.47919209      -0.04091815       3.67152113      -0.00670127       0.00226333      -0.00820886
C        1.25136700       2.05829351       3.39200415      -0.00101433       0.00397471       0.01523758
C       -0.08803275       4.33341199       3.94619488      -0.00265189       0.00643518      -0.01157389
C       -1.26634739       6.42107214       4.20931056       0.00601598       0.00165979      -0.00799112
C       -2.46920259       8.53101702       4.01623353       0.00201408      -0.00244660       0.00509466
C        4.94808133      -0.04591287       3.76231828       0.00070525      -0.00305862       0.00335048
C        3.73685583       2.01580739       3.21232478       0.00324744      -0.00589435       0.00318381
N        1.18508822       6.36166246       4.07854816      -0.00716877       0.00873483       0.00620966
C        0.01533074       8.49295419       3.98210300       0.00035255      -0.00406606      -0.00055845
C        7.41237610      -0.04337051       3.85231839       0.00324839      -0.00336011       0.00070274
C        6.16170237       2.12214413       3.78184722      -0.00238447       0.01171773      -0.00734476
C        4.91523226       4.32051270       3.78392283       0.00202784      -0.00232327      -0.00440211
O        3.84867615       6.46624482       3.37596503      -0.00105565       0.00311782       0.00450584
C        2.48963672       8.46316124       3.80170826      -0.00469737      -0.00424914       0.00159342
C        9.86648650      -0.02619859       3.81148342       0.00452991      -0.00420053      -0.00582392
C        8.62811806       2.11738508       3.95025939      -0.00647173       0.00562675      -0.00219061
C        7.36626068       4.25454081       4.09451091      -0.00665269      -0.00439941      -0.00029033
C        6.17759433       6.43359625       4.05174401       0.00082690      -0.00060727      -0.00347876
C        4.94598406       8.54307929       3.77674319       0.00097018       0.00252264       0.00237543
C        0.01178243       1.42875423       3.64423279       0.00129985      -0.01047689       0.00449699
C       -1.25772996       3.55517352       3.97599625       0.00203327      -0.00204627      -0.01657718
C       -2.48693905       5.68449586       4.20387560       0.00308835       0.00842441       0.00366257
C       -3.70525955       7.82362220       4.07045713      -0.00275307       0.00067425      -0.00100757
C       -4.92899672       9.96045155       3.78702586      -0.00217225       0.00420070       0.00504517
C        2.48626224       1.36606296       3.37776848      -0.00212635       0.00373041       0.00960151
S        1.30738953       3.77132278       3.13214437       0.00030541       0.01140644       0.00699446
C       -0.02701323       5.73452978       4.13435047       0.00175184       0.00367046       0.00758665
C       -1.23777182       7.82560655       4.09938152       0.00510252      -0.00407480      -0.00397643
C       -2.45794600       9.93871625       3.81275631      -0.00542824       0.00048022       0.00358477
C        4.94178181       1.38380854       3.58281116       0.00754603       0.00040327      -0.00577493
S        3.83289036       3.61609525       2.46722972      -0.00851198      -0.00361530       0.00728229
C        1.23619520       7.73084271       3.96572351      -0.00579950      -0.00083466       0.00656633
C        0.01614452       9.91963956       3.86904025       0.00262214      -0.00441036       0.01413480
C        7.39586676       1.39810780       3.87254118      -0.00679248       0.00494020       0.00443253
C        6.15068013       3.53471879       3.93290523      -0.01022425       0.00582364       0.00645044
C        4.99689296       5.75205247       3.81825068       0.00208226       0.00049430      -0.01289796
C        3.74267683       7.86340675       3.65060071      -0.00047514       0.00485823       0.00033231
C        2.47532391       9.91217282       3.83168705       0.00430717      -0.00601682       0.00659381
C        9.87530774       1.41347699       3.86618186      -0.00469276      -0.00537303      -0.00165225
C        8.61150726       3.53957970       4.07533909      -0.00012497       0.00672464       0.00445267
C        7.38982341       5.68470680       4.14721625      -0.00275684      -0.00928339      -0.00128502
C        6.17797435       7.84738195       3.93798801       0.00242936       0.00439235      -0.00114135
C        4.93766465       9.96933561       3.78458316       0.00607347      -0.00257886      -0.00552393
Re       2.99569405       4.85765644       4.50989959       0.00234265      -0.01465372       0.00493226
O        2.87647286       3.54029651       5.59595308       0.01391948       0.01076894      -0.00584155
O        3.22955709       6.17470843       5.96872098       0.00018342      -0.01242416      -0.00748761
H        3.22901302       5.69304339       6.81416075       0.00756999      -0.00114713       0.00013334
