52
Lattice="12.336457 0.0 0.0 -6.168228499999997 10.683685154694365 0.0 0.0 0.0 15.0" Properties=species:S:1:pos:R:3:initial_magmoms:R:1:forces:R:3 energy=-459.46752661318186 free_energy=-459.46752661318186 stress="0.0019185017684571197 -0.0009456901766386161 8.724611206211924e-06 -0.0009456901766386161 -0.00772262327576919 -9.79859243532942e-06 8.724611206211924e-06 -9.79859243532942e-06 3.1228635507564677e-06" pbc="T T T"
C        0.01210553       0.00044959       3.87436262       0.00000000       0.00226493      -0.00769398       0.00263019
C       -1.21249386       2.15587477       3.85810433       0.00000000      -0.00736188      -0.00644782      -0.00763700
C       -2.45404712       4.28520953       3.72209048       0.00000000       0.00025407       0.00042463      -0.00249738
C       -3.70198430       6.41108985       3.69081669       0.00000000       0.00420686       0.00326789       0.00641132
C       -4.93848519       8.52977628       3.76754783       0.00000000       0.00378855       0.01003240       0.00499535
C        2.47901848      -0.03120786       3.79684614       0.00000000      -0.00101809       0.00349077       0.00121072
C        1.25441082       2.10925468       3.73293790       0.00000000      -0.00009340      -0.00430757      -0.00704805
C        0.02903051       4.25105403       3.61799249       0.00000000       0.00521982      -0.00101103       0.00295796
C       -1.21269312       6.40309044       3.59692128       0.00000000       0.00252219       0.00194214      -0.00623398
C       -2.43778930       8.52335053       3.77996662       0.00000000      -0.00399555      -0.01371214       0.01233672
C        4.94726774      -0.00725592       3.87619513       0.00000000      -0.00680499      -0.00000573      -0.00501332
C        3.69881297       2.10113661       3.70430211       0.00000000       0.00821762      -0.00833896      -0.00863141
N        2.48295287       4.14708893       3.55061882       0.00000000      -0.00199294      -0.00497500      -0.01187252
O        0.94059154       6.11888340       2.51450352       0.00000000      -0.00720842       0.00066954      -0.00334004
C        0.02878946       8.54658384       3.96286762       0.00000000       0.00779534       0.00520578       0.00617219
C        7.39626227       0.05887774       4.05822081       0.00000000       0.00305608       0.00138153      -0.00177370
C        6.15843980       2.15542133       3.83454986       0.00000000       0.01123707       0.00059839      -0.00296799
C        4.91011109       4.25579638       3.52156211       0.00000000      -0.00749524      -0.00730585       0.00240493
S        3.86414594       6.29553235       1.97703727       0.00000000      -0.00835005       0.00007489      -0.00542624
C        2.48290033       8.68187390       4.13332138       0.00000000      -0.00242595       0.00379445       0.00800664
C        9.89683299       0.06180033       4.05637340       0.00000000      -0.00118122       0.00869429       0.00343827
C        8.64106555       2.17303493       3.91314105       0.00000000      -0.01564803       0.00058064       0.00534277
C        7.39357648       4.28527464       3.70854496       0.00000000       0.00477833       0.00346664      -0.00660469
C        6.14014779       6.41233277       3.57066697       0.00000000       0.00743772       0.00943921       0.01065683
C        4.94016986       8.56157076       3.93135065       0.00000000      -0.00720597       0.00335131      -0.00248371
C        0.01502478       1.42626812       3.83158388       0.00000000      -0.00102853      -0.00911126      -0.00151658
C       -1.21206403       3.57365694       3.74888479       0.00000000       0.00205751      -0.00388424      -0.00162213
C       -2.45252481       5.70305909       3.66283466       0.00000000       0.00168558       0.00410306      -0.00776948
C       -3.69182536       7.82439262       3.72955150       0.00000000      -0.00618973      -0.00094387       0.00815542
C       -4.93050550       9.95255903       3.81517917       0.00000000       0.00521581       0.00488368       0.00791744
C        2.47739998       1.38886477       3.74792726       0.00000000       0.00465061       0.00288350       0.00063831
C        1.27755025       3.52624809       3.63267975       0.00000000       0.00144440      -0.00343112      -0.00698159
C       -0.02846909       5.62903465       3.29778717       0.00000000       0.00413927      -0.00089005      -0.00181128
C       -1.19864501       7.81569712       3.77366405       0.00000000       0.00900243      -0.00112521       0.00394779
C       -2.44733502       9.94862455       3.82062072       0.00000000      -0.00998726      -0.01139935       0.00283589
C        4.93787633       1.41923537       3.81182602       0.00000000       0.01261721       0.00144867      -0.00111872
C        3.67450976       3.51904541       3.56850882       0.00000000      -0.00698976      -0.01115818       0.00695746
C        1.28489416       7.95575172       4.09536783       0.00000000       0.00222920      -0.00952043       0.00253154
C        0.01144455       9.98846909       3.98263915       0.00000000       0.00022899       0.00823772       0.00221361
C        7.39584543       1.47186258       3.95211044       0.00000000      -0.00122242      -0.00421995      -0.00595364
C        6.14925850       3.57418445       3.70529441       0.00000000       0.00343071       0.00085220      -0.00583207
C        4.91802403       5.66871647       3.26526280       0.00000000      -0.00119496       0.00173802      -0.00623942
C        3.68852215       7.95608396       4.07929928       0.00000000      -0.00419629      -0.00652191      -0.00512438
C        2.47996823      10.09382212       4.15249244       0.00000000       0.00313078       0.00240026      -0.00665776
C        9.88797530       1.47199016       3.95767685       0.00000000      -0.01683041       0.00685426       0.00501089
C        8.63765776       3.58437671       3.78607181       0.00000000      -0.00232964      -0.00165135       0.00635745
C        7.38158097       5.70676168       3.65472864       0.00000000       0.01042643       0.00515308      -0.00033076
C        6.15554249       7.82478652       3.73853933       0.00000000       0.00353392       0.01253817       0.00861290
C        4.94943804       9.99961686       3.97206347       0.00000000      -0.00279562       0.00050594       0.00865117
Re       2.48707882       6.33962137       3.80085506       0.00000000       0.00870532       0.00401503       0.00321418
O        2.46782940       6.53663134       6.50804491       1.00000000      -0.01605210       0.00688176      -0.00951218
O        2.32156230       5.58124018       5.59875903       1.00000000       0.00632170      -0.00125484      -0.00160792
