52
Lattice="12.336457 0.0 0.0 -6.168228499999997 10.683685154694365 0.0 0.0 0.0 15.0" Properties=species:S:1:pos:R:3:forces:R:3 energy=-456.09100792862085 free_energy=-456.09100792862085 stress="0.0038287595918363136 -0.0004875372768780396 -3.88755491642768e-06 -0.0004875372768780396 0.010138730372585515 1.3257338593980645e-05 -3.88755491642768e-06 1.3257338593980645e-05 6.450540840233043e-06" pbc="T T T"
C        0.13158847      -0.00812559       3.68022622       0.00232849      -0.00018911      -0.00704476
C       -1.10672484       2.12051146       3.87057597       0.00294949      -0.00538465      -0.00468306
C       -2.32695994       4.24935915       3.89636719       0.00591315      -0.00039326      -0.00926302
C       -3.57408275       6.39188238       3.67659162      -0.00133101       0.00292627      -0.00058298
C       -4.80881307       8.53514907       3.62362416      -0.00741960       0.00758687       0.00036732
C        2.59478701       0.05019836       3.56165857      -0.00010092       0.00220314      -0.00416652
C        1.32454318       2.15363843       3.52588211      -0.00378660      -0.00491500      -0.00416642
C        0.18534767       4.21558116       4.07011533      -0.00501776       0.00308174      -0.00587416
C       -1.11922820       6.39258512       3.67901647      -0.00153544       0.00261724       0.00505000
C       -2.34319994       8.54646278       3.58592673      -0.00294606       0.00037594       0.00748461
C        5.05775172       0.00126302       3.60569866      -0.00501901       0.00314943       0.00613591
C        3.85696205       2.18388168       3.56435814       0.00031835       0.00024200      -0.00223369
N        1.28349276       6.42409543       4.12985911      -0.00131401       0.00067774      -0.00423731
C        0.13085125       8.51446646       3.68844282      -0.00682228       0.00480200      -0.00078588
C        7.53822704      -0.04452208       3.72928952      -0.00199159       0.00123350       0.00506668
C        6.29635801       2.12609744       3.70154251       0.00074143       0.00328802      -0.00492310
C        5.06983682       4.25789739       3.67519815       0.00110858       0.00019106       0.00149391
O        3.88922211       6.38342056       3.75678418      -0.00015010      -0.00330395      -0.00622706
C        2.62036223       8.45086306       3.79257123      -0.00048309      -0.00240679       0.00242146
C        9.99674023      -0.04551329       3.77800756       0.00545723       0.00060339      -0.00208694
C        8.76423894       2.10795655       3.81776714       0.00329295       0.00301748       0.00952440
C        7.53161101       4.25511762       3.75662498       0.00508641      -0.00553218      -0.00782199
C        6.28559119       6.37714453       3.67955486       0.00706788      -0.00433718       0.00158215
C        5.05991924       8.49938758       3.72273128      -0.00140140      -0.00350315      -0.00910658
C        0.13559099       1.42843209       3.70068048       0.00275542      -0.00730557       0.00941724
C       -1.10440941       3.52951432       4.02021940       0.00299290      -0.00374385      -0.00594417
C       -2.33971060       5.67381811       3.74690020       0.00204985       0.00325373       0.00149233
C       -3.57191289       7.82351875       3.61103068      -0.00709833       0.00429983       0.01194475
C       -4.79769009       9.98291918       3.61060198       0.00188267       0.00614106      -0.00548102
C        2.59401347       1.50576067       3.52326645      -0.00316871      -0.00211026      -0.00058984
O        1.26589020       3.52405015       3.40724572       0.00254017      -0.00987040      -0.00314514
C        0.10259089       5.70424670       3.95508258       0.00309687      -0.00038927       0.00936801
C       -1.11240247       7.82174454       3.62944926      -0.00030055       0.00098292      -0.00520379
C       -2.34757003       9.98925610       3.57098317      -0.00202214       0.00103785       0.00468327
C        5.05154308       1.44056629       3.61885616      -0.00239106       0.00220382      -0.00358418
O        3.88268777       3.56062023       3.62594916      -0.00192799      -0.00684894       0.01114542
C        1.34956336       7.77635487       3.83175310      -0.00391513       0.00375879      -0.01099660
C        0.12854808       9.94828807       3.66277808      -0.00765492       0.00360240       0.00211565
C        7.52477442       1.39578455       3.74887232       0.00355238       0.00199952       0.00148260
C        6.28978625       3.55308969       3.71783637      -0.00181543       0.00526779       0.00000538
C        5.07410435       5.67509172       3.69292067       0.00029806       0.00399101       0.00440683
C        3.86294625       7.76562557       3.76597113      -0.00173662      -0.00532869      -0.00464340
C        2.60475467       9.89726459       3.76636817       0.00198064      -0.00096378      -0.00082497
C       10.00084900       1.39437786       3.82916874       0.00306253       0.00347536       0.00154761
C        8.76828184       3.53527538       3.82921712       0.00793021       0.00196626       0.00332352
C        7.52831910       5.67323181       3.70470421       0.00268778      -0.00648891      -0.00282271
C        6.30019108       7.80804913       3.66993744      -0.00254152      -0.00280669       0.00889697
C        5.06206438       9.93973260       3.73525031       0.00235388       0.00000042       0.00335077
Re       1.27659124       5.16432558       5.66183701       0.00987814       0.00150374       0.00437102
O        2.52400970       4.01093633       5.81707099      -0.00919937       0.00538803       0.00320216
O        0.38191808       5.92393106       7.10246411       0.00741298       0.00506815       0.00769005
H        0.28979391       5.40194605       7.92010610      -0.00564784      -0.01411488      -0.01113072
