53
Lattice="12.336457 0.0 0.0 -6.168228499999997 10.683685154694365 0.0 0.0 0.0 15.0" Properties=species:S:1:pos:R:3:forces:R:3 energy=-464.19675511407877 free_energy=-464.19675511407877 stress="0.002531519098573687 -0.0007179197468213691 5.03008060421723e-05 -0.0007179197468213691 -0.006729278552571285 -1.472011490241449e-05 5.03008060421723e-05 -1.472011490241449e-05 -2.6290933411098066e-06" pbc="T T T"
C        0.02046129      -0.00786346       3.94494102       0.00131732       0.00545467       0.00634886
C       -1.20296927       2.14727521       3.90323245       0.00263517       0.00899505      -0.00535531
C       -2.44175870       4.27856754       3.76783568      -0.00053094      -0.00494091      -0.00569658
C       -3.69026105       6.40443070       3.76395363      -0.00350467       0.00331328       0.00271341
C       -4.92982284       8.52275622       3.85772438       0.00045944       0.00107959      -0.00001662
C        2.48887516      -0.03687654       3.86624958      -0.00036764      -0.00607502       0.00393568
C        1.26466484       2.10197621       3.77160428      -0.00709322      -0.00380591      -0.00609565
C        0.04116503       4.24617935       3.66142401       0.00139101      -0.00713037      -0.01295325
C       -1.19972496       6.39926628       3.67406005       0.00162484      -0.00094201      -0.00147813
C       -2.42868336       8.51563288       3.87628026       0.00368054       0.00310674      -0.00976497
C        4.95726779      -0.01355454       3.94665000      -0.00004325       0.00392854       0.00071806
C        3.71080561       2.09455775       3.73849241      -0.00554740      -0.00022216      -0.00273348
N        2.49492722       4.14467112       3.59409124       0.00161465       0.00243592       0.01059813
O        0.94119333       6.12968413       2.56307767      -0.00449530      -0.00002556       0.00018792
C        0.04010051       8.54111915       4.07196623       0.00178259      -0.00240946       0.00405416
C        7.40715679       0.05184660       4.13664727      -0.00362072       0.00339900      -0.01736553
C        6.17050159       2.14745003       3.87135185       0.00614831       0.00015303      -0.00456034
C        4.92290123       4.24999609       3.55085143       0.00373392       0.00151292      -0.00280878
S        3.87400642       6.31358900       2.03884835       0.00518290      -0.00057954       0.01342144
C        2.49028099       8.67063397       4.27265854      -0.00482173       0.00345602      -0.00831537
C        9.90454874       0.05355719       4.13589344       0.00749133       0.00763470      -0.00861628
C        8.65098367       2.16592828       3.96075070       0.00565739      -0.00514759      -0.00606689
C        7.40562509       4.27858504       3.74542154       0.00354810      -0.00345732       0.00397165
C        6.14984525       6.40707505       3.63868049      -0.00464486      -0.00423157      -0.01013722
C        4.94454193       8.55174222       4.03752977       0.00236481      -0.00976551       0.00218919
C        0.02524976       1.41770283       3.88141912      -0.00621969       0.00482208       0.00042739
C       -1.19969480       3.56626804       3.78853571       0.00101033       0.00170066       0.00396283
C       -2.43977415       5.69760490       3.72609665      -0.00173770      -0.00030232      -0.00176503
C       -3.68261349       7.81708100       3.81994492      -0.00018609       0.00585833       0.00152536
C       -4.92089563       9.94594566       3.89522726      -0.00105892       0.00143048       0.00379551
C        2.48840432       1.38285475       3.79331827      -0.00738798      -0.00554365       0.00608200
C        1.28922266       3.51970001       3.66663320       0.00291515      -0.00318487       0.00794212
C       -0.01293108       5.63143520       3.35443696       0.00618479      -0.00318003       0.00855318
C       -1.18820253       7.80903240       3.86957376       0.00274542       0.00053768       0.00128046
C       -2.43826773       9.94187073       3.90386334       0.00290549      -0.00055250      -0.00782825
C        4.94898662       1.41195468       3.85700609       0.00046214       0.00377079      -0.00236010
C        3.68689547       3.51290631       3.59833105       0.00260354       0.00292294      -0.00081495
C        1.28939127       7.94794935       4.23388017       0.00103458      -0.00906690       0.00065778
C        0.02172012       9.98353018       4.06955060      -0.00234688       0.00023625       0.00305275
C        7.40669571       1.46389410       4.00259469       0.00340567       0.00222611       0.00651111
C        6.16111924       3.56636781       3.73131605       0.00368874       0.00103984       0.01307143
C        4.93153204       5.66735063       3.31120652      -0.00252410      -0.00045881      -0.01402491
C        3.69730179       7.93996842       4.21914271      -0.00447127      -0.01001932      -0.00061042
C        2.48901677      10.08388799       4.24675933       0.00030696       0.01056828       0.00633811
C        9.89680758       1.46396035       4.01457496       0.00855053       0.00657726      -0.00385720
C        8.64928624       3.57737615       3.82577909       0.00354733      -0.00800896       0.01118752
C        7.39352486       5.70111524       3.71290245      -0.00320059      -0.00226796      -0.00356638
C        6.16245753       7.81824560       3.82828225       0.00354069      -0.00831597       0.00025186
C        4.95674909       9.99100321       4.05833592       0.00668151      -0.00245401       0.00270695
Re       2.48936583       6.34329038       3.86714449       0.00007099       0.00704449      -0.00000157
O        2.43931938       5.62312917       5.60912646      -0.00781759       0.00331301       0.00451067
O        2.18163817       6.62797336       6.69108490      -0.01216253       0.00435050      -0.00408546
H        3.05276429       6.60944376       7.14375216      -0.01450312       0.00122007       0.01088312
