52
Lattice="12.336457 0.0 0.0 -6.168228499999997 10.683685154694365 0.0 0.0 0.0 15.0" Properties=species:S:1:pos:R:3:forces:R:3 energy=-445.65960631675983 free_energy=-445.65960631675983 stress="-0.007881267454754086 0.006305424677450599 -3.275189197641868e-05 0.006305424677450599 -0.003389803856202377 -3.480726184840605e-05 -3.275189197641868e-05 -3.480726184840605e-05 3.676842098212353e-05" pbc="T T T"
C        0.00506462       0.00140890       3.70824920       0.00032079       0.00137931      -0.00384967
C       -1.19395550       2.13535900       3.71323533       0.00435711       0.00275539      -0.00092378
C       -2.47047539       4.26772755       3.75610216      -0.00321084       0.00595281       0.00351673
C       -3.73055604       6.39671701       3.76214723      -0.00781156       0.00182695      -0.00597645
C       -4.97318625       8.51735246       3.73411019      -0.00229076      -0.00613109       0.00326948
C        2.45820480      -0.04170570       3.85016057      -0.00127387      -0.00145854       0.00953939
C        1.32605894       2.13609620       3.60636441      -0.00192786       0.00595499      -0.00292283
C       -0.06963891       4.37299423       3.83555339       0.00372751      -0.00679842      -0.00702082
C       -1.33498827       6.45395000       3.52783661       0.00439868      -0.00160285      -0.00251714
C       -2.50516720       8.54360976       3.68539877      -0.00169627       0.00952912       0.00315693
C        4.93953151      -0.03710291       3.89988847       0.01514831       0.00085537       0.00412085
C        3.71552145       1.98923680       4.32888528      -0.00519963      -0.00606017      -0.00395822
N        1.05124163       6.44149227       3.55451769       0.00848389      -0.00365210       0.00347390
C       -0.03408758       8.54008002       3.59124852       0.00023472      -0.01102760       0.00821449
C        7.41115348      -0.02876426       3.81032889      -0.00438327      -0.01424164       0.00573494
C        6.20912762       2.08373274       4.19803576       0.00695215      -0.00995170       0.00284276
C        5.06872259       4.25319004       4.49650198      -0.00390419       0.00670940      -0.01737016
S        3.62566626       6.11277564       3.23727004      -0.00607506      -0.00061549      -0.00369270
C        2.44282232       8.51105988       3.58119462      -0.00703961       0.00462204      -0.00361295
C        9.87795915      -0.02062982       3.71078796      -0.01093833      -0.00277674       0.00108967
C        8.66752827       2.10889967       3.88455069      -0.00430434       0.00395360      -0.00188745
C        7.43990625       4.24030554       4.03656923      -0.00757053       0.00193936       0.00440380
C        6.18216510       6.37988083       3.92226894       0.00904887       0.00173467      -0.00170791
C        4.91000799       8.50885748       3.65848125       0.00530757      -0.00266772      -0.00887714
C        0.03866757       1.44071838       3.67638037       0.00377993       0.00813978       0.00196886
C       -1.21551352       3.57006118       3.73934536      -0.00087604       0.00149142       0.00878878
C       -2.51143794       5.68898750       3.67366715      -0.00362463       0.00558638       0.00187255
C       -3.73672246       7.81812705       3.71983249      -0.00460337       0.00301979      -0.00667422
C       -4.95158853       9.94629138       3.74028911      -0.00365840      -0.00441851       0.00159487
C        2.49473649       1.36960577       3.98300828      -0.00437236       0.00013877      -0.00221389
S        1.66890283       3.29496224       2.28432918      -0.00117892      -0.00510442       0.01146236
C       -0.11833575       5.77868289       3.61211438       0.00445901      -0.00582392      -0.00110217
C       -1.28290094       7.85638535       3.57231108      -0.00467852      -0.00003231       0.00219860
C       -2.47448465       9.95064806       3.81728122       0.00892838       0.01004563       0.00616482
C        4.97027551       1.36467035       4.16505565       0.00369161       0.00104520       0.00388453
S        3.67556587       3.46693529       5.22838979      -0.00259215      -0.00533181       0.00378746
C        1.17970364       7.80118422       3.54000909       0.00043540      -0.00733302       0.00881513
C        0.00066689       9.94965010       3.75992593       0.00448528      -0.01279209       0.00262505
C        7.42708542       1.39110947       3.97016148       0.00170102      -0.01252353      -0.00574925
C        6.24260009       3.50432680       4.29185947      -0.00465522      -0.00386102      -0.00636245
C        5.02069708       5.58437264       4.07346397       0.00249766       0.01655061      -0.00292850
C        3.66899702       7.82932441       3.53937566      -0.00266054       0.01590582       0.00595600
C        2.46699543       9.94228436       3.69748663      -0.01064071      -0.00295006      -0.00002663
C        9.90120815       1.41124118       3.76205174      -0.00326099       0.00023901       0.00146465
C        8.66318159       3.53453164       3.89058097      -0.00597487       0.00853273       0.00689975
C        7.41014586       5.66581104       3.92876664       0.00027026      -0.00168150       0.00279098
C        6.13708246       7.79301269       3.74278001       0.00747936      -0.00871881      -0.01404854
C        4.93269007       9.95522558       3.68394301      -0.00301614      -0.00155499       0.00586203
Re       1.92949541       4.59943332       4.12813198       0.00519293       0.00141200      -0.00613175
O        1.79250228       5.54689090       5.89330731       0.00731667       0.00506916      -0.01171324
O        2.20275809       4.65718668       7.00502278       0.01636140      -0.00260275       0.00209886
H        2.53113576       5.32304062       7.64255374      -0.00115951       0.01732349      -0.00633031
