51
Lattice="12.336457 0.0 0.0 -6.168228499999997 10.683685154694365 0.0 0.0 0.0 15.0" Properties=species:S:1:pos:R:3:initial_magmoms:R:1:forces:R:3 energy=-1721714.3957336268 free_energy=-1721714.3957336268 stress="1620.5666234492896 1077.9899429096192 237.78304061886118 1077.9899429096192 5189.763029944432 -666.5937512282288 237.78304061886118 -666.5937512282288 -1500.651819782711" pbc="T T T"
C       -5.20575731      -0.45529059       5.18431850       0.00000000   24589.45282515  -30635.35003080    3281.05020650
C       -4.53693095      -2.28656006       0.62851575       0.00000000   16131.39805493   -1526.04782765   21218.86603081
C       -5.04638312       7.19711916      13.62321994       0.00000000      24.43307081     -45.51073524    -108.93059641
C       -3.51759295       7.20776895       4.18591436       0.00000000    -393.46468568      21.25533781    -109.52452030
C       -6.10112051       2.06553078      -2.42128776       0.00000000       3.79213364      -7.61127815       7.19471393
C        0.85554854      -4.93349880       3.34297326       0.00000000    4823.71268696    -298.37018813   -5625.88698845
C        1.56899053       5.22263783       4.69394787       0.00000000   74026.41405623 -202847.81122127  440525.73332965
C       -0.77777024       7.29221947       4.61316557       0.00000000   93818.70503912  -20392.90546534   27979.41932548
C       -4.26894852       8.12909828       1.58088860       0.00000000  -47860.24496282  -42030.99410630   -8328.84932141
C       -3.39724465       9.21655015       6.44214322       0.00000000    3600.79238306    2672.92396985   -1583.50515124
C        7.71574923      -2.13643324       3.13676747       0.00000000   43321.65142357  -61237.06130228   71737.14383957
C        2.28707957       4.08841542       6.10306593       0.00000000  -93069.72760406  533109.66315453  -77474.25693695
N       -6.44792691       7.15796330      16.69953087       0.00000000     348.31325041   28595.76860291  -19410.36758989
C       -1.56945991      11.35797797       0.35178285       0.00000000      16.84084315       2.44641109      -4.44706952
C        6.30604512      -0.85833131       4.71182076       0.00000000    9163.83608326   -9325.95904216    -106.60391256
C        5.18509768       4.53347237       4.61325753       0.00000000  -77501.58313183   55666.90664883   23418.70600150
C        6.70734593      -5.84070593      12.56682434       0.00000000       6.56347018      12.25978711       3.54103405
O        3.37724804       7.75253196       5.32677248       0.00000000 -2466058.54308821 -2504399.55035950 2398177.34961896
C        3.15793777       9.38111323       3.79359203       0.00000000  -18266.94971637  -91784.72303776   69294.76531980
C        7.34632222      -2.00927127       0.36369217       0.00000000   -5371.37477492    3691.72066629  -17059.00150342
C       12.37128446       3.43377026      -1.50521405       0.00000000       8.61291299      14.08683183     -10.02691855
C        9.27520149       4.30639698       5.39920257       0.00000000     461.24321456     -32.79987474      98.66325552
C       15.59318175      11.46023540      -4.83356844       0.00000000     107.31345685      42.53920572     171.85345295
C        6.09178362       7.52110043       1.25729978       0.00000000   -9991.78998870  -29803.43074983   31082.87414299
C       -4.94845669      -2.80768348       0.33372531       0.00000000  -11734.50773360   -4910.97731822  -14640.88567393
C        1.73236045       4.61157110       4.95429248       0.00000000  162165.21948276  641335.45192876  171144.15537178
C       -3.92303021       8.43294168       1.63708974       0.00000000   47470.56174120   42106.79013749    7952.78571608
C       -3.22027320      12.43624519       7.52350296       0.00000000     534.98829369   -6473.28540582    3636.42070490
C       -3.55434743       9.63035010       7.05966187       0.00000000     152.21535162    1399.84506659    1210.46735179
C       -3.10709701       3.77450287      -4.75231176       0.00000000      11.04101197      -0.52646189      -3.53239557
O        2.09574989       5.80670493       7.18537127       0.00000000 -1144214.27903661 -2051945.69397804 3754335.08157726
C        2.19976390      10.21132225       7.65927498       0.00000000    1253.78315167   -6419.73032088   -7401.49051191
C       -4.24781324      12.96152078       3.39729893       0.00000000   -1288.23581994   -9932.13553146   -5996.11635912
C       -3.84173967       8.85686448       6.54422010       0.00000000   -3184.54569700   -3784.23651538     599.74563328
C       10.27044059      -4.26352403      -2.98579607       0.00000000    -147.18050721     -56.32460712    -301.46176170
O        2.32629689       5.23162841       5.55935661       0.00000000  -24910.69518172  472107.11547949  -45437.60011781
C        0.03583690       7.28919758       2.36990718       0.00000000    2558.85155818  -10268.16987385    9092.64274799
C       -4.46505305      14.13246138       8.63543718       0.00000000   -1155.78389513  -11689.03146684   12285.29282203
C        7.72113602       0.20629488       4.51249810       0.00000000   -4079.25573006   -3859.37349961    2948.28028685
C        6.95854151       1.56212630       3.89196187       0.00000000     326.87359433    -465.65505276     785.17413383
C       12.14409414      -7.61102475       1.99225673       0.00000000    -193.27380745     148.89639547      67.51219033
C       -2.54441321       9.86920875       4.61196666       0.00000000    1914.06794248     150.66387560     -98.24771758
C        3.75589278       7.89282384       3.10284569       0.00000000  -76122.90258546 -105086.69506797  138091.83402911
C        8.12062911      -1.26679913       0.91889097       0.00000000    -350.97441419    6138.80641271   -1592.12111839
C       10.25566527       5.70996210       2.13346447       0.00000000     496.88668736    -444.74809746     452.01801313
C       12.85980430       5.43208756       4.19452183       0.00000000  160684.01955094  100961.96356667  137065.75368919
C       16.00947202       6.39570965      -2.10115174       0.00000000      -1.65439337      19.05418800      33.79044028
C        8.35743488      12.84456767      -1.20611439       0.00000000      -1.66328358       4.95978477     -16.48237645
Re       2.66777255       6.73861560       5.31288990       0.00000000 -3787577.48371040 -4693214.13261295   22102.38414605
O        2.60960227       4.44971126       6.55938180       1.00000000   85118.57176817 2331211.56512288 -1116694.54069423
O        2.54661052       6.68070689       5.57434687       1.00000000 7040335.95870909 5683504.15845499 -6026796.61989019
