51
Lattice="12.336457 0.0 0.0 -6.168228499999997 10.683685154694365 0.0 0.0 0.0 15.0" Properties=species:S:1:pos:R:3:initial_magmoms:R:1:forces:R:3 energy=-447.1422045082448 free_energy=-447.1422045082448 stress="0.0002660828662257657 -0.00548669710435273 -3.7536166787323415e-05 -0.00548669710435273 -0.0004953157762592207 8.506813111422574e-05 -3.7536166787323415e-05 8.506813111422574e-05 8.961594463928258e-05" pbc="T T T"
C        0.01171032       0.01342083       3.62884851       0.00000000      -0.00400070      -0.00686605      -0.03480197
C       -1.27566214       2.12156453       3.37246736       0.00000000       0.00190576      -0.00296911      -0.02787867
C       -2.51271671       4.27531298       3.52896383       0.00000000       0.00793330      -0.00426631      -0.00415356
C       -3.66273129       6.43169140       3.75964282       0.00000000       0.00575359      -0.00386084       0.01130514
C       -4.88271565       8.58009383       3.79046054       0.00000000      -0.00208323       0.00857693       0.00763049
C        2.49222929      -0.00377103       3.54301051       0.00000000      -0.00141173      -0.00340077      -0.01510806
C        1.20716804       2.01986622       2.96447955       0.00000000      -0.01177833       0.00338009       0.01089014
C       -0.19104849       4.25752751       2.81162175       0.00000000       0.00661154       0.00380809       0.03070298
C       -1.22696224       6.40702507       3.42905087       0.00000000      -0.00244055       0.00518057       0.00906524
C       -2.40780543       8.55020113       3.66978688       0.00000000      -0.01278444       0.00005188      -0.00196046
C        4.95190849       0.02820912       3.77008361       0.00000000      -0.00575010      -0.00744196      -0.00799084
C        3.65616609       2.10745821       3.54985988       0.00000000      -0.00178102       0.04571028      -0.03250484
S        1.51201678       6.21052104       3.28087998       0.00000000      -0.00998659       0.00623784       0.03380208
C        0.05423783       8.53677388       3.72186550       0.00000000      -0.00982201       0.01174410       0.01615148
C        7.40253979       0.02515973       3.94138337       0.00000000      -0.00357391       0.00706154       0.01807877
C        6.12574056       2.19205852       4.05625986       0.00000000       0.00734155      -0.00091280      -0.01243555
C        5.04443187       4.44302224       4.66336633       0.00000000       0.02871203       0.00210804       0.00326170
N        3.88765013       6.51282227       4.42662962       0.00000000       0.01884878       0.01628876      -0.00913466
C        2.51399247       8.56077412       4.01327182       0.00000000      -0.00055582       0.00465917       0.00240771
C        9.87891950       0.02499877       3.87157266       0.00000000       0.00224417       0.00072718      -0.00609537
C        8.61177919       2.15980171       3.84327938       0.00000000       0.00778223      -0.00343900      -0.00215657
C        7.40144926       4.30923275       4.03745309       0.00000000      -0.00131914      -0.00562176      -0.00034911
C        6.27218235       6.49920302       4.09772054       0.00000000      -0.01066970      -0.00815215       0.00468081
C        4.98465526       8.58682486       4.00735175       0.00000000      -0.00972490      -0.00448900       0.00138882
C       -0.02141447       1.41042688       3.31298969       0.00000000      -0.00380821      -0.00437119      -0.01446366
C       -1.32837591       3.53216714       3.20862312       0.00000000       0.00146532      -0.00229945      -0.00637067
C       -2.46796121       5.69962421       3.56526313       0.00000000      -0.00091965      -0.00251355      -0.00201817
C       -3.65031690       7.85419785       3.73344573       0.00000000      -0.00640779      -0.00193349       0.00123586
C       -4.91134586       9.98941863       3.65048828       0.00000000       0.00149378      -0.00090696      -0.01829106
C        2.45811407       1.38360902       3.28278510       0.00000000       0.01701616       0.01451812       0.01101888
S        1.18798359       3.49327943       2.06331702       0.00000000      -0.01115232      -0.00377922       0.00298055
C       -0.10036403       5.63268144       3.09556222       0.00000000      -0.00637838       0.00581235       0.03280859
C       -1.17680376       7.82675780       3.60533266       0.00000000      -0.00765960       0.00848280       0.00555425
C       -2.42952938       9.98426581       3.66927677       0.00000000      -0.00854263      -0.00094342      -0.00627687
C        4.91381423       1.46528888       3.82254655       0.00000000      -0.00579298      -0.00548505      -0.01230966
O        3.52302935       3.40133308       3.58617119       0.00000000      -0.02034529      -0.07266487      -0.00043481
C        1.30997503       7.86801960       3.75985286       0.00000000      -0.01029681       0.01732662       0.00578287
C        0.02190319       9.98407346       3.84253143       0.00000000      -0.00915284       0.00670367       0.00651213
C        7.36631599       1.46707929       3.97355232       0.00000000       0.00519066       0.00330119      -0.00300584
C        6.15094693       3.62601381       4.27726349       0.00000000       0.01372300      -0.00105591       0.00493011
C        5.07506145       5.83788548       4.39623454       0.00000000       0.02827272       0.00899357       0.00595347
C        3.77445776       7.86021364       4.14156438       0.00000000       0.00039843      -0.00345376      -0.00576112
C        2.48351960       9.99446903       3.98165444       0.00000000      -0.00016610       0.00714824       0.00088196
C        9.85638338       1.44254679       3.70538697       0.00000000       0.00323314      -0.00153229      -0.01412443
C        8.60751695       3.58129407       3.80569790       0.00000000       0.00721705      -0.00277139      -0.00755067
C        7.45310346       5.73394046       3.97129215       0.00000000       0.00269464      -0.00608075       0.01447709
C        6.23160200       7.89896908       3.96642418       0.00000000      -0.00188576      -0.00072463       0.00555486
C        4.95442990      10.00237780       3.84665891       0.00000000      -0.00242527      -0.00588775      -0.00833124
Re       3.01099448       4.72443620       5.18232665       0.00000000      -0.03828719      -0.02997560       0.04830440
O        3.38149706       5.10428793       6.81981318       1.00000000      -0.02184012      -0.08899744      -0.08566152
O        1.48877073       3.89614778       5.16732709       1.00000000       0.07490526       0.09897542       0.04380898
