51
Lattice="12.336457 0.0 0.0 -6.168228499999997 10.683685154694365 0.0 0.0 0.0 15.0" Properties=species:S:1:pos:R:3:initial_magmoms:R:1:forces:R:3 energy=-441.88846203363767 free_energy=-441.88846203363767 stress="-0.004251615425039579 -0.002740871390046516 -2.9017127867717743e-05 -0.002740871390046516 -0.008807591850131385 6.299201955482973e-06 -2.9017127867717743e-05 6.299201955482973e-06 1.1788835516176415e-05" pbc="T T T"
C       -0.00903038      -0.02581476       3.92567041       0.00000000      -0.00541307      -0.00269882      -0.00149126
C       -1.25085200       2.10903411       3.65017040       0.00000000       0.00261468      -0.00017117       0.00998665
C       -2.46340180       4.26042449       3.78002774       0.00000000      -0.01445518       0.01909240      -0.00316929
C       -3.67736831       6.39443819       4.00799825       0.00000000      -0.00404396      -0.00402816      -0.01559407
C       -4.93556413       8.51528255       4.08462641       0.00000000       0.00228345       0.00469646      -0.00042327
C        2.45597606      -0.07570237       3.88396599       0.00000000       0.00069401       0.01095467       0.00850375
C        1.20442383       1.95986531       3.21352364       0.00000000       0.00028712       0.00543033       0.00605412
C       -0.11340875       4.25148957       3.10277477       0.00000000       0.00997401      -0.01277517      -0.00447961
C       -1.22355228       6.39860299       3.77598785       0.00000000       0.00231764       0.01293722      -0.00349818
C       -2.44601050       8.51403654       4.08080140       0.00000000      -0.00090660      -0.02584196      -0.01073433
C        4.91952160       0.00043312       4.01399266       0.00000000       0.00912773      -0.01088077      -0.00730598
C        3.64679289       2.02435786       3.58581900       0.00000000       0.01466530      -0.00533863      -0.00817861
S        1.22139070       6.42698171       2.49897997       0.00000000      -0.00198599      -0.00684117       0.00411017
C       -0.01100621       8.56625366       4.22879213       0.00000000       0.00736613       0.00165885      -0.00158597
C        7.37385133       0.05848259       4.19476440       0.00000000       0.00051020      -0.00587295       0.02466896
C        6.13867386       2.15636374       3.80706313       0.00000000       0.00226399       0.00274917      -0.01141394
C        5.05553880       4.33289420       3.17770609       0.00000000      -0.02678557       0.00349974       0.00536738
S        3.84787178       6.56989562       2.36697938       0.00000000      -0.01641553       0.00043115       0.00618393
C        2.46740814       8.66230986       4.45569538       0.00000000      -0.00638006       0.00139484       0.02060005
C        9.87616938       0.04525127       4.16505183       0.00000000      -0.00408318      -0.00574257      -0.00403917
C        8.62328357       2.14937396       3.93499684       0.00000000      -0.01225332      -0.01033225      -0.01125229
C        7.41363046       4.27797980       3.78179657       0.00000000      -0.00235227       0.00746561       0.00908665
C        6.21868663       6.43855717       3.73074276       0.00000000       0.01686013      -0.00136897       0.01204599
C        4.94837427       8.55798028       4.24165486       0.00000000       0.00792475       0.00335500       0.01237083
C       -0.02315267       1.36700103       3.58518135       0.00000000       0.00035954      -0.00476763      -0.00373269
C       -1.25918935       3.53009648       3.51967926       0.00000000       0.00066118       0.00706200       0.00344283
C       -2.44946217       5.67938893       3.88856320       0.00000000      -0.00674300       0.01917597      -0.02239351
C       -3.68661839       7.80874185       4.07270135       0.00000000      -0.00920681      -0.01584545      -0.00806975
C       -4.94837194       9.92977963       3.99503454       0.00000000      -0.00186226       0.00522381      -0.00851279
C        2.43613435       1.30168711       3.55253728       0.00000000       0.00241840       0.00860324      -0.00495210
P        1.27633454       3.45520332       2.23649878       0.00000000       0.00157633      -0.01077619       0.00601226
C       -0.12040996       5.65891285       3.25163165       0.00000000      -0.01789839       0.01153389       0.00518138
C       -1.21015537       7.80910974       4.02914579       0.00000000       0.01487621       0.00553472      -0.00977560
C       -2.46419075       9.93946177       4.02775739       0.00000000       0.00529016      -0.01570168      -0.00879798
C        4.90136722       1.42426227       3.80894208       0.00000000       0.00814733       0.00103648      -0.00115322
P        3.38552574       3.74224420       3.30824602       0.00000000       0.00462458       0.00217129      -0.01167421
C        1.23298318       7.96793704       4.45832936       0.00000000       0.00044224       0.00043990      -0.00139089
C       -0.01909389      10.00608159       4.17817409       0.00000000       0.01012444      -0.00973183      -0.00279949
C        7.36876100       1.46574253       3.99841346       0.00000000      -0.00669481      -0.01382331      -0.00302481
C        6.17639436       3.57348178       3.60098179       0.00000000      -0.00497154      -0.00091028      -0.00654463
C        5.12759127       5.74840035       3.14822358       0.00000000       0.00301316      -0.00541091       0.01179690
C        3.70334672       7.94877452       4.47894917       0.00000000       0.00632017      -0.00158354      -0.00055594
C        2.45937152      10.08046679       4.33459117       0.00000000      -0.00476116      -0.00126763       0.00062381
C        9.86832288       1.44376257       3.93475544       0.00000000      -0.00210598      -0.00426541      -0.00172859
C        8.63654985       3.56281608       3.85421113       0.00000000      -0.01135395       0.00246010      -0.00218834
C        7.42935274       5.69709045       3.86599187       0.00000000       0.00611717      -0.00124104      -0.00523013
C        6.16782529       7.82578055       4.03292306       0.00000000       0.01189080       0.00868848       0.00490620
C        4.93736727       9.98957548       4.14740045       0.00000000      -0.00391996       0.00312280       0.01104641
Re       2.46421363       6.40390331       4.65225240       0.00000000       0.00648492       0.02634967       0.02438560
O        2.25041942       6.32296801       6.34756036       1.00000000       0.00340022      -0.02239251      -0.01288953
O        2.81937262       4.40949240       4.62246316       1.00000000       0.00195660       0.02454219       0.01220628
