52
Lattice="12.336457 0.0 0.0 -6.168228499999997 10.683685154694365 0.0 0.0 0.0 15.0" Properties=species:S:1:pos:R:3:initial_magmoms:R:1:forces:R:3 energy=-455.0284033261791 free_energy=-455.0284033261791 stress="-0.005476534027550513 2.757201197305351e-06 1.3774107544345474e-05 2.757201197305351e-06 -0.004081432177117744 -7.034762669950026e-06 1.3774107544345474e-05 -7.034762669950026e-06 1.6153366531744747e-05" pbc="T T T"
C        0.01486308      -0.08366423       3.83453684       0.00000000      -0.00000447      -0.00178233      -0.00217636
C       -1.22847099       2.04269132       3.92414964       0.00000000       0.00314846       0.00106833       0.00167049
C       -2.46369787       4.19303484       3.84237052       0.00000000       0.00027340       0.00677550      -0.00131910
C       -3.68465909       6.33330891       3.75677319       0.00000000       0.00137142      -0.00029656      -0.00311954
C       -4.91870564       8.46934675       3.71703282       0.00000000      -0.00212603       0.00823978       0.00463694
C        2.48306217      -0.08136565       3.95440699       0.00000000       0.00191554      -0.00567005       0.00144871
C        1.23424468       2.03798038       4.13995316       0.00000000       0.00719994      -0.00011204       0.00561731
C       -0.02662549       4.16832032       3.90776676       0.00000000       0.00127168       0.00974668       0.00176307
C       -1.22385614       6.32734158       3.61508866       0.00000000       0.00880891      -0.00012152      -0.00198057
C       -2.45123951       8.46929925       3.71530356       0.00000000       0.00142561       0.00468887       0.00942287
C        4.95110166      -0.08435505       3.83712485       0.00000000       0.00195899       0.00124634      -0.00146886
C        3.73154295       2.03770957       4.14574889       0.00000000      -0.00273661      -0.00672243      -0.00222440
P        2.48253896       4.45723811       4.77585785       0.00000000      -0.00424432       0.00396653      -0.01493352
P        1.23431465       6.18261473       2.31426291       0.00000000      -0.00850516      -0.00345630      -0.00508452
C       -0.02463580       8.50633593       3.37895661       0.00000000      -0.00008989      -0.00586400      -0.00171372
C        7.41400378      -0.06472261       3.64969505       0.00000000       0.00069110      -0.00719922      -0.01089268
C        6.19418157       2.04226474       3.92935444       0.00000000      -0.00024862      -0.00295851       0.00366567
C        4.99317585       4.16840121       3.91598162       0.00000000      -0.00072124      -0.00154247       0.00159946
P        3.73071936       6.17815798       2.32966549       0.00000000       0.00052891      -0.00505527      -0.00302636
C        2.48180145       8.58739614       3.05167557       0.00000000      -0.00074512       0.00880899       0.00319831
C        9.88749390      -0.06355559       3.64737564       0.00000000       0.00075851      -0.01021835      -0.01365438
C        8.65070181       2.05370268       3.84638519       0.00000000       0.00141205       0.00343520      -0.00279939
C        7.43010044       4.19344953       3.84542675       0.00000000      -0.00533155       0.00027467       0.00056142
C        6.18949741       6.32798754       3.62113645       0.00000000      -0.00346534      -0.00663252      -0.00922783
C        4.98966779       8.50601579       3.38576587       0.00000000       0.00230325      -0.00721245       0.00552203
C        0.00460997       1.32910570       3.97542082       0.00000000       0.00059577      -0.00187819       0.00054479
C       -1.24783238       3.46419131       3.90482821       0.00000000       0.00348304       0.00686145       0.00262490
C       -2.45486468       5.62041842       3.76364594       0.00000000       0.00551334       0.00124618      -0.00312114
C       -3.68458737       7.75747196       3.73714061       0.00000000      -0.00177311       0.00801268       0.00582780
C       -4.91870601       9.88950623       3.83898973       0.00000000       0.00131002       0.00583369      -0.00182955
C        2.48293051       1.33442119       4.12432537       0.00000000       0.00075858      -0.00581204      -0.00065729
C        1.15279004       3.45037544       4.22254001       0.00000000       0.01103994       0.00461579       0.00551603
C       -0.02022865       5.56831921       3.57214873       0.00000000       0.00391349       0.01190110       0.00774428
C       -1.21898325       7.76328826       3.54694033       0.00000000       0.00100402      -0.00367247       0.00600577
C       -2.45172751       9.88935638       3.83913221       0.00000000       0.00205960       0.00366216       0.00486638
C        4.96132791       1.32820340       3.98250944       0.00000000       0.00233235      -0.00217171      -0.00677026
C        3.81302764       3.45020025       4.22751512       0.00000000      -0.00291455      -0.00818517       0.00330040
C        1.23806094       7.87055012       2.98166630       0.00000000       0.00320364       0.00761401      -0.00258040
C        0.00655714       9.89835238       3.62980989       0.00000000       0.00078628      -0.00391596      -0.00268387
C        7.41953226       1.34088735       3.82424333       0.00000000       0.00106494      -0.00527496       0.00928887
C        6.21399452       3.46440706       3.91129313       0.00000000      -0.00462981      -0.00229086       0.00256285
C        4.98632073       5.56864559       3.58318097       0.00000000      -0.00480318       0.00191427      -0.00095305
C        3.72509652       7.86829308       3.00162104       0.00000000      -0.00571863       0.01412610       0.01037054
C        2.48238505       9.96463716       3.44188159       0.00000000      -0.00068193      -0.00626403      -0.00340709
C        9.88187422       1.34151842       3.82366033       0.00000000       0.00323966      -0.00625692       0.00048410
C        8.65126929       3.47838236       3.86178502       0.00000000      -0.00278366       0.00975548       0.00018759
C        7.42131853       5.62092089       3.76574161       0.00000000      -0.00151249      -0.00420626      -0.00002499
C        6.18518941       7.76331163       3.55246922       0.00000000       0.00306056      -0.00646265       0.00422575
C        4.95932628       9.89977911       3.62885500       0.00000000       0.00150546      -0.00795659       0.00273198
Re       2.47662012       6.74147478       4.19741928       0.00000000      -0.01074067      -0.00082708       0.00023352
O        1.70912994       8.17913413       6.37457616       1.00000000      -0.01245566       0.00305964      -0.01422742
O        2.38405338       7.06759132       6.22729346       1.00000000      -0.00170642       0.00316549       0.00425447
