52
Lattice="12.336457 0.0 0.0 -6.168228499999997 10.683685154694365 0.0 0.0 0.0 15.0" Properties=species:S:1:pos:R:3:forces:R:3 energy=-443.9390684787034 free_energy=-443.9390684787034 stress="-0.004950900784263158 -0.001666877821619966 1.253651407254807e-05 -0.001666877821619966 -0.0069624515482123945 7.872383534498784e-06 1.253651407254807e-05 7.872383534498784e-06 1.6090953263736963e-05" pbc="T T T"
C        0.07158921      -0.00819061       3.46149712      -0.00013832      -0.00600069       0.00620037
C       -1.18445364       2.11167067       3.55500651      -0.00336893       0.00105307      -0.01012355
C       -2.41313020       4.26299571       3.31370985      -0.00340984      -0.00142252       0.00071853
C       -3.62038542       6.41288075       3.24249065       0.00634731       0.00009728       0.00642813
C       -4.85813882       8.54651937       3.37397119      -0.00138894      -0.00421464      -0.00317809
C        2.53419455      -0.01673043       3.58180755       0.00134115       0.00252484       0.00518160
C        1.24247292       1.99887598       4.16085397      -0.00217923      -0.00344728       0.00302419
C       -0.15830743       4.23899071       4.16685650       0.00392478      -0.00554481       0.00950487
C       -1.20386913       6.40332097       3.61958063       0.00321456       0.00169883       0.00879020
C       -2.38215565       8.54116403       3.42153842      -0.00716263       0.00528226      -0.00006680
C        5.00459547      -0.00935226       3.57410933       0.00087656       0.00066879       0.00689850
C        3.76916422       2.01937897       4.11766443       0.00109835       0.00505667      -0.00398040
P        1.25688935       6.38130143       4.88928688      -0.00180000      -0.00003083      -0.00717855
C        0.07169651       8.55340838       3.76070436       0.00255613       0.00221539       0.00376800
C        7.47017665      -0.00365890       3.51160658       0.00259272       0.00215115       0.00493866
C        6.23503229       2.13182050       3.58665336       0.00343119      -0.00525968      -0.00456676
C        5.18800702       4.32676205       4.08430888       0.00288980       0.00199122       0.00177182
S        4.11919080       6.56779237       5.20638849       0.00833568      -0.01236116       0.00158789
C        2.56610479       8.60209181       3.98785468       0.00480772      -0.00162981      -0.01061959
C        9.93718399      -0.00731829       3.44828194      -0.00509272      -0.00069225      -0.00007047
C        8.69423311       2.12663129       3.30678492       0.00100186       0.00041127       0.00607106
C        7.47851281       4.27216790       3.31832822      -0.00515319       0.00278579      -0.00267485
C        6.30488810       6.43778186       3.61765951      -0.00026350       0.00128345       0.00570505
C        5.02504826       8.56222837       3.69935051       0.00113667       0.00141513      -0.00180382
C        0.05224165       1.40133699       3.68148854      -0.00293699      -0.00417898       0.00269321
C       -1.22677695       3.52490082       3.61110261      -0.00153899       0.00038443       0.00305675
C       -2.40161290       5.68991245       3.32435409       0.00767454      -0.00023366      -0.00924803
C       -3.61772093       7.83503007       3.31380245      -0.00170516      -0.00111923      -0.00592444
C       -4.86063986       9.96978967       3.43883080       0.00368160      -0.00498298       0.00897703
C        2.51047221       1.36269763       3.96840612       0.00061767       0.00385688      -0.00116125
S        0.94657822       3.38009362       5.21175815      -0.00040314       0.00973629       0.00025696
C       -0.11144560       5.63474868       4.09478923       0.00206488      -0.00532481       0.00281881
C       -1.15864167       7.82950752       3.59740766      -0.00239659       0.00647434      -0.00494726
C       -2.39360576       9.96481670       3.50718052      -0.00140201       0.00507005       0.00072157
C        5.00366781       1.40898710       3.74876487       0.00185490      -0.00021245       0.00580963
P        3.81452307       3.58378994       4.87302112       0.00518395       0.00130740      -0.00128996
C        1.30637476       7.94398713       4.13486391       0.00565297      -0.00283132      -0.00422674
C        0.07176099       9.97059581       3.57940222       0.00265464       0.00268218      -0.00001654
C        7.45883123       1.41970039       3.41557134       0.00627312      -0.00145524       0.00621394
C        6.27940559       3.55851771       3.60995035       0.00070846      -0.00313388       0.00769242
C        5.23717075       5.72074114       4.17007031      -0.01050151       0.00314948      -0.00607940
C        3.83407469       7.96575769       4.18143111       0.00406040       0.00225594      -0.01117679
C        2.54258082       9.97937192       3.59622156      -0.00188140       0.00001200      -0.00173241
C        9.93456686       1.41563271       3.37046224      -0.00291535      -0.00008277      -0.00133993
C        8.69751150       3.54924142       3.23720209      -0.00592176       0.00033861       0.00215823
C        7.49034706       5.69947123       3.31479366      -0.00032651       0.00428034       0.00017737
C        6.26125461       7.85119010       3.56514245      -0.00226412      -0.00324297      -0.00805448
C        5.00503212       9.97045539       3.47139320      -0.00444255       0.00001458      -0.00821049
Re       2.54117591       4.96951875       6.10940366      -0.00727000       0.00362677       0.00031159
O        2.60206946       4.93839151       7.92033208      -0.00540711       0.00365040       0.00196625
O        1.14184623       5.43696508       8.19043760      -0.01091037      -0.00995579      -0.01087628
H        0.80476571       4.64355100       8.65440929       0.00819925       0.00188290       0.00510424
