52
Lattice="12.336457 0.0 0.0 -6.168228499999997 10.683685154694365 0.0 0.0 0.0 15.0" Properties=species:S:1:pos:R:3:forces:R:3 energy=-443.8695148023124 free_energy=-443.8695148023124 stress="-0.003577083974633416 -9.251051515133055e-05 -1.6002267301377254e-05 -9.251051515133055e-05 -0.011240539174129573 1.4548664514852738e-05 -1.6002267301377254e-05 1.4548664514852738e-05 2.0864138671968984e-05" pbc="T T T"
C       -0.03622361      -0.00629495       3.79438766       0.00577844       0.00822264      -0.00071685
C       -1.27160820       2.13560720       4.08453499      -0.00251840       0.00279192       0.00135361
C       -2.52045770       4.27685549       4.06869342       0.00101164       0.00170537       0.00730247
C       -3.73279235       6.40748753       3.83299858      -0.00612364       0.00410761       0.00590318
C       -4.97394278       8.53384716       3.66880275      -0.00111756      -0.00685480      -0.00353585
C        2.43470410      -0.05281110       3.73263468      -0.00345992      -0.00173641       0.00138550
C        1.23083320       2.03479339       4.13654456       0.00819536       0.00007925      -0.00491621
C       -0.15228720       4.28412707       4.63451125       0.00425125       0.00258418      -0.00447965
C       -1.30349748       6.42842946       4.25080588      -0.00950023      -0.00744997      -0.00031528
C       -2.49464414       8.52763519       3.85608199       0.00668777      -0.00014374       0.00416921
C        4.89754975      -0.01309875       3.68003753       0.00155520      -0.00248706       0.00121275
C        3.63363354       2.03868853       3.42170465       0.00455256       0.00184311       0.00335812
P        1.43472409       6.42260754       4.91787177       0.00396425       0.00447418       0.00389945
C       -0.03028675       8.56938152       3.99072268       0.00006785      -0.00507464       0.00169489
C        7.35807029       0.03041466       3.72717399       0.00295818      -0.00072558      -0.00397959
C        6.13095613       2.13341459       3.53058601      -0.00311399       0.00350571       0.00109981
C        4.99247897       4.27890186       3.22373767      -0.00692610       0.00072537      -0.00182603
S        3.46481288       6.36300965       2.65720352      -0.00269910       0.00094937      -0.00226896
C        2.43568032       8.62217666       3.71041409      -0.00470611       0.00320922      -0.00699241
C        9.84239397       0.03909455       3.72280114       0.00529330      -0.00122800       0.01031330
C        8.60036634       2.15486129       3.80019776      -0.00299718       0.00013924      -0.00888342
C        7.37975417       4.27602475       3.66124127       0.00273411      -0.00048182       0.00496673
C        6.17584164       6.43939975       3.45456163       0.00057603      -0.00233728       0.00514839
C        4.89334900       8.57182207       3.48212806      -0.00430078       0.00238972       0.00468461
C       -0.03180832       1.40727970       4.02965348       0.00334544       0.00867420       0.00149369
C       -1.30776835       3.54738731       4.27868772       0.00245993       0.00252896       0.00142968
C       -2.51897802       5.70070649       4.05990247      -0.01022355      -0.00013207      -0.00189339
C       -3.73443739       7.82376755       3.78586708       0.00419047       0.00183168       0.00236056
C       -4.97788990       9.94957110       3.73701377      -0.00212729      -0.00484700      -0.00314132
C        2.43196779       1.36015179       3.76531024       0.00473050      -0.00053211      -0.00702954
P        1.42024784       3.54344019       5.02277206       0.00017513      -0.00879759      -0.01276860
C       -0.14872564       5.68824919       4.60497848      -0.00442817       0.00173787       0.00539112
C       -1.26814944       7.83992903       4.05435548       0.00175506      -0.00927310      -0.00511179
C       -2.49462406       9.94161030       3.73123473      -0.00056963       0.00054207       0.00671505
C        4.88908106       1.41104842       3.51215069       0.00166899      -0.00103011       0.00048953
S        3.45375545       3.61210487       2.69001088      -0.00782843      -0.00363681      -0.00085186
C        1.23431627       7.94189973       4.06915909       0.00015803       0.00213371       0.00358222
C       -0.03619636       9.98579605       3.78076550       0.00241062      -0.00379995      -0.00117310
C        7.36061624       1.44638403       3.67901518      -0.00399234       0.00054916      -0.00245765
C        6.17394152       3.54028429       3.46845336      -0.00235865       0.00327968       0.00408673
C        4.99385850       5.69884103       3.21405421       0.00062577       0.00051900      -0.00210337
C        3.63956238       7.94502163       3.37433040      -0.00585465       0.00260361      -0.00121248
C        2.43538539      10.03456436       3.70566605       0.00443509       0.00125714      -0.00261814
C        9.84051557       1.45057435       3.86981113      -0.00353077      -0.00082808      -0.00024793
C        8.60174038       3.57101612       3.84415542       0.00348726       0.00037674       0.00828360
C        7.38065313       5.70332345       3.65596590       0.00069542      -0.00022790      -0.00072216
C        6.13445836       7.84718785       3.51027837      -0.00520428      -0.00283080      -0.00144722
C        4.89891378       9.99449749       3.66902782       0.00681073       0.00487222       0.00217095
Re       3.30835431       4.99046163       4.58002514       0.00761023       0.00553779      -0.00461989
O        4.35632026       4.94945195       6.05405786      -0.00031133      -0.00569157       0.00293946
O        3.35008232       5.20796917       7.20853260       0.00269636       0.01007634      -0.00731074
H        3.49511502       4.37570189       7.70186464      -0.00098888      -0.01310066      -0.00281118
