52
Lattice="12.336457 0.0 0.0 -6.168228499999997 10.683685154694365 0.0 0.0 0.0 15.0" Properties=species:S:1:pos:R:3:forces:R:3 energy=-451.9491349783771 free_energy=-451.9491349783771 stress="-0.004273789963713769 0.00233986154304517 3.53906028978669e-05 0.00233986154304517 -0.002086531284707915 1.8729277418744748e-05 3.53906028978669e-05 1.8729277418744748e-05 -2.7446948531534185e-05" pbc="T T T"
C        0.00967402       0.02267874       3.75349562      -0.00458760       0.00560826       0.00093100
C       -1.22215697       2.14393933       3.69137710       0.00455313       0.00738784       0.00523810
C       -2.45196890       4.28395130       3.56641796       0.00238726       0.00583021      -0.00949082
C       -3.68880510       6.42477830       3.56018072      -0.00070522      -0.00951394      -0.00331858
C       -4.93500884       8.56341842       3.64512397       0.00422403      -0.00322280      -0.00154612
C        2.47320073       0.03455093       3.83267511      -0.00549872       0.00659200      -0.00057937
C        1.24796554       2.18664503       3.90117050       0.00608560      -0.00218734       0.00606661
C       -0.01142869       4.27629990       3.76510190       0.00027451      -0.00513081      -0.00048698
C       -1.23015604       6.42886020       3.72193588      -0.00430176       0.00314070      -0.00092114
C       -2.46663716       8.56781294       3.77013351      -0.00387721       0.00657952      -0.00602446
C        4.94255570       0.02258508       3.87432919       0.00524456      -0.00298026      -0.00831060
C        3.72117280       2.17454452       3.91349332      -0.00174884       0.00137288       0.00205817
B        1.32611370       6.33858489       4.10526071       0.00453300      -0.00283287      -0.00562814
C       -0.00075437       8.56535643       3.95003192       0.00596265      -0.00412738       0.00250228
C        7.40990217       0.02219566       3.87976897       0.00057279      -0.00195852      -0.00529714
C        6.19743421       2.12927083       3.72746654      -0.00461343       0.00147797       0.00658471
C        4.99942632       4.22977066       3.60369967       0.00101651      -0.00434691       0.00564896
P        3.32816529       6.18363257       3.40469309       0.00247211       0.00022825       0.01123937
C        2.46038140       8.60249815       3.94054172       0.00123419      -0.00156204      -0.00441497
C        9.88363354       0.01919141       3.79234595      -0.00080107      -0.01054026       0.00622511
C        8.65522973       2.14438005       3.66809741       0.00569953       0.00033687      -0.00722272
C        7.43485199       4.27497020       3.51067355       0.00017634       0.00690347       0.00341897
C        6.18231743       6.41338899       3.45272287      -0.00296637       0.00548782      -0.00018753
C        4.93006964       8.55241224       3.67487662      -0.00303297      -0.00130823       0.00306583
C        0.01216437       1.44838715       3.78259452       0.00519771       0.00741835      -0.00438045
C       -1.23471477       3.55927965       3.62904125      -0.00062863       0.00500294      -0.00543243
C       -2.45785544       5.71289489       3.59325445      -0.00079232       0.00029098      -0.00013439
C       -3.69739799       7.85291674       3.64825991       0.00278577      -0.01073147      -0.00729610
C       -4.92621942       9.99325248       3.74826980      -0.00569438       0.00246344      -0.00381162
C        2.47856607       1.45815233       3.91494767       0.00336443       0.00168455       0.00672269
C        1.20268287       3.59790561       4.01281905      -0.00479195      -0.00912761       0.00275739
C       -0.02183213       5.68702210       3.79274607      -0.00563118      -0.00250875       0.00556332
C       -1.23936914       7.85570748       3.82407007      -0.00204799       0.00597420      -0.00853784
C       -2.46479579       9.99577086       3.83743089      -0.00286597       0.00984580      -0.00576264
C        4.95634459       1.44107592       3.84235007      -0.00397402      -0.00125288      -0.00084569
C        3.79366970       3.58400751       3.96378949      -0.00390627       0.00117460       0.00671430
C        1.23847166       7.88405951       4.02992388       0.00717460      -0.00114102      -0.00357697
C        0.00465317       9.99441830       3.91332072       0.00654018      -0.00550345       0.00266706
C        7.42508536       1.43089304       3.75548582      -0.00249580       0.00220326       0.00778100
C        6.22648941       3.53364828       3.57974201       0.00272879       0.00037200       0.00486654
C        5.00479281       5.62978891       3.41052033       0.00300423      -0.00633199      -0.01000824
C        3.67161941       7.89486125       3.74259629      -0.00029303      -0.00395035       0.00383934
C        2.47657255      10.01505615       3.89705033      -0.00262500      -0.00479592      -0.00414818
C        9.88280788       1.43517020       3.71205964       0.00835903      -0.00739037      -0.00996807
C        8.65978042       3.56668882       3.56182498       0.00358612       0.00749536      -0.00127800
C        7.42402967       5.70445063       3.48109037      -0.00449463       0.00508947       0.00248738
C        6.17033417       7.84492202       3.56473052      -0.00072148       0.00539366       0.00427507
C        4.94391689       9.98518147       3.74217530      -0.00200181      -0.00432042       0.00274780
Rh       2.51183578       4.78674407       4.97276591       0.00513350       0.01190610      -0.00186519
O        2.30832517       4.01345932       6.77787739       0.00413767      -0.00026147       0.01125401
O        2.42754177       5.17733745       7.69467282      -0.00689964      -0.00510435       0.00326422
H        3.26763565       4.93620932       8.12972847      -0.01445093      -0.00512912       0.00255516
