51
Lattice="12.336457 0.0 0.0 -6.168228499999997 10.683685154694365 0.0 0.0 0.0 15.0" Properties=species:S:1:pos:R:3:initial_magmoms:R:1:forces:R:3 energy=-1093791.7056083134 free_energy=-1093791.7056083134 stress="2278.638108922497 1141.633762867875 -253.0716003895691 1141.633762867875 1755.7264725999967 -497.5525550619175 -253.0716003895691 -497.5525550619175 678.8025560565978" pbc="T T T"
C       -4.58245402      -1.40569746       2.42320565       0.00000000      31.93919880    -377.15082372     -99.93310494
C       -2.54900702       1.97765976      -2.13410200       0.00000000    2685.39968735   24445.01807261  -12533.25317333
C       -3.71362626       0.87831956       2.35332541       0.00000000      -1.25314996       2.33426225      -7.76698950
C       -2.62422877      10.95208974       7.12749355       0.00000000     271.98900057    -647.62888966     172.38025336
C       -7.23925762      11.12644621       4.93846930       0.00000000     102.10274621     233.57084208     -92.89876908
C       -0.06894067      -3.23139187       0.54270513       0.00000000    -111.80029841    -142.32079567    -115.43409562
C        1.84088309       0.18722605       9.76787385       0.00000000      -7.32125155      -2.53105930      -1.22416317
C        3.42815728       5.24773426       5.10914330       0.00000000 3358274.40652203 3890084.37484600 -3346725.06542048
C       -8.41548744       6.24737679       2.28754475       0.00000000   -3280.04008182  -21718.60084924   12614.36623216
C       -0.75718460      10.17234013       3.33126123       0.00000000     -32.12368620      86.34320789      -0.76820926
C        3.78410626       0.79775951       5.86413649       0.00000000     113.79700262    -276.86403588    -343.22521162
C        4.66552029       3.22272347       4.59313527       0.00000000  -27651.78011736   33913.20442954  -25420.46562241
B        1.41792004       4.78510628       7.11564640       0.00000000   22325.57521599      80.44085385  -23588.04877396
C        2.07875770      13.24723195      -0.29827274       0.00000000      -1.08786993     -14.85653342       5.86055249
C        6.86346248       1.05126944       4.25950185       0.00000000     -22.82952638     -89.54262974    -144.04578313
C        3.03293620       2.26153345       3.21246786       0.00000000  -18414.72764221     795.29341374   -3379.08590191
C        6.41309774       6.13672814       1.16367949       0.00000000    -767.80131515    -340.62521865     635.15741415
B        0.78538348       7.82576808       2.25458704       0.00000000     788.04635651    -707.06726548     462.04185088
C        6.51860751      10.26438841       9.18354889       0.00000000      10.86483945       9.87950270       4.27938032
C       11.46964479      -3.27384999       6.93898412       0.00000000   13959.57881166   14214.74467630   17404.78118432
C        9.73914466       1.54176558      -1.91188985       0.00000000   -2760.60354443  -24435.16237966   12528.54330093
C        7.44042396       5.10657535       3.83352737       0.00000000    2031.16417962   -1902.42837054    -182.87352015
C        7.60552248       8.28349675       5.70671218       0.00000000     347.75198357    1050.26497878    2023.09344724
C        6.95595679       7.68483938       3.86774370       0.00000000    1132.62725717     855.04121240   -2066.49978258
C        3.42575210      -1.49971449       8.04573388       0.00000000      -6.35313364     -13.25807598      13.93688812
C       -0.83574017       2.17260742      -2.00102107       0.00000000      70.43175752       7.86431660       5.91921614
C       -4.29438100       6.43902827      -0.42173550       0.00000000     -10.40676606      -8.52357149      33.00557937
C       -5.93035424       9.71301630       1.83199582       0.00000000     237.32806940     518.26561338    -356.13135018
C       -6.85522215       9.63646062       3.93720628       0.00000000     390.08860252    1550.27578100    -567.33791304
C        2.98899853       0.82997035       7.21529194       0.00000000    -409.28906580    -197.97968811     401.83006017
B        6.30536652      -0.92408676       2.16753288       0.00000000      38.10281119       1.17775870      -2.87166220
C        2.75074324       1.53297062       5.98906000       0.00000000    -719.33515454    -572.29073400    -352.73445416
C       -2.31081606       3.21644758       5.14741771       0.00000000      11.41042658     -11.15014914       6.77419084
C       -3.89266888       9.33241315       5.31652528       0.00000000     844.00882028    1394.52797284     438.88388007
C        1.41887585      -2.04849742       4.68179241       0.00000000    -118.00715325     683.90547863    -803.21812285
O        3.65374538       2.30896527       3.27035414       0.00000000   16746.44256245    8602.36263312    8770.25758790
C        0.86390602       7.06766166       5.03147475       0.00000000     -54.76486539    -293.07703016   -1911.39098318
C       -3.96321059       7.92091829       4.74518652       0.00000000    1640.04328081    -405.57799477    -754.47334599
C        4.50192398       2.93247311       3.05656413       0.00000000   -7134.03061664   35962.99309680   16891.91708079
C        9.23020668       8.68087065       5.22842750       0.00000000    1070.27624954     168.78526400     215.07539770
C        6.61477606       5.67536375       3.45597925       0.00000000  -19018.36383573    -406.71105205    1893.35939368
C        4.17027577       5.86548815       4.91020238       0.00000000 -7374189.78346497 -3743919.04077756 -1223738.51091729
C        3.45937085       8.13254451       3.80603517       0.00000000   -1065.42219608   -6366.77640552   -6613.75316077
C        6.79855549      -3.31467946       6.80511713       0.00000000   -2973.20343287     996.76475347     743.81538544
C        8.30256507       8.54694753      -0.55558102       0.00000000       2.63447458      -2.53463204      -0.92113740
C       12.42614180       9.99833412       0.68188569       0.00000000      10.62872404      -3.00571821      11.88647814
C        5.91369675      11.38601486       2.85392661       0.00000000      20.92454609     -86.10644640      29.71208778
C        4.90587007      13.55561673       4.84795807       0.00000000    -254.12483544    -136.56909549       1.63785181
Rh       3.71366907       5.47700423       4.67133381       0.00000000 1696853.84148455  116591.81397367 3054455.74123799
O        4.43827083       4.70169750       5.38572967       1.00000000 -547486.57159622  806052.54592555 -202031.80447900
O        3.81251595       5.77086861       5.03732924       1.00000000 2886479.61998899 -1135224.41264402 1722069.48011540
