51
Lattice="12.336457 0.0 0.0 -6.168228499999997 10.683685154694365 0.0 0.0 0.0 15.0" Properties=species:S:1:pos:R:3:initial_magmoms:R:1:forces:R:3 energy=-2527305.9789648075 free_energy=-2527305.9789648075 stress="2030.365576133533 1956.836957633903 -2700.9487220188385 1956.836957633903 2397.198578004328 -2475.772034943759 -2700.9487220188385 -2475.772034943759 3397.5446719106594" pbc="T T T"
C        2.94452593       0.25516814       2.05509082       0.00000000      -0.11926407    -174.46405097      20.81469615
C        0.19759133       1.65893050       6.59600346       0.00000000   -3656.07699372   -9687.58836437    5308.33852184
C       -3.26435608       3.98385871       1.99979810       0.00000000    -775.84105912    -323.31523175    -232.52785532
C       -5.76142900       2.56630097       7.72332934       0.00000000     177.04768483    -345.56583189      -4.67045637
C       -7.23299361       9.90778065       2.79177347       0.00000000    2229.41855632    2380.81031586    -546.45151829
C       -0.07425829      -2.02278525       5.18465272       0.00000000    2089.68286526     676.29626007    1180.28862010
C        1.16914704       3.59761024       4.89148580       0.00000000  140589.44671441  298834.52087712 -119505.25542003
C       -0.14310690       1.70200706       5.10964067       0.00000000   -3617.55543800   -7721.28783171   -1385.76696284
C       -3.73564970       6.83561546       1.20357333       0.00000000    1157.05773687    -167.63980926     770.98000769
C       -1.77503821       8.58185181       3.39219271       0.00000000    2221.43968834  -11100.11498132  -19109.25248591
C        5.16503683      -3.86712080       2.65648324       0.00000000 -272807.11409849  102786.49954472 -115336.28672995
C        4.04654449      -0.41584554       7.52355600       0.00000000     -32.78216376      23.25128122      36.55420187
B        0.41355429       6.36195968      -3.43403053       0.00000000      -2.21205715     -27.30773984      27.17053387
C       -0.32928636       6.52155318       3.00663713       0.00000000  794210.14973778 -1504566.19358360  625248.01483556
C        6.74631023       0.24716380       2.36574139       0.00000000      97.99086592     825.74218342     -25.47815284
C        4.86237066       4.96328494       6.39932388       0.00000000  -36123.78032744   21467.19306033  -20569.29123132
C        2.63041666       4.26327288       3.93498020       0.00000000 -271686.57808004  -99740.20012145  314178.33250131
P        6.23909829       6.71303838       1.93200294       0.00000000    6106.40125664    2004.75649339   -4448.67163432
C       -0.39182400      13.21778202       5.95883144       0.00000000    -655.53002236     471.14193476    -633.13758965
C        6.58434815       2.72861538       3.64966483       0.00000000     298.00638716    2767.03457658    1209.49144079
C        8.41915640       2.34482010       4.31477773       0.00000000   10718.04576407   -3794.55556164    3085.70703172
C        7.93122423       2.52381859       4.23206959       0.00000000  -10969.31245341    3187.47920627   -1528.17643096
C        5.09470034      10.90077113      -0.60163828       0.00000000      84.50823643      65.88746191    -118.23380916
C        2.72968248       8.67741639       1.09310206       0.00000000     524.46050862    -701.59646075      80.05793304
C        2.64036062       1.08440218       2.60917191       0.00000000   -1998.18494591    1986.06349341    -562.09991584
C       -3.97948435       3.28278967       4.47867163       0.00000000     531.00771843    -725.16472364      -8.93945298
C        1.16659547       3.47432517      -0.22391560       0.00000000     127.37755608     246.11484971     566.14385431
C       -4.42808806      12.89366435       2.71498590       0.00000000    -255.67263819   -3080.10926770   -2683.00341407
C       -7.43097284       5.87879333       7.82138075       0.00000000    3743.45610080     760.02526364    5395.17223723
C        3.46170327       5.81985112       5.65871768       0.00000000  248471.47443864 -226074.94043052  608798.23374429
C        2.02008530       6.26326925       4.50866029       0.00000000 19010787.32037921 29193593.49165582 -27211231.38528072
C       -0.21807469       3.77151305       1.72151945       0.00000000   -2103.00225959   -3175.66761677   -2881.28256264
C       -0.76879080       6.51820807       3.18173736       0.00000000 -473070.57067852  302046.64257392  -65362.21021437
C       -0.21052885       7.08455568       2.78392345       0.00000000  185100.35306074  943959.81575078 -106419.82835509
C        2.13685036       2.13066312       5.22031222       0.00000000    -322.82688755    4568.64654607     139.48668245
C        2.66512904       4.05811939       7.24699124       0.00000000    4675.60641331     141.85980455    9459.94800891
C        6.01997623       5.03496593       1.23116673       0.00000000     823.43611606    -837.46816389    -792.96314464
C        0.29172745      12.86839940       3.37286371       0.00000000    -672.15782938   -2761.69516321   -1354.62613997
C        5.42782867       0.74892330       3.51626108       0.00000000   -1160.36676832     238.74305827     -67.33169830
C        4.32118491       0.50134505       3.99571778       0.00000000      95.32510362   -1086.26415408    -102.41889648
C       12.77564888       9.07531800       3.87740473       0.00000000    7745.29643203  -10042.61739869    4085.60433719
C        2.82332915      12.39381465       4.79429555       0.00000000     651.96547478     966.78451672    -465.52506693
C        2.37058234      11.13750174       5.35241431       0.00000000    -217.72092758      90.91936341    -470.66308850
C       17.28468591      -1.04316461       4.92434914       0.00000000    -448.99927603    4232.88990310   -2297.76251531
C        8.54097854       1.82991466       6.13453432       0.00000000      31.40471373     351.92757074     -36.10777075
C        1.19510466       8.07730967       7.87294110       0.00000000     551.81091600    2974.94059629    8811.58742262
C        9.81766298       5.06727236       1.01256483       0.00000000    5506.66119940    5420.04953697    4845.73188735
C        9.73930063       5.84441710       3.96553357       0.00000000   27975.50142515    8536.29302501  -15086.75462260
Rh       2.20321781       6.38527540       4.26398914       0.00000000 -19797829.93443598 -24681626.37821879 26037930.23394516
O        1.75498931       4.44676831       5.21504332       1.00000000  805972.22423714 -400404.08982105 -931440.38033421
O        1.81566356       6.89575611       4.72437023       1.00000000 -384887.53868319 -3937441.59617717  993528.59030691
