52
Lattice="12.336457 0.0 0.0 -6.168228499999997 10.683685154694365 0.0 0.0 0.0 15.0" Properties=species:S:1:pos:R:3:forces:R:3 energy=-451.91086339370435 free_energy=-451.91086339370435 stress="-0.004428742634198515 -0.0026668224460600766 2.4096335511651472e-05 -0.0026668224460600766 -0.001121678143134951 4.957430614892618e-05 2.4096335511651472e-05 4.957430614892618e-05 1.0415196570229507e-06" pbc="T T T"
C        0.00697159      -0.00577429       3.93562084      -0.00009357       0.00475600      -0.00622729
C       -1.24005303       2.11669853       3.79636245       0.01278771       0.00605729      -0.01013154
C       -2.44911578       4.25757924       3.58694145      -0.00439986       0.00082270       0.00533837
C       -3.66750232       6.40650382       3.62537661      -0.00242365      -0.00843581       0.00416856
C       -4.91174948       8.54516220       3.84367078      -0.00021671       0.00690212      -0.00030392
C        2.47701975      -0.01533383       3.89537654       0.00799245       0.00311992       0.00132498
C        1.22703529       2.13526038       3.96414879       0.00816041      -0.00523517       0.00127045
C       -0.00154115       4.24977574       3.73791517      -0.00509080      -0.00933350       0.00185118
C       -1.21941906       6.40708214       3.63685396       0.00039937       0.00404521       0.00402134
C       -2.45128372       8.54156286       3.74754631      -0.00127725      -0.00086117       0.00323250
C        4.94356966      -0.00700246       3.72393815       0.00217241       0.00498307       0.00453989
C        3.66719277       2.09732015       3.63957535      -0.01075808       0.00084293       0.00304618
C        1.21514022       6.35653183       3.96858090      -0.00419347       0.00491088      -0.00165667
C        0.01755756       8.51912631       3.79339983       0.00994534       0.01072508       0.00155873
C        7.40743571      -0.01704435       3.73825349       0.00307159      -0.01093580       0.00469133
C        6.17375667       2.12344393       3.51853221       0.00039603      -0.00489401       0.00239013
C        5.02481776       4.33167039       3.39262672       0.01194630      -0.00222697      -0.00363750
B        3.72213109       6.34962227       4.13958707      -0.00571038       0.00090550       0.00132092
C        2.47899026       8.53004445       3.95380336      -0.00212004      -0.00027161       0.00522552
C        9.87031486      -0.01549564       3.84924097      -0.00539539       0.00237115       0.01018195
C        8.63922067       2.11816112       3.62939134      -0.00581555       0.01015654      -0.00283539
C        7.43628882       4.26716240       3.50189387       0.00315294       0.01179360      -0.00066186
C        6.23185557       6.42641952       3.71335035       0.00201409       0.00083191      -0.00383904
C        4.95682956       8.54425038       3.94304682      -0.00701380      -0.01161434       0.00513452
C       -0.00507747       1.41822799       3.92751731       0.01270617       0.00623508      -0.00117757
C       -1.23346819       3.53361526       3.67956720      -0.00484111      -0.00036773      -0.00531546
C       -2.44051543       5.68839223       3.58658744      -0.00056728      -0.00302578       0.00659139
C       -3.67800401       7.83059748       3.73745913      -0.00514645      -0.00474029      -0.00237924
C       -4.92222951       9.96449214       3.92064134       0.00230378       0.01256795      -0.01070946
C        2.46544310       1.40542518       3.88652672       0.00039442      -0.00432635       0.00278557
C        1.20272081       3.56253001       3.98465355      -0.00728843      -0.01040136      -0.00124418
C        0.00953011       5.68699045       3.72461681      -0.00221594      -0.00394806       0.00461556
C       -1.21752636       7.82531142       3.71185295       0.00740336       0.00821269       0.00063261
C       -2.45418319       9.96365549       3.80185026       0.00472524       0.00156003      -0.00748399
C        4.92803932       1.42426424       3.61620997      -0.00779231       0.00174325      -0.00376608
P        3.34717679       3.79410133       3.15852834      -0.00884262      -0.00432038       0.00792065
C        1.25531683       7.77687649       3.91357998       0.00361090       0.00651306      -0.00115588
C        0.00926136       9.94976265       3.75151095       0.00405774       0.00450364      -0.00938337
C        7.40135513       1.40867475       3.61931404      -0.00160100      -0.00939023      -0.00675833
C        6.20138817       3.55096138       3.42702962       0.01556288       0.00084487      -0.01066220
C        5.03193305       5.69999776       3.68785864       0.00280407      -0.00218767       0.00338356
C        3.71547666       7.85432044       4.01817746      -0.00864060      -0.00439621       0.00525588
C        2.46866669       9.95485726       3.84743067      -0.00161616      -0.00772641       0.00253563
C        9.86440422       1.40519175       3.75732474       0.00367171       0.00965501      -0.00676465
C        8.65469969       3.54592557       3.55678374      -0.00551685       0.01242151      -0.00067903
C        7.44830707       5.69523278       3.59049149      -0.00012578       0.00251271       0.00599327
C        6.20094028       7.84008424       3.85640340       0.00155727      -0.00144160      -0.00638253
C        4.94502181       9.96628041       3.91775729      -0.00403727      -0.00722278       0.00868711
Rh       2.46955355       4.97648325       4.86490476       0.00799063       0.00320689      -0.00485357
O        2.11134913       5.60266525       6.70480351      -0.01018432      -0.00534209      -0.00417780
O        2.51388488       4.47343953       7.57737677      -0.00327904      -0.01056356       0.00583027
H        3.17201031       4.94517267       8.12281055      -0.00262307      -0.00999171      -0.00134149
