52
Lattice="12.336457 0.0 0.0 -6.168228499999997 10.683685154694365 0.0 0.0 0.0 15.0" Properties=species:S:1:pos:R:3:initial_magmoms:R:1:forces:R:3 energy=-390732.4976242522 free_energy=-390732.4976242522 stress="-462.5987122453541 -629.8229874381841 526.865428844771 -629.8229874381841 247.09720915780525 781.4236607599943 526.865428844771 781.4236607599943 -559.6400126825944" pbc="T T T"
C        0.80294601      -0.13514693       2.03812180       0.00000000     -37.90844942     -24.88658259     -57.92622771
C        1.43782756       5.24689894       3.15170106       0.00000000   16947.89753446    8672.15822181    8390.78432201
C       -4.39176613       7.63680305       5.74037829       0.00000000   -1017.88872973      24.92356110    -577.38659772
C       -4.53120570       2.79333429       0.83051702       0.00000000      66.87038968     -20.20421994     -10.05498953
C       -1.49181712       7.66455660       6.72557636       0.00000000     224.77322745     -45.66204942      17.33342623
C       -1.29923203      -0.07920843       2.87250841       0.00000000     -90.42524261    -750.38889922    -136.96714837
C        3.48067415       2.38566013       6.38040232       0.00000000   -1009.40309232   -6768.08807940    3077.15387640
C        2.21036511       0.48594883       6.89458676       0.00000000      43.95614235      90.21975690     -19.82057891
C        4.75765700      10.74874633      15.51321502       0.00000000      41.64173863     -37.99131455      67.52807086
C       -5.60966989       7.50592416      -3.86273797       0.00000000      -0.87296043      -1.40432718       5.34907170
C       -0.43188121       1.69928534      10.03422379       0.00000000       0.38408544      -0.00069629      -1.67131047
C        6.75738436       0.55643588       5.30489813       0.00000000      16.30831434     -28.59521389       9.15358314
B        0.31287582       7.34792452       2.39801177       0.00000000     613.78205900     243.33731878     253.20761948
B       -1.40281374       5.19732331       3.62205856       0.00000000     519.99331770      41.61734029    -382.92798032
C       -0.22194171      11.46515847       6.78957116       0.00000000      71.84025549     -54.40345886       6.16920448
C        8.22509392      -0.11193031       2.20556697       0.00000000      25.60931321    -116.84298049      59.32631024
C        5.95523746       6.45656351       0.79389937       0.00000000    2180.00647428    2762.43966770   -3418.39494556
C       -1.17171342       6.78357965       0.71822075       0.00000000     -87.79409676    -120.09996663     -60.93804218
P        7.39067113      -0.73005577      -0.63918069       0.00000000      -7.42042077     -19.51480495      17.54981065
C       -0.74954544       8.02528835       0.76233489       0.00000000     -60.46475531      30.43544434    -124.06268100
C        9.91088428      -0.21486336       7.38551431       0.00000000     113.06622627     310.16999435      65.74252783
C        5.61860581       4.50012986      -0.42179266       0.00000000    -162.84062525     286.15135855    -348.73051448
C        6.50724079       2.31358592      10.53717997       0.00000000      -0.15684506      -0.33150318      -1.24978141
C        5.89689703       6.56144116       2.41100751       0.00000000  -38050.86527564  -38719.16893852   23744.20891623
C        5.69801306       5.57560247       3.14915493       0.00000000   85748.99486652 -112690.82224623 -105209.09908524
C       -1.86191690       0.43421303       1.28602041       0.00000000      78.70226810       9.85602787     202.13747150
C        2.18939207       3.28626390       3.08508565       0.00000000   -3939.73456691   -5245.63019065   -4146.49781099
C        0.49410978       3.41743566       1.77826478       0.00000000     252.24165079    -210.55514568     108.33124818
C       -4.05216309       8.69612965       5.69755170       0.00000000    -203.06812233    -547.26728654     103.29678588
C       -6.81357308      13.04161269       4.59320837       0.00000000     -43.21110793      45.48611444      43.02368452
C        2.58974075       5.17466173       0.33347960       0.00000000     -67.65416578     361.08481891    -567.28683437
C        2.56907729      -0.94231846       9.50400854       0.00000000       0.97812070       1.45041303       5.32890336
C        0.54501996       5.60274827       2.15571071       0.00000000    1790.61102447    -371.93398688    1642.77799565
C       -0.00625758       5.64446555       4.56998085       0.00000000   -2853.24678158     -28.15700668   -1521.94963403
C       -0.47541493       9.17254285       0.55905355       0.00000000      -9.44134652      55.88194065     -61.37191537
C        5.15086728       5.05747143       1.36008194       0.00000000    -154.35233218   -1545.05579957    4056.98435329
C        4.33062285       5.91873008       4.42432900       0.00000000 -1053836.56993315 4085403.06175514 1211949.90648263
C       -5.35839861      12.16083978      -0.25103127       0.00000000      -0.89596541      -3.34996278     -12.88905168
C       -0.48735066       5.33666572       3.00843408       0.00000000     -23.22409683    -493.47621617     941.92971005
C       10.42854895      -8.87959828       1.51121180       0.00000000    -503.83280609    -922.79384678    -889.19842091
C        2.88109651       6.05872916       6.07127642       0.00000000  179089.04422041   45192.87072841 -241305.81621539
C        3.97756886       3.44691390       2.51148426       0.00000000   -4651.12902675  -16555.81925477  -18507.17860225
C        7.60758414       7.53774728       3.57865562       0.00000000    -358.47323504     941.03065720     580.98020878
C        3.31446793      12.51509834       7.26920586       0.00000000      31.43075411    -142.70412712      11.29332839
C        8.89436574       1.75981005       4.80936449       0.00000000      -6.30904458      19.39719456      13.70282025
C        5.61036368       6.40228417       3.22088185       0.00000000  293068.33036891   53738.90366591 -209336.30301450
C       10.21072759       2.40389944       4.79681079       0.00000000       0.60312800      33.74265257      11.54387776
C        8.05005024       8.34080681      -0.85589462       0.00000000     -10.71625255      -0.78516534      18.95012954
C        4.37256838      11.35051494       8.38805269       0.00000000    -109.46372055    -133.23358858    -154.82709150
Rh       4.18514894       6.24800774       4.56425158       0.00000000 3659886.15450412 -1092832.66546308 -4755084.86611643
O        3.71134254       6.44608571       5.74105642       1.00000000  162234.00273682 -205843.84529306 -316289.52195609
O        3.90142867       5.97129055       4.92664575       1.00000000 -3295749.85972378 -2713988.54101747 4402823.24280739
