51
Lattice="12.336457 0.0 0.0 -6.168228499999997 10.683685154694365 0.0 0.0 0.0 15.0" Properties=species:S:1:pos:R:3:initial_magmoms:R:1:forces:R:3 energy=-356805.06113432033 free_energy=-356805.06113432033 stress="351.8962880838795 -74.03551248911792 183.90869551337772 -74.03551248911792 232.7925749062136 10.337729642454981 183.90869551337772 10.337729642454981 136.22198887807698" pbc="T T T"
C       -1.69287875      -0.43180593       6.21347069       0.00000000      35.46448771      10.23498080     -25.58087481
C        1.01910917      10.01441665       9.19948243       0.00000000    -799.50598168     429.05080868    -409.61700605
C       -3.87882429       1.85680886       3.58881996       0.00000000    -578.87132836    -265.73321163     410.32647157
C        4.38925292       2.21475035      -2.85997510       0.00000000      -1.79720241       7.89660732      20.35386506
C       -4.45012009      10.57311885       3.26361690       0.00000000     537.67695416    -622.48607066    1213.55995029
C        3.40380137      -0.85841038       2.47875255       0.00000000     -68.48039586    -106.68949659    -348.36292413
C        0.78838323       2.57126489       4.97051167       0.00000000    1110.41988828    -890.75486490     710.41210110
C        7.44895294       5.49807168       3.30855964       0.00000000       4.45913652       9.91673023      12.47599171
C       -0.78833100      14.02302181       5.52776858       0.00000000   -1134.62463632     158.34140659    -943.31436125
C       -4.98206430      18.11593854       1.49526163       0.00000000      -1.92128655       1.90179522       2.05220675
C        1.84878519      -0.29348202       9.15188082       0.00000000   -1385.33519791    -775.24521369    1984.24101350
C        5.20281434      -6.69533452       5.86677313       0.00000000     -61.42029788      -7.16397492      21.39186720
C        3.10382162       1.24076503       5.74286124       0.00000000  137432.16071716 -171651.02779536  107265.35677505
C        4.03788531       9.13736445       9.24434238       0.00000000       2.97552264       2.46312053       3.09700642
C       11.64182928       3.28693683       7.41714424       0.00000000     -49.82391273      30.54292203      19.63580188
C        4.98917170       3.46185834       6.58061498       0.00000000    1238.51377153    2170.73410983    -664.28841586
C       -1.37822105       6.12750350      -5.59972988       0.00000000     -84.01061415     464.95988380    -284.23770932
B       -1.54666603       0.93697363      13.59970712       0.00000000      -0.41896413       1.44570969      -0.05906745
C       -0.75768113      13.68246454       4.73634463       0.00000000     909.27270695     538.42009688    1199.05766928
C       16.06848452      -1.11414463      -0.03219910       0.00000000      18.04526383      18.57438784      74.24693984
C        7.43058688       4.46973903      -0.80850764       0.00000000      -0.47581983      -0.24126766      -2.76383218
C       14.47252569       4.55253006       4.56487826       0.00000000     330.74339005    -692.16840325     256.68275398
C        0.58607741      13.51945822       6.22614381       0.00000000    -922.86091022   -1260.60117182    -238.84120604
C       -1.03456785       5.91144950       5.59314443       0.00000000    -270.48887872     933.52084530     113.07841517
C        5.93172301      -4.80499240      -0.91317741       0.00000000      -0.89375451      -0.03598621      -1.42028307
C       -3.56868163       2.57712432       2.78908476       0.00000000       7.06339419      20.41780444      -8.04161133
C       -2.21043073       4.64497541      -4.04206797       0.00000000       1.95292298       1.54342523       0.46510083
C       -5.02439597       8.57038287       8.56752400       0.00000000     998.65237037     905.80046533    -396.26206273
C       -6.36551596      11.04233681       4.79509595       0.00000000     512.38440454     -61.19702060     251.70838258
C        4.45521894      -0.55114412       3.09848817       0.00000000     730.77093363     482.22848328   -1873.93695549
P       -0.91948835       3.39545558       1.70660814       0.00000000       0.61605896     -22.27789141      -4.96267744
C        2.42203680       5.93894270      10.41415690       0.00000000      -0.88815242      -0.73068939      -1.07296450
C       -1.53773953       3.64475128      13.00945325       0.00000000      -0.37244760       1.16771500      -2.60927295
C        1.13661938      15.47234935      -3.27237324       0.00000000       0.51864442      -0.07460597       2.20295883
C        4.78003421      -3.47346194      -2.99585237       0.00000000       0.37240080       0.13244972      -0.66035527
C        2.91901918       1.95593143      -4.84800942       0.00000000     542.25946679    -595.41683548   -1098.49774965
C        1.63394830       1.96818596       6.47481502       0.00000000   -9759.63760571    6491.17973721    2207.78386990
C        2.96947455       9.92762144       6.57514028       0.00000000    -873.68423756     198.13450220     -25.08543601
C       14.64785489      -3.57257748       2.53345817       0.00000000     164.70300377     312.15948182     329.97335101
C        2.32288144       8.56820349      -1.67471121       0.00000000      -0.99161123       1.13545346      -3.17174962
C       -1.05181755       4.67324493       1.60329831       0.00000000      -1.82764815      27.95595639       2.16133238
C       -4.93444444      14.02255251       0.69244556       0.00000000      -2.89911640      -0.45197939       1.69573804
C       -0.59191321      11.56509871       2.87371030       0.00000000    -208.93886632    -325.55260132     452.20572180
C        8.08469101       4.14764414       7.16853036       0.00000000    -143.40029035      20.59726276      28.39884453
C        4.89655656       6.26486491       2.70367211       0.00000000       2.22512523      -8.00442539       9.35880204
C        9.34961915       3.63174948       5.43955662       0.00000000      30.73404492      27.23074578     -45.04312139
C       -0.14666666      12.82820060       0.00616853       0.00000000      -3.54948895      -7.23541765       3.59585910
C        8.34097829      10.01862892       4.45359626       0.00000000   -2454.58868991   -3039.98994214   -2454.61666135
Rh       3.66900387      -0.25878057       6.05765172       0.00000000  754712.68303844  357999.45363516  514732.79496912
O        4.24557935      -0.07049644       6.42529497       1.00000000 -1780249.68989101 1073558.92177773  -99711.06661739
O        4.11852499       0.06565241       6.43742157       1.00000000  899736.72957902 -1264492.98343478 -522784.80084364
