51
Lattice="12.336457 0.0 0.0 -6.168228499999997 10.683685154694365 0.0 0.0 0.0 15.0" Properties=species:S:1:pos:R:3:initial_magmoms:R:1:forces:R:3 energy=-1483822.9144044963 free_energy=-1483822.9144044963 stress="-181.95968984322744 -155.97448009835713 482.38890357630993 -155.97448009835713 2254.8196926234427 769.0235032014185 482.38890357630993 769.0235032014185 96.51896710462857" pbc="T T T"
C       -6.34382141       0.47765156       5.46281442       0.00000000   -4355.35251552    -870.36549861   -9814.27416743
C       -0.20854499       6.13718097       2.35920252       0.00000000   -2430.21825934   -5407.54188548     801.16492053
C        0.73334669       5.63125424       0.28539934       0.00000000    -858.78566532    -538.31307115   -1493.29423268
C       -6.15122118       4.67473988       3.32125925       0.00000000 -108303.74956087   86633.55245037    7297.93061465
C       -5.44053442       6.69749913       3.74514710       0.00000000  -36675.27400043   21389.82774958  -28967.39491314
C        1.51435282       0.05676039       4.27570786       0.00000000   -7798.06763381   -6724.17895457    1954.07881820
C        1.78256887      -5.60939696       4.06714938       0.00000000   -8163.86779468    3176.17682914   -1692.69149529
C       -2.62592065      10.64853874       1.25817697       0.00000000    2945.43959469    5939.00961958    7244.03621917
C        1.75332992       2.03973601       1.79588254       0.00000000   -4190.21105646   -1279.59223070   -6801.60924483
C       -6.71539219       9.95720813       7.26061786       0.00000000    1923.31939527    1371.31812824    1561.24721333
C       -0.36759005       4.01891259       3.96863996       0.00000000     403.79020001   -1026.53273427     277.66748584
C        2.72625189      -3.55634323       3.57240970       0.00000000    1900.74330705   -1407.65107724    -302.92752885
B       -2.02293677      12.39211067       3.61400063       0.00000000  878007.20056153 -1834222.29470707   91127.06263233
C        1.29306021       9.27688110       6.94464784       0.00000000   -1378.36252676    1623.41609673    1203.45318257
C       10.68207895      -0.90110792       6.19282124       0.00000000   -2515.03392489  -12087.26228479  -11600.89082798
C        4.21288609       1.60732451       3.55909988       0.00000000 -898631.30491033 1836109.65918955  -77371.41511632
C        5.27365831       3.10215830       1.46446275       0.00000000   -7199.70460606   -1988.31190085   16284.17533481
C        5.26006189       3.09967507       2.27410004       0.00000000    7054.36537094   23316.74581329  -27517.09948055
C        4.96268672       9.58261687       2.21855509       0.00000000  -14622.73153030  -65240.29391546   38569.75841880
C       12.10587425      -2.83902422       5.68096827       0.00000000  -12707.09674331    8647.60847885  -31744.07771172
C       12.04608880       6.84535453       2.05972455       0.00000000   -2542.09186258    2298.15177915   -4103.41084417
C        4.69600015       1.98442332       1.35801690       0.00000000    3796.40416714   17257.83370967  -49774.48077321
C        8.66930751       5.32843068       4.58743941       0.00000000      91.06471277     187.27783992    -940.16238007
C       -0.19393340       7.69807600       2.44893837       0.00000000    -998.42595356    2126.76754391     618.86327275
C       -0.64422744       2.78621037       7.78723724       0.00000000       1.91282784      13.86685440       1.76570454
C       -3.96949414       0.68197254       3.38187400       0.00000000    -384.00423504    2823.93773403      30.09063655
C       -5.28137176       2.13690991       4.01128188       0.00000000  -12615.86842995   -5113.85396580   -5526.27560259
C       -6.67730426       8.65646890       2.93850928       0.00000000   -6307.30315713  -22056.55785030   11195.90540270
C       -6.01503102       5.78649506       2.52793492       0.00000000  -79506.96924682   41542.99563013   37227.02779883
C       10.47079557       5.29211458       0.13384546       0.00000000      -0.01913254      -3.60260565       4.43019701
P        4.87490999       1.34774920       5.57505434       0.00000000  -35291.89734713   45789.08338548   43723.88631487
C        4.04773313       4.89959566       3.37247831       0.00000000   72944.70594701  840543.42913282  158000.81212090
C        5.12415727      12.78554042      -2.73983252       0.00000000       0.49646116       0.05165852       0.99493463
C       -5.04146596      10.13789917       7.58880308       0.00000000       4.37651823      47.96758191    -317.16153945
C        3.50591861       5.80293852      10.47725789       0.00000000      -2.11619171      -2.51108415       5.20243312
S        3.65731961       3.58898689       1.27916136       0.00000000   19449.57691350   13579.86430060   42332.86674633
C       -4.33861232      12.34587201       4.82424824       0.00000000   -9591.04117894    2484.32282281   12561.69605737
C        0.40978888      13.11240080      15.76276385       0.00000000    5053.63435933     333.99728223    -967.59403229
C        6.85896536       2.88604148       8.04061086       0.00000000    -176.88029031     -59.13026764    -334.86065571
C       14.29226672       2.86168409       3.71297020       0.00000000   69661.74313266  -21782.43820166    2791.42286548
C        4.33540524       4.97916410       1.20408218       0.00000000    8050.70936950   61368.91679980  102893.42677746
C        5.03635760       7.98161991       5.99730137       0.00000000   20347.89159219   31405.89372072   33432.70286551
C        3.55929455      10.14516434       4.98189600       0.00000000    6495.89137006  -28392.16936952   -8526.97040375
C        4.97385632      -2.48115550       6.12694581       0.00000000    -161.97826717     269.67065915       2.97150307
C        5.87329758       2.59870119      -3.60906809       0.00000000       2.22129954      -1.47686337       4.57735955
C        4.80015979       6.24368559       2.70619074       0.00000000 -692860.25502539 -303476.27277635  837366.35096128
C        7.16517047       4.32476662       1.52726657       0.00000000   -3496.07622779      71.05566765    1060.01866925
C        9.07150062       7.80569212       3.83639510       0.00000000    1498.11530792    1836.89443206     134.28707589
Rh       4.30395091       6.77714274       3.85055888       0.00000000 3730170.07298119 -2189405.73327531 -4533499.33494929
O        4.00199803       6.45962140       4.01134273       1.00000000 26523366.64127786 32794753.54899222 -10028597.91947574
O        3.98308662       6.50488947       4.05759305       1.00000000 -29399405.62939328 -31345856.75736250 13380183.97083777
