52
Lattice="12.336457 0.0 0.0 -6.168228499999997 10.683685154694365 0.0 0.0 0.0 15.0" Properties=species:S:1:pos:R:3:forces:R:3 energy=-449.41194225555256 free_energy=-449.41194225555256 stress="-0.0028496018726189886 0.0032118361455481556 -2.898818496565668e-05 0.0032118361455481556 0.00041943341833381044 1.8224911774733585e-05 -2.898818496565668e-05 1.8224911774733585e-05 -1.0327289776938594e-05" pbc="T T T"
C       -0.02070871       0.05447902       3.82507458      -0.00762089       0.00462297       0.00193223
C       -1.24978896       2.18324755       3.78831530       0.00174805       0.00539548       0.00084100
C       -2.51586401       4.32244700       3.61839614      -0.00375315      -0.00582880       0.00664033
C       -3.75284327       6.45974722       3.59619466       0.00097230       0.00149502      -0.00572133
C       -4.97707074       8.59314117       3.71761652      -0.00054751       0.00927455       0.00157299
C        2.44880315       0.07268410       3.77474684      -0.00423092      -0.00692268      -0.00317903
C        1.24283841       2.20214566       3.98497644       0.00117803       0.00093235       0.00230168
C       -0.11863396       4.34827776       3.96307514      -0.00003600       0.00018475      -0.00455204
C       -1.31236330       6.47716251       3.80459390      -0.00112732       0.00018218      -0.00303129
C       -2.51198672       8.60424594       3.73466486       0.00159831       0.00146344      -0.00694011
C        4.91203139       0.04224570       3.72382053      -0.00711897       0.00424339      -0.00071597
C        3.72653123       2.17390248       3.70447949      -0.00027743      -0.00120866       0.00275942
B        1.19113862       6.42358209       4.36054567      -0.00811938      -0.00412088      -0.00868462
C       -0.03829515       8.59752475       3.91846749       0.00047210       0.00037582      -0.00838261
C        7.38511116       0.03804281       3.76693807      -0.00469786      -0.00368113      -0.01449105
C        6.16326200       2.15775266       3.54621123       0.00489839      -0.00023158       0.00369688
C        4.95047221       4.25509800       3.54724459       0.00634313       0.00243776      -0.00299300
B        3.64700629       6.36330131       4.13468998       0.00552480       0.00811601      -0.00125914
C        2.43752216       8.59856191       4.01879917       0.00152937      -0.00104339      -0.01164062
C        9.84982495       0.04482047       3.81199769       0.00288726      -0.00299283      -0.00690015
C        8.62372833       2.17336344       3.61205559       0.00429317      -0.00431625       0.00018278
C        7.37584306       4.31025254       3.48753160      -0.00146213      -0.00063708      -0.00061531
C        6.11850656       6.42869642       3.64154913      -0.00382158       0.00272410       0.00567058
C        4.89755809       8.58002109       3.86346728       0.00223917      -0.00625398      -0.00368322
C        0.00048024       1.49366625       3.87623246      -0.00167596       0.00612065      -0.00410567
C       -1.29125283       3.60288175       3.75780639      -0.00079010       0.00186794       0.00129488
C       -2.52904731       5.75049857       3.64207819       0.00081730      -0.00416428      -0.00302689
C       -3.74639704       7.88619690       3.67044646      -0.00052240       0.00606674       0.00348308
C       -4.95873470      10.02794385       3.78278713      -0.00836057       0.00718325      -0.00806779
C        2.47769860       1.50670300       3.83547935      -0.00318956      -0.00795611       0.00092916
B        1.19255036       3.67950679       4.28216293       0.00619039       0.00809656       0.00982032
C       -0.12606157       5.74113820       3.99979367      -0.00761323      -0.00252632       0.00634266
C       -1.28845903       7.89956358       3.82382782       0.00124715       0.00039423      -0.00314976
C       -2.49854754      10.03220817       3.74271034      -0.00231311      -0.00158624      -0.00006060
C        4.92676323       1.46396123       3.63827588       0.00004101       0.00365636      -0.00029610
O        3.76836553       3.54377717       3.62975729       0.01351312      -0.00222303       0.00900587
C        1.19748585       7.90872460       4.09855769       0.00156707       0.00017648       0.00704132
C       -0.02474282      10.01482366       3.79630683      -0.00883939       0.00204227      -0.00022030
C        7.38864644       1.45760340       3.62173921       0.00320643      -0.00263443       0.00423459
C        6.15973366       3.57083766       3.46643900       0.00366923      -0.00092929       0.00532529
C        4.91696447       5.65652285       3.70792444      -0.00401718       0.00329573      -0.00108825
C        3.66146776       7.88025126       4.00669739       0.00208176       0.00085854       0.00387026
C        2.44676703      10.02190649       3.86610067      -0.00088385      -0.00031271      -0.01004301
C        9.85614454       1.46706306       3.72364786       0.00699630      -0.00050692       0.00088606
C        8.60848020       3.59996365       3.54119422      -0.00404006      -0.00464870       0.01205098
C        7.35735161       5.73303208       3.53827760      -0.00298206       0.00160530       0.01050633
C        6.12603130       7.86361854       3.74310191       0.00297946       0.00139837       0.00329730
C        4.91310229      10.01771204       3.83658659      -0.00015746      -0.00721111       0.00060378
Rh       2.41865752       5.12180223       5.08894131      -0.00660199      -0.00439538       0.00261105
O        3.32359841       3.86101191       6.23299689       0.00502615       0.00171368      -0.00230709
O        2.73050236       4.21547382       7.52595980      -0.00151781      -0.00153289      -0.00111921
H        3.45975310       4.73680003       7.91570260       0.01529840      -0.00805924       0.00937335
