51
Lattice="12.336457 0.0 0.0 -6.168228499999997 10.683685154694365 0.0 0.0 0.0 15.0" Properties=species:S:1:pos:R:3:initial_magmoms:R:1:forces:R:3 energy=-444.69896601447596 free_energy=-444.69896601447596 stress="0.007458626145954491 0.0007666222352130498 1.0374022707212977e-06 0.0007666222352130498 -0.007874080713749817 -1.3312558891304458e-05 1.0374022707212977e-06 -1.3312558891304458e-05 -1.1127681838319648e-05" pbc="T T T"
C        0.03634074      -0.02768820       3.88698046       0.00000000      -0.00187744       0.00239024      -0.00710237
C       -1.18018734       2.12554308       3.77277386       0.00000000      -0.00484350       0.00793612       0.00639189
C       -2.44335843       4.24614314       3.50809426       0.00000000       0.00317825      -0.00225072       0.00302300
C       -3.71084857       6.36300433       3.53142559       0.00000000      -0.00057976      -0.01140610      -0.00826013
C       -4.93314037       8.47949104       3.73106058       0.00000000       0.00523259      -0.00238422       0.01255655
C        2.49346347      -0.10040798       3.72487231       0.00000000      -0.00215088      -0.00288577      -0.00366134
C        1.33545544       2.04138832       4.00199979       0.00000000      -0.00478664      -0.01300697      -0.00910636
C        0.04794069       4.24622430       3.50934969       0.00000000      -0.00484596       0.00242807      -0.00536722
C       -1.21512562       6.38010017       3.39698917       0.00000000       0.00345211       0.00285639      -0.00119652
C       -2.44327381       8.48608088       3.54994955       0.00000000       0.00201476       0.00658261      -0.00380803
C        4.95823699      -0.04268945       3.54211262       0.00000000      -0.00099749      -0.00067032       0.01406675
C        3.71711211       2.04951221       3.60438028       0.00000000       0.00210807      -0.00079521      -0.00764033
P        1.64030758       6.23278688       3.67543418       0.00000000      -0.00779477       0.00534478      -0.01598451
C        0.02943786       8.53955122       3.57156910       0.00000000       0.00074344      -0.00528145      -0.00584706
C        7.42399371       0.01869047       3.63271595       0.00000000      -0.00421470      -0.00265502       0.00347185
C        6.17242030       2.12259668       3.51145829       0.00000000       0.00634388      -0.00246861      -0.00991202
C        4.84289478       4.22616044       3.60094487       0.00000000      -0.00081789       0.00552963       0.00622414
B        3.53554338       6.33955398       4.18842751       0.00000000       0.00458495       0.00148574       0.00223041
C        2.51201529       8.63480491       3.85337414       0.00000000       0.00121950       0.00011905       0.00381087
C        9.91282648       0.02854141       3.82145562       0.00000000       0.00091219       0.00439860      -0.00246560
C        8.66268245       2.13704210       3.61652649       0.00000000       0.00633789       0.00313849      -0.00528245
C        7.37508118       4.24362654       3.52738369       0.00000000      -0.00189234      -0.00709328       0.00873367
C        6.11988133       6.35471056       3.71104563       0.00000000      -0.00623460       0.00115239       0.01127712
C        4.94904908       8.53649367       3.91489997       0.00000000      -0.00014983       0.00148316       0.00800344
C        0.06068609       1.40873337       3.91467726       0.00000000      -0.00905125       0.00106765      -0.00662289
C       -1.18684768       3.53106582       3.58837834       0.00000000      -0.00275768       0.00380180       0.00601619
C       -2.45781677       5.66384388       3.45051775       0.00000000       0.00579219      -0.00599632      -0.01359268
C       -3.69426575       7.77730883       3.59497572       0.00000000       0.00570754      -0.00513037      -0.00145319
C       -4.91971447       9.90128971       3.80217979       0.00000000      -0.00151818       0.00093827      -0.00507354
C        2.50966288       1.30489909       3.78378524       0.00000000       0.00029552      -0.00524965      -0.00966620
P        1.78674685       3.77963351       4.05964708       0.00000000      -0.00203846       0.00682739      -0.00098443
C        0.00202181       5.62884774       3.34369167       0.00000000       0.00417935       0.00490032       0.01364703
C       -1.20387260       7.79737636       3.48797265       0.00000000       0.00108625       0.00137757       0.00446120
C       -2.43731045       9.90184890       3.59384958       0.00000000      -0.00083631       0.00498072       0.00888082
C        4.95780025       1.37822399       3.52352357       0.00000000       0.00463015      -0.00211556       0.00069237
C        3.60526533       3.45183628       3.59885332       0.00000000       0.00000242       0.00478768      -0.00050571
C        1.29147449       7.93687060       3.70539550       0.00000000       0.00297000      -0.00225456       0.00417649
C        0.02798020       9.96275994       3.56835598       0.00000000      -0.00405333      -0.00729838       0.00640061
C        7.42136407       1.43239681       3.57650235       0.00000000       0.00696168      -0.00000490      -0.00435316
C        6.12576110       3.53779809       3.52192518       0.00000000      -0.00171929      -0.00190829       0.00350280
C        4.86847121       5.63158173       3.77014435       0.00000000      -0.00560484       0.00540380       0.01313684
C        3.70180163       7.88821322       3.99326555       0.00000000       0.00011248      -0.00471775      -0.00949589
C        2.50186773      10.03579377       3.77260908       0.00000000      -0.00160753       0.00160885       0.00397826
C        9.91390481       1.43960089       3.74169400       0.00000000       0.00275013       0.00455963      -0.00403255
C        8.64215131       3.54961747       3.54047107       0.00000000       0.00303297      -0.00038340      -0.00695071
C        7.37178362       5.65975226       3.57686699       0.00000000      -0.00843949      -0.00792584      -0.00825134
C        6.16621288       7.78367528       3.80248016       0.00000000       0.00064484       0.00104927       0.00726122
C        4.96590975       9.97237365       3.88676454       0.00000000       0.00061800       0.00297315      -0.00021328
Rh       2.35486233       5.47148592       5.58287297       0.00000000       0.00475236      -0.00254285      -0.00468650
O        1.40025733       4.83189994       7.52739767       1.00000000       0.00140472       0.00281679       0.00273113
O        2.53670326       5.39222124       7.34902411       1.00000000      -0.00225603       0.00448735       0.00684135
