51
Lattice="12.336457 0.0 0.0 -6.168228499999997 10.683685154694365 0.0 0.0 0.0 15.0" Properties=species:S:1:pos:R:3:initial_magmoms:R:1:forces:R:3 energy=-724263.0180759431 free_energy=-724263.0180759431 stress="297.2820323675775 192.36412599528646 0.5631850589479342 192.36412599528646 128.81722280773474 -61.16981984350244 0.5631850589479342 -61.16981984350244 344.6242483537804" pbc="T T T"
C        0.49348043       1.94239220       6.00023982       0.00000000     161.84117311  -30547.98064414   -3042.70190254
C       -0.41431996       2.61361738       5.45951407       0.00000000  265025.87014073  261782.55209700   68915.54589026
C       -3.95439298       4.01069688       7.72617168       0.00000000     711.61781072     238.53324764    -106.28774747
C       -0.21946583       4.97918880      -3.25606321       0.00000000     112.01779406     -16.98367683    -370.62902907
C       -5.08941895       6.61691752       4.50370969       0.00000000     -26.49279876      14.73158470      23.20184578
C       -0.75888733      -1.17143675      -0.80866936       0.00000000       4.70379096       0.64429752       5.90880434
C        2.52026594       3.05304791       5.53609344       0.00000000 -292962.18764231  114857.49594942 -193907.15161554
C       -1.74752061       4.34185647       4.46228992       0.00000000   16224.96070314   -1509.05065974    9756.82913564
C       -1.51735718       5.17044209       5.57594915       0.00000000   25347.22755262   -3287.61842150   -2066.17424455
C       -2.91437750       5.61734573       4.72779046       0.00000000    3893.93562050   -2486.90018904    2080.96083204
C        7.91509107       1.37641970       5.86934406       0.00000000    -241.72052385     -54.77583344      21.76942717
C        1.35165926       4.49653808       6.44731731       0.00000000 1011424.67045785 1361519.57253023 -1201313.05466489
P       -1.10317281       8.91080845       2.55571835       0.00000000     121.00671948     -57.70966258     -44.64989031
C       -2.23668507       8.61969464       4.90804838       0.00000000     573.06016554    -979.98366054     107.20138450
C        4.62938575       1.03528593      -0.64165214       0.00000000       1.57498434      -0.71198710      -1.53234380
C        9.04190267       8.07169191       4.77288516       0.00000000    -425.68889037     298.03612396    -215.86386730
C        2.30887579       9.57873603       0.62714749       0.00000000       6.57034474     -15.35552057      15.05872747
B        2.03634074       6.14866765       5.86660351       0.00000000  -86058.23889522 -230273.41971475  115945.36186654
C        1.83894704      10.34588440      -0.00286141       0.00000000      -8.78137574      13.08950191     -10.09951839
C        6.99421177      -0.75767434       4.51986271       0.00000000     -56.26379073    -465.73955230     -69.64431700
C        6.72016361       2.68733851       1.27753797       0.00000000      15.30398221       1.33837309      -7.73924228
C        4.47137580       4.64949417       6.17073749       0.00000000   -2460.32636436    -586.95381005   -6821.33742212
C       10.96751306       6.74175043       5.59885578       0.00000000   12242.50264256  -10300.95943509   -1308.37178968
C        6.91156169       8.78975973       5.00010245       0.00000000     -87.04512355    -706.63887677     -65.33283085
C       -0.09719523       2.90873759       5.61310174       0.00000000 -255420.38574567 -179466.29995523 -107058.10582236
C        3.89392198       3.47713452       4.36291541       0.00000000  -12675.37100673    2440.22362050    4258.94713335
C       -3.19873532       6.80112698       4.52218080       0.00000000    1378.61339547    -202.06572180     734.01828757
C       -7.20110546       7.15850400      -0.38574676       0.00000000       2.01740531      -1.06141598       5.14674404
C       -2.40437777      11.94025799       3.02760830       0.00000000     629.84837610    -739.53704546   -1928.88278919
C        2.26769736       3.12734041       5.32460158       0.00000000  314817.62299660  -56441.71987196  231540.72163793
C        8.39537635      -4.86461226       3.62064415       0.00000000   -4964.97544159   -7141.26126287     903.12128957
C        0.82302979       3.45922470       3.54562026       0.00000000   -4054.67921640   24937.98517038   36064.55498668
C       -3.39132251       6.66675777       3.15903654       0.00000000    -146.10390930      75.28886499    -587.60132520
C       -4.06896560       9.42832736       5.35344788       0.00000000     104.11865933   -1792.46275563    -101.71058420
C        3.28082060       1.80529832       4.56943805       0.00000000   -7009.64620990   -9218.98619718   -3210.04435041
P        6.44536400      -1.83438652       6.72691002       0.00000000    2154.84230375   -5690.22999699   -1179.65890214
C        1.21885135      -0.52006368      -0.49681894       0.00000000      -5.11740568      -2.53301688      -1.67446416
C        3.18758585       9.31506953       5.64978136       0.00000000    -922.17692223   -2463.45209346     254.20417610
C        6.00823787       1.94102167       1.98480980       0.00000000     355.59550994    -129.23938419    -327.10809060
C        3.18036231       2.55905420       3.61770383       0.00000000   -6864.29097014    5699.10917629   20589.74077915
C        4.94919995      10.46245570       1.91827513       0.00000000     -74.26412826    -146.49442054      -8.86348282
C        5.07750892      10.47122007       1.24188916       0.00000000      17.27185393     -56.29606316    -270.46166423
C        5.63558504      14.78627812       4.34440797       0.00000000   12658.99721905   -6048.01548320   -4770.48143026
C        6.39780671      -0.78838846       3.39675237       0.00000000      -5.69142188     104.12179430     -13.82618332
C        7.90784236       3.20062013       3.91780083       0.00000000    -155.98320848      89.64065206    -121.80428469
C       11.79978727       5.64494510       4.09069255       0.00000000   17822.25525834  -17531.80308328   28274.93664353
C        7.86121967       7.94475240       4.44408554       0.00000000      66.96023084      -2.55638186       1.40832477
C        5.74905653       6.18459841       1.08483016       0.00000000      -5.20159147       1.22486179      -2.26029949
Rh       1.12975709       4.71067092       5.89357290       0.00000000    1525.30687639 -486169.85688263  679525.79933505
O        1.44114905       4.69167078       6.32558214       1.00000000 -934216.67666268 -1778276.82316503  730192.49069718
O        1.20880666       5.32774451       6.08119812       1.00000000  -78553.00472232 1060737.88799596 -400283.87384983
