52
Lattice="12.336457 0.0 0.0 -6.168228499999997 10.683685154694365 0.0 0.0 0.0 15.0" Properties=species:S:1:pos:R:3:forces:R:3 energy=-453.0367267213733 free_energy=-453.0367267213733 stress="-0.007081894434365485 0.0022278024917118987 -5.230256180928029e-07 0.0022278024917118987 -0.0007752351422082229 -1.784931148731534e-05 -5.230256180928029e-07 -1.784931148731534e-05 1.8731784839565046e-05" pbc="T T T"
C       -0.05943483      -0.04380603       3.71857421      -0.00390983       0.00471565       0.00736754
C       -1.29925771       2.07749918       3.43204136       0.00334027      -0.00321388       0.00462815
C       -2.56302849       4.22909056       3.48520208      -0.00520652      -0.00235841      -0.00007553
C       -3.78399131       6.36611797       3.73633682      -0.00765959       0.00397377       0.00266740
C       -5.00639336       8.50370641       3.89214755      -0.00035080       0.00373955       0.00081311
C        2.40516250      -0.04197737       3.84808909       0.00052872      -0.00273887      -0.00171729
C        1.20552144       2.03772145       3.46874471      -0.00589725       0.00133605       0.00358244
C       -0.18713872       4.29919494       3.17328765      -0.00188879      -0.00359210       0.00031430
C       -1.36589883       6.40316476       3.53347677       0.00127544       0.00172118       0.00657196
C       -2.54845854       8.51365130       3.80582853       0.00085768      -0.00277410      -0.00656052
C        4.88265818      -0.05494017       3.88191028      -0.00099264      -0.00755133      -0.00804928
C        3.66086527       2.10475085       3.93610766       0.00284820       0.00025093      -0.00505378
C        1.06138515       6.32752172       3.76692455       0.00761232       0.00102224       0.00261608
C       -0.06894843       8.47877038       3.81259949      -0.00428910       0.00529987      -0.00501685
C        7.35326272      -0.07875082       3.80945697      -0.00051180      -0.00349550      -0.00562716
C        6.13733900       2.05912367       3.88160376       0.00688915      -0.00402576       0.00574165
C        4.94383719       4.20275940       4.13764404       0.00247882       0.00592511      -0.00477273
B        3.73949467       6.39962755       4.75579526       0.00552552      -0.00360764      -0.01192617
C        2.41635601       8.46229060       3.97513630      -0.00430350      -0.00048101      -0.00795876
C        9.81026554      -0.06471818       3.73484329      -0.00250155       0.00329155       0.00136162
C        8.58147207       2.06948445       3.65281271       0.00624336      -0.00095632      -0.00222531
C        7.35700857       4.21148640       3.81311153      -0.00384925       0.00003754       0.00707953
C        6.13045377       6.35311327       4.06853122       0.00206301      -0.00049368      -0.00226160
C        4.87150582       8.51021752       4.02260826       0.00285208      -0.00294426      -0.00268844
C       -0.05395110       1.37540673       3.51283535      -0.00255815      -0.00015872       0.00143967
C       -1.33809216       3.51163589       3.31734812      -0.00051101      -0.00594305       0.00605763
C       -2.57160515       5.65934899       3.55632836      -0.00672368       0.00218008       0.00316925
C       -3.77719380       7.79345709       3.81393672      -0.00138872       0.00315891       0.00774488
C       -4.99918548       9.93187781       3.82577618      -0.00269712       0.00445956       0.00656336
C        2.41546538       1.38074530       3.78088103      -0.00488751      -0.00068553       0.00290443
P        1.41904281       3.67596043       2.77201979       0.00714430      -0.00155171      -0.00037486
C       -0.14846263       5.69921605       3.42041391       0.00389522      -0.00012164       0.00077441
C       -1.32314586       7.80465994       3.72257707       0.00044380       0.00193725       0.00076499
C       -2.53259151       9.93089062       3.87290836       0.00036069      -0.00689827      -0.00575596
C        4.89734581       1.36458441       3.92340901       0.00399998      -0.00726554      -0.00633381
C        3.72319478       3.49866390       4.11248582       0.00660281       0.00058402      -0.00445704
C        1.16298718       7.72643648       3.87565911      -0.00616663       0.00557697      -0.00277485
C       -0.05622287       9.89930449       3.84812168      -0.00178168       0.00012272       0.00101222
C        7.36229633       1.34632184       3.77785843       0.00831253      -0.00433650      -0.00475069
C        6.15477384       3.47985129       3.93947492      -0.00099110       0.00122335       0.00694925
C        4.97031741       5.60624170       4.30148354       0.00470841       0.00516876       0.00130163
C        3.64391350       7.83367458       4.19558387      -0.00058175      -0.00510915      -0.00323365
C        2.41440831       9.88966255       3.82399718      -0.00194990       0.00017308       0.00789802
C        9.81555580       1.36166138       3.58594352       0.00560265       0.00156301       0.00229709
C        8.57421276       3.50066936       3.63581737      -0.00462855      -0.00096447       0.00077271
C        7.34745823       5.63953464       3.85985388      -0.00555976      -0.00024101      -0.00084344
C        6.11113373       7.79250991       4.02015359       0.00359240      -0.00409741       0.00496922
C        4.87830626       9.92641606       3.80877844      -0.00313534       0.00307003       0.00696912
Rh       2.28235671       4.82590130       4.42038691      -0.00314140       0.00570564      -0.00901979
O        2.95729835       6.01800480       5.96133203       0.00657986       0.00505034      -0.00821477
O        3.93994227       5.32315047       6.91363307      -0.00396650      -0.00173964       0.00899687
H        3.68526496       5.83838340       7.70991867      -0.00172778       0.00605834      -0.00363622
