52
Lattice="12.336457 0.0 0.0 -6.168228499999997 10.683685154694365 0.0 0.0 0.0 15.0" Properties=species:S:1:pos:R:3:forces:R:3 energy=-448.145357552875 free_energy=-448.145357552875 stress="0.005808137351219186 0.0012900748538135984 8.496993527309476e-06 0.0012900748538135984 -0.009598085324074445 -1.181761925728423e-05 8.496993527309476e-06 -1.181761925728423e-05 2.0365543861380257e-05" pbc="T T T"
C        0.03376471      -0.04964005       3.85846815       0.00169271       0.00333706       0.00703374
C       -1.17569519       2.10733524       3.71497048      -0.00377127       0.00160880       0.00113706
C       -2.43495447       4.23154584       3.50607176       0.00226885       0.00263280       0.00991835
C       -3.70819874       6.34605018       3.59811864      -0.00373799      -0.00190867      -0.00177352
C       -4.93370739       8.46105570       3.77426303       0.00321801      -0.00258940       0.01272625
C        2.49229794      -0.12035622       3.72313821      -0.00272001       0.00233762      -0.00488400
C        1.33096064       2.00424404       3.98748846      -0.00152328       0.00517548       0.00142583
C        0.06186917       4.23814450       3.53911878      -0.00440844      -0.00335707       0.00470517
C       -1.21771070       6.37316134       3.54749365      -0.00464422       0.00655326      -0.00728152
C       -2.44550063       8.47279781       3.63781402       0.00221217       0.00203159      -0.00868189
C        4.95639380      -0.05402199       3.56859793       0.00172479      -0.00730101       0.00352525
C        3.71894226       2.03143250       3.60094961       0.00587522       0.00319654       0.00491605
P        1.53530842       6.26686207       4.14057734       0.00046911      -0.01134270       0.00412399
C        0.01696858       8.54106008       3.73363730      -0.00053171       0.00002794       0.00623177
C        7.42611006       0.00586997       3.64919071      -0.00170180      -0.00478580       0.00077608
C        6.17672803       2.10634010       3.49624950       0.00665099       0.00161601      -0.00532750
C        4.85240673       4.20772389       3.65427042      -0.00188783       0.00213573      -0.00158330
B        3.57211870       6.33615637       4.32279493       0.01076261       0.00903499      -0.00233698
C        2.51183996       8.62892201       3.97033768      -0.00004472      -0.00276095       0.00475450
C        9.91597220       0.01115681       3.79195700      -0.00057169      -0.00436360       0.00270047
C        8.66847444       2.12089799       3.56799379       0.00159723      -0.00241822       0.00290772
C        7.38132485       4.22839279       3.54137241       0.00675182      -0.00060292       0.00530455
C        6.12643253       6.33698991       3.79488505      -0.00733749       0.00238441      -0.00484657
C        4.94997378       8.51700766       3.96397536      -0.00364563      -0.00323958      -0.00498716
C        0.05686477       1.38311164       3.87141923      -0.00306205       0.00859432       0.00451904
C       -1.17535474       3.51800642       3.55969651      -0.00152215       0.00207780       0.00414112
C       -2.45499959       5.65066002       3.51823767      -0.00243786       0.00179789      -0.00462664
C       -3.69393401       7.76017837       3.66685036       0.00141360       0.00001406      -0.00976118
C       -4.92083082       9.88199293       3.80314554      -0.00187374       0.00028534       0.00016924
C        2.51088810       1.28185213       3.76857430       0.00058082       0.00530900       0.00133106
P        1.77483546       3.72509185       4.09335886       0.00670901      -0.00469992       0.00309019
C        0.00426263       5.63506169       3.53530268      -0.00726083      -0.00231852       0.01566366
C       -1.20627731       7.78853063       3.63933137       0.00054279       0.00289453      -0.00476441
C       -2.43698493       9.88733820       3.63187566      -0.00303258       0.00014846      -0.00299386
C        4.96011060       1.36362231       3.51718046       0.00642854      -0.00449484      -0.00301491
C        3.61772255       3.43339045       3.63731231      -0.00792583       0.00528103       0.00206677
C        1.27280332       7.94939190       3.94766439       0.00072782       0.00603016       0.00618852
C        0.02500893       9.95606461       3.63420314       0.00163299      -0.00335565      -0.00556328
C        7.42596127       1.41674643       3.54955294       0.00188604      -0.00175226      -0.00147473
C        6.13274886       3.52156175       3.53089440       0.00360015       0.00393285      -0.00437009
C        4.88106930       5.61070623       3.87860702      -0.00350719       0.00074321      -0.00602112
C        3.70395441       7.87261916       4.09475196      -0.00119621      -0.00620580       0.00343380
C        2.50357427      10.02193771       3.79636429      -0.00103688      -0.00409216      -0.00316975
C        9.91874831       1.42173888       3.68169600       0.00036992      -0.00532451       0.00226509
C        8.64905074       3.53458344       3.51887238       0.00743575      -0.00287475      -0.00756790
C        7.37650892       5.64211036       3.63135208      -0.00384739       0.00063410      -0.00459963
C        6.16532370       7.76442150       3.86447241      -0.00268704       0.00100549      -0.00523750
C        4.96466777       9.95115063       3.87684724       0.00310313      -0.00269259      -0.00155441
Rh       2.42760330       5.14216819       5.68731328       0.00417765      -0.00594527      -0.00062358
O        3.06164879       4.76259207       7.45209990      -0.00669570      -0.00237508       0.00014264
O        1.88311425       5.34545683       8.12054807       0.01239065       0.00948308       0.00676685
H        2.37387283       5.96581806       8.70206673      -0.01161085       0.00049770      -0.01491931
