53
Lattice="12.336457 0.0 0.0 -6.168228499999997 10.683685154694365 0.0 0.0 0.0 15.0" Properties=species:S:1:pos:R:3:forces:R:3 energy=-460.45371208807404 free_energy=-460.45371208807404 stress="-0.0016300922369429827 0.0034989104180945213 -7.2676690902921885e-06 0.0034989104180945213 -0.005741114736140915 3.171315206014519e-05 -7.2676690902921885e-06 3.171315206014519e-05 2.502056544780664e-05" pbc="T T T"
C        0.01218692      -0.00242692       3.79088382       0.00477755       0.00556262       0.00274554
C       -1.19940548       2.15024394       3.79966858      -0.00182423       0.00422912       0.00086331
C       -2.43047811       4.28237255       3.79757635       0.00292786      -0.00060450      -0.00255931
C       -3.68893697       6.40829502       3.78821395      -0.00183381       0.00418259       0.00252001
C       -4.93886632       8.53551754       3.77637573      -0.00111943      -0.00289243       0.00507349
C        2.47427427      -0.00927472       3.75223384       0.00305873      -0.00285543       0.00215629
C        1.26578799       2.14935149       3.83401526      -0.00459347      -0.00277108       0.00647645
C        0.03625799       4.28501107       3.87894853      -0.00202362      -0.00302395       0.00669813
C       -1.19911368       6.41783961       3.82062276      -0.00009480       0.00210929       0.00362303
C       -2.46434172       8.54424513       3.74674338       0.00251889       0.00384149       0.00617961
C        4.94685683      -0.00125467       3.67845721       0.00050989       0.00315335       0.00710104
C        3.72789579       2.10233320       3.72829984       0.00333188      -0.00099736       0.00387791
B        2.58452482       4.40841793       4.01606233      -0.00383162       0.00546898       0.00202104
B        1.41705310       6.42996704       3.97923785      -0.00066032      -0.00304412       0.00100712
C       -0.00938472       8.57490045       3.71408158       0.00137219       0.00368606      -0.00298596
C        7.41462482       0.02376546       3.66627658      -0.00785414       0.00250596       0.00070555
C        6.20205352       2.12390246       3.67223227       0.00250029      -0.01013138       0.00229665
C        5.00043705       4.20813344       3.71357045       0.00390426       0.00080906      -0.00546543
P        3.29262420       6.16422353       2.90192679       0.00421193      -0.00555208      -0.00135945
C        2.45094893       8.62484283       3.69500411       0.00081660       0.00284164      -0.01067916
C        9.89753030       0.02479649       3.74297657      -0.00008045       0.00115234      -0.00118595
C        8.67062643       2.14832000       3.72357723       0.00032329       0.00026657       0.00785769
C        7.44496567       4.27262785       3.74778146      -0.00240177      -0.00167252       0.00167761
C        6.16090715       6.39916358       3.78860955      -0.00594622       0.00076871      -0.00615338
C        4.92925718       8.53306731       3.78003167       0.00334556       0.00017704      -0.00442715
C        0.02698421       1.42849427       3.81069988      -0.00435549       0.00381079      -0.00231835
C       -1.20236406       3.56995610       3.82177177      -0.00003567      -0.00034484       0.00928466
C       -2.44247321       5.70522804       3.80331200      -0.00038433       0.00229438       0.00614145
C       -3.70240061       7.82965651       3.77305875      -0.00060474       0.00425690       0.00300526
C       -4.93173947       9.95914943       3.77577391       0.00120629      -0.00083349       0.00313037
C        2.48502373       1.40703147       3.77463746      -0.00071379      -0.00121299       0.00408149
C        1.26939871       3.58006441       3.90159759      -0.00392535      -0.00294450      -0.00060762
C        0.04150361       5.70513433       3.88431060      -0.00041398      -0.00248090      -0.00112832
C       -1.23248320       7.84519327       3.76344925       0.00238398       0.00328992      -0.00468313
C       -2.45962188       9.96715998       3.71794596       0.00528162       0.00130833       0.00309129
C        4.96368349       1.41118755       3.67732337       0.00289436      -0.00335056      -0.00529941
C        3.78778725       3.51175154       3.75164236       0.00296317       0.00056457       0.00730478
C        1.24138930       7.92279525       3.72774569       0.00324755       0.00101702       0.00040944
C        0.01019187       9.99104029       3.66934299      -0.00438429       0.00299994       0.00200231
C        7.43243613       1.43409939       3.67889193       0.00161287      -0.00317027      -0.00173680
C        6.23050588       3.53860777       3.69785093       0.00017428      -0.00914505       0.00358067
C        4.91459393       5.63743670       3.81759890      -0.01348842       0.00882420      -0.00061795
C        3.64616819       7.83541299       3.79868266       0.00029506       0.00128211       0.00080511
C        2.48596375      10.02473315       3.68818861      -0.00622710       0.00538511      -0.00125986
C        9.90318775       1.44143458       3.75398198       0.00192252       0.00132798      -0.00261423
C        8.67475007       3.56890518       3.75597205       0.00308116       0.00120001      -0.01001757
C        7.40601254       5.69892994       3.78464037      -0.00437550       0.00298584      -0.00975164
C        6.15569318       7.81866777       3.78683692       0.00036876      -0.00364477      -0.00576797
C        4.94500687       9.96118834       3.78045629       0.00592933       0.00034243      -0.00979298
Rh       3.20976761       6.12727109       5.01978566      -0.00240978       0.00021108      -0.00269055
O        3.63991927       6.41989594       6.89694402       0.00761225      -0.01726751      -0.00567281
O        2.37746480       5.93746812       7.44951110       0.00619363      -0.00348962       0.00190612
H        2.75164228       5.31810709       8.11120975      -0.00518343      -0.00042608      -0.00884843
