51
Lattice="12.336457 0.0 0.0 -6.168228499999997 10.683685154694365 0.0 0.0 0.0 15.0" Properties=species:S:1:pos:R:3:initial_magmoms:R:1:forces:R:3 energy=-654909.7472761245 free_energy=-654909.7472761245 stress="931.0284634798955 -123.69743693402619 154.01277576042534 -123.69743693402619 347.80972386167605 50.504045763156626 154.01277576042534 50.504045763156626 -52.588204990998044" pbc="T T T"
C        1.07168104       2.67116563      -2.44607112       0.00000000       4.46273560      16.22007282      32.72825632
C        8.57348379       4.57728419      -4.27236505       0.00000000     -78.40382151      -0.62675495      60.34945990
C       -7.40119677       7.45563796      -1.86432090       0.00000000       0.19655746       0.36577142       0.69661274
C       -6.32967379      10.75393940      -3.44151326       0.00000000     -67.09252814     -61.93907688     106.83227346
C       -6.67406643       5.62830184       4.04272568       0.00000000     132.05640531     310.93978666    -107.38008998
C        0.91807688       1.21060593       9.33005461       0.00000000    1637.43425878   -1418.31035732    3750.84000760
C        1.33957130       2.73164741       6.00462712       0.00000000 -4348252.50521105 1735368.60210698   81808.66628248
C        1.71402083       7.96390501      -1.94571969       0.00000000      -0.39684268       0.63353002       0.92742954
C        0.93107175       0.74563219       6.33696112       0.00000000   15762.41664950   11777.07306681   -3234.42085565
C       -2.16501261       8.73338420       4.38555763       0.00000000     469.62561156   -1118.91959816     169.09108930
C        1.03472253      -0.13107486      -1.87841647       0.00000000      -2.75207350      -4.91485572      11.69488594
C        1.64707726       0.84711653       5.69211219       0.00000000   43819.10365122  -47768.14189068  -32382.03130748
C        6.12962164       4.97150307       3.82632450       0.00000000      31.55790729      10.53478172     -53.04798025
C       -4.02959229      12.06873099       5.04344727       0.00000000   81784.56870767  -19033.09046396  -33761.23109394
C       10.26827120       8.49072863       7.79217173       0.00000000    -101.73172844      99.44840749     -32.58446608
C       -0.60467804       1.46525545      11.23295652       0.00000000      30.46115805      91.87415730    -370.89493016
C        2.98711794      10.55052324       5.33005354       0.00000000       9.52593258     102.33097182     131.25957562
O       -1.09459643       8.21993612      -4.21048201       0.00000000     -23.01346458      23.36926931      43.81105976
C       -2.38920956       4.84992488       3.79268138       0.00000000   -1554.05148962   -1381.20436161    -828.02700394
C        7.99903994       0.51891204       1.88385430       0.00000000       9.95530352      -0.23672476      -3.30060356
C        9.74658304       4.66700536       4.91999607       0.00000000   -2253.38366693    -930.48932606    1608.41576976
C       10.30688932       4.64514009       8.14236980       0.00000000   -2209.88332606    2431.58492969    1095.71740211
C       12.29644465       8.01631605       7.99844705       0.00000000     -40.62380674    -797.44999257     135.67798159
C        5.87009803       4.78122087       4.85766457       0.00000000     686.74068270     558.37183574    -142.07259389
C       -1.19238747       9.70809143      -1.25976244       0.00000000      -0.15937734      -0.13000408       1.01167745
C       -0.64415915       5.15157440       3.55995502       0.00000000    2947.85693900   -2979.59589303    3479.20583685
C        0.26305263       3.75030011      -2.61393500       0.00000000      20.52114124      -5.13850275      41.04418453
C       -1.82164492       8.09040006       3.45903897       0.00000000       6.23635840    -145.40581757     444.73947755
C       -2.09236020       9.33878473       4.17841883       0.00000000     237.30443344    -298.72953407    -274.70715777
C        0.76240239      -1.72560132       1.34780486       0.00000000       8.06783947      10.43551394      16.68039655
C        0.47154141       2.44948228       5.84585808       0.00000000  748337.61316151  733324.29670920  409171.06147255
C        3.54584615       6.53890766       5.73705988       0.00000000    -446.44994978    -588.64613147     292.05893102
C       -1.74302880       5.76036317       3.65357623       0.00000000     658.63538277    2185.18207501    -931.31762083
C       -0.99855208       9.27361785       4.49023721       0.00000000     -86.92794209    -475.69569715     111.04674859
C       18.12552809      -5.33029974       0.18815319       0.00000000      -3.74855290      19.59822388     -45.51440971
O        2.52349712       3.49473995       4.71932835       0.00000000  -64417.97222678  -67440.17105957   90022.33006346
C       -1.22896821       4.38555911       9.68291758       0.00000000   -1460.39044109    1393.43193901    2487.86516181
C       -1.96096031       8.98482165       1.20703254       0.00000000      -2.54213010     -13.64452329       4.72596251
C        8.01148743      -5.25970142       6.41597876       0.00000000   -5094.98117699  -45281.78627598   -6830.46912605
C        6.75005142       4.41448583       3.91699911       0.00000000     284.98796005    -140.61388335    -124.48252224
C        3.96174963       4.19185424      12.25257601       0.00000000       2.64060091      -3.86361626       8.91380816
C       -1.85932788       4.07110663       5.10173757       0.00000000   -4431.36473458    6622.45248020   -5561.18888765
C       -1.57510006      12.16647112       3.32179431       0.00000000    -495.16121505    -232.99757108    -207.60352271
C       11.35808981       2.61131569       1.60566043       0.00000000    -221.74296377      -0.93598599    -206.80233922
C        6.27829442       2.51010193       0.42751804       0.00000000      11.94328707       8.06824530     -14.15553854
C       12.32132013       6.37678982       8.08326290       0.00000000     352.34982957    1062.95790282    -328.63430178
C       11.18737202       7.19741311       5.27402521       0.00000000    -445.05354991    1531.22465469    -791.63420006
C       -1.32084665       8.11021617       1.95777437       0.00000000     -23.51737148      23.79464592     -24.54195246
Rh       0.96051916       2.93461775       5.98408770       0.00000000 3792199.16085234 -1943389.82485608 -988916.64073333
O        2.82199911       5.59593213       8.73700390       1.00000000    2602.16465279    3930.21594437    3546.08084262
O        0.51606665       2.81641562       6.40742342       1.00000000 -260333.73840868 -367390.50426775  476589.21058751
