52
Lattice="12.336457 0.0 0.0 -6.168228499999997 10.683685154694365 0.0 0.0 0.0 15.0" Properties=species:S:1:pos:R:3:initial_magmoms:R:1:forces:R:3 energy=-452.81664473435245 free_energy=-452.81664473435245 stress="0.00013825301438506697 0.0031872524331280757 -2.1420493929436002e-05 0.0031872524331280757 -0.0037435918975817065 -6.26178331746172e-06 -2.1420493929436002e-05 -6.26178331746172e-06 -2.2512349234370427e-05" pbc="T T T"
C       -0.07041775       0.07850448       3.86852825       0.00000000      -0.00346230       0.00623344      -0.00207038
C       -1.28279024       2.23144998       3.91090072       0.00000000       0.00055420      -0.00111156       0.00220528
C       -2.52009691       4.35608575       3.89630266       0.00000000       0.00368968      -0.00635909      -0.00008606
C       -3.79601747       6.47492628       3.83743086       0.00000000       0.00679347      -0.00410431       0.00478125
C       -5.04424417       8.60127443       3.80063798       0.00000000      -0.00574231      -0.00147957      -0.00315952
C        2.38230780       0.04877887       3.97144767       0.00000000       0.00217297      -0.00302880      -0.00950966
C        1.18032012       2.21716638       3.88175204       0.00000000       0.00070150      -0.00869229       0.00103598
C       -0.04651673       4.36891004       3.60963254       0.00000000      -0.00001968       0.00525124       0.00049169
C       -1.33017215       6.49255645       3.57765287       0.00000000       0.00125711       0.00316361      -0.00046813
C       -2.55377161       8.60863436       3.80563429       0.00000000       0.00603898       0.00282316       0.00209185
C        4.85554661       0.06367536       4.01283429       0.00000000       0.00704636       0.00387619       0.00626926
C        3.63150370       2.16251653       4.10221239       0.00000000       0.00623746       0.00844673      -0.00049578
C        2.47967962       4.26312740       3.67295532       0.00000000       0.00091460      -0.00490238      -0.00170126
S        1.01008230       6.55027832       2.28649458       0.00000000      -0.00860613      -0.00086920      -0.00494101
C       -0.10385715       8.66795206       3.54124432       0.00000000      -0.00547986      -0.01027361       0.00134295
C        7.32402010       0.09210385       3.91551004       0.00000000      -0.00325266       0.00110002      -0.00377485
C        6.10878312       2.19351963       4.16106534       0.00000000      -0.00453605       0.00353844      -0.00713428
C        4.89724721       4.29027748       4.00809205       0.00000000       0.00990943      -0.00320081       0.00008131
S        3.77019480       7.43641908       1.28685256       0.00000000      -0.00569770      -0.00274230      -0.00586705
C        2.34996371       8.76104951       3.23697419       0.00000000      -0.00334445       0.00410280      -0.01130843
C        9.80409772       0.10683507       3.81072092       0.00000000       0.00835614       0.00189620      -0.00130372
C        8.58166769       2.21876899       4.04621474       0.00000000      -0.00291968       0.00503739       0.00424021
C        7.34585894       4.34090844       4.03338266       0.00000000      -0.01057561       0.00469773       0.00018229
C        6.05403945       6.45372843       3.73307236       0.00000000      -0.00937938      -0.00233716       0.00343811
C        4.85445766       8.65231965       3.49929516       0.00000000      -0.00213913       0.00176237      -0.00322984
C       -0.05484040       1.51052411       3.89534887       0.00000000      -0.00318641       0.00044530      -0.00157911
C       -1.27740339       3.65521478       3.83626792       0.00000000       0.00449742      -0.00322492       0.00380670
C       -2.54797916       5.77362625       3.80065680       0.00000000       0.00906426      -0.00580270      -0.00440004
C       -3.80307517       7.89703972       3.81300691       0.00000000       0.00418288       0.00063839       0.00650311
C       -5.02345810      10.02840553       3.88102949       0.00000000      -0.00661372       0.00225900      -0.00541258
C        2.39320017       1.47663464       4.00150863       0.00000000       0.00657030      -0.00120966       0.00269432
C        1.21249324       3.65695044       3.70071519       0.00000000       0.00123918      -0.00277415       0.01047461
C       -0.14819095       5.74598019       3.30734233       0.00000000      -0.00147192       0.00776666      -0.00516029
C       -1.32455508       7.91790752       3.60884578       0.00000000      -0.00260107      -0.00344710      -0.00004469
C       -2.55114434      10.02975066       3.94374534       0.00000000       0.00845089       0.00313259      -0.00171688
C        4.86770140       1.47470724       4.13284568       0.00000000       0.00221125       0.00620965       0.00100702
C        3.65318967       3.57581421       3.98753302       0.00000000       0.01112818       0.00474440      -0.00476599
C        1.11688672       8.10271084       3.10105536       0.00000000      -0.00545979      -0.00167760       0.00482762
C       -0.08043600      10.06112033       3.85761869       0.00000000      -0.00042998      -0.00903352       0.00314917
C        7.34146563       1.50019151       4.08037940       0.00000000      -0.00604289       0.00422884       0.00587829
C        6.13192705       3.60783979       4.13380591       0.00000000      -0.00097656      -0.00055435       0.00740265
C        4.90227030       5.64837914       3.70628029       0.00000000      -0.00011622      -0.00549773       0.00705089
C        3.62282483       8.12490456       2.87938040       0.00000000       0.00051346      -0.00452260      -0.00368402
C        2.38729057      10.10264289       3.69619908       0.00000000       0.00312202       0.00074365       0.00178237
C        9.81664355       1.51876418       3.95187894       0.00000000       0.00198444       0.00168108       0.00316447
C        8.58857644       3.63953749       4.02827540       0.00000000      -0.00650951       0.00488936      -0.00637490
C        7.31625215       5.75757823       3.88423499       0.00000000      -0.00522997       0.00273608       0.00745592
C        6.04271373       7.89699864       3.65541113       0.00000000      -0.00775862      -0.00217001      -0.00740577
C        4.86179222      10.05910194       3.73763239       0.00000000       0.00392490       0.00007104       0.00993620
Rh       3.10340249       6.01614416       3.02081178       0.00000000       0.00015147      -0.00003358      -0.00764109
O        4.52185590       2.57690378       6.88122342       1.00000000       0.00962943      -0.00763198       0.00955205
O        4.66309174       3.78898570       6.76241343       1.00000000      -0.00879037       0.00520562      -0.00761022
