52
Lattice="12.336457 0.0 0.0 -6.168228499999997 10.683685154694365 0.0 0.0 0.0 15.0" Properties=species:S:1:pos:R:3:forces:R:3 energy=-452.5254621282947 free_energy=-452.5254621282947 stress="-0.009185704446732898 -0.001396200626109054 1.8699032237246812e-06 -0.001396200626109054 0.0007557310170790029 -4.226520857378911e-05 1.8699032237246812e-06 -4.226520857378911e-05 -1.807690346788675e-05" pbc="T T T"
C       -0.01770078       0.00573640       3.89798102      -0.00630795      -0.00346598       0.00373305
C       -1.28090970       2.10408387       3.97135495      -0.00495373       0.00189794      -0.00079245
C       -2.51380541       4.25584359       3.98139912       0.00509596      -0.00133241      -0.01102736
C       -3.70886283       6.41672959       3.89199180      -0.00282318      -0.00479868       0.00855551
C       -4.93225651       8.57148618       3.87068204       0.00638842      -0.00181991      -0.01057711
C        2.45508965       0.02622095       3.85455228      -0.01125728      -0.00616857      -0.00310868
C        1.20770375       2.17890958       3.86797261      -0.00611305       0.00206671      -0.00450359
C       -0.08609461       4.24846944       4.07291884       0.00119053       0.00371420      -0.00517851
C       -1.29347444       6.41880004       4.06000326       0.00353553      -0.00569192      -0.00103465
C       -2.48890389       8.56327243       3.94721631       0.00384940      -0.00429632      -0.00097956
C        4.92116211      -0.00795942       3.75265372      -0.00395738      -0.00384459       0.00773877
C        3.67010621       2.06984599       3.36968705       0.01088884      -0.00587019       0.00774880
C        1.11951787       6.37201058       4.00433450      -0.00157726       0.00657502       0.01816123
C       -0.02470477       8.52224230       3.93195692      -0.00591753      -0.00277917      -0.01077951
C        7.38473402      -0.04242911       3.78068289       0.00108137       0.00245898      -0.00448321
C        6.16093068       2.11339806       3.50681110       0.00285927       0.00621255      -0.00262542
C        5.06903536       4.32321168       3.12720746      -0.01191341      -0.00506967       0.00168696
C        3.82575141       6.39711210       3.57920112       0.01143002      -0.00342880       0.00066966
C        2.45414399       8.47799972       3.83272284       0.00679056       0.00283508       0.00419461
C        9.84042289      -0.04184284       3.85794990       0.01202671       0.00260626      -0.00485523
C        8.60559249       2.10658931       3.80931574       0.00155680      -0.00364299      -0.00575852
C        7.41291725       4.26755956       3.65581352      -0.00563171      -0.00213958      -0.00026602
C        6.23144777       6.44499917       3.58587519      -0.01031605       0.00532733       0.00251791
C        4.94313870       8.53951439       3.77448358       0.00384254      -0.00098833       0.00333277
C       -0.03022562       1.42669076       3.93151335      -0.00956180      -0.00177454      -0.00163171
C       -1.30697661       3.52348781       4.04092308       0.00464122       0.00187193      -0.00316277
C       -2.50389325       5.69095071       3.99944933       0.00259566      -0.00258981      -0.00282892
C       -3.71071808       7.84827748       3.91735959       0.00667170      -0.00400931      -0.00804906
C       -4.94399665       9.99279041       3.89907271      -0.00836605      -0.00534774      -0.00230150
C        2.45288857       1.44993187       3.71973346       0.00012017      -0.00212840       0.00090808
C        1.11612383       3.55905835       3.98480523       0.00514966       0.00575469       0.00539439
C       -0.08306479       5.68575592       4.07924843       0.00350028      -0.00135902      -0.01233673
C       -1.26486453       7.84023298       3.99550284       0.00066027      -0.00810007      -0.00473501
C       -2.48328913       9.98667001       3.85907372      -0.00765049      -0.00342301       0.00090343
C        4.92335508       1.40942661       3.52793139       0.00854090      -0.00357196       0.00366261
S        3.63510440       3.57248785       2.49877518       0.00708398       0.01483313      -0.00752222
C        1.21325369       7.76914770       3.92510574      -0.00098685       0.00402960       0.00351718
C       -0.01706735       9.94169785       3.82085284      -0.00333181      -0.00145706       0.00465180
C        7.37567937       1.39313432       3.69742975      -0.00092938       0.00382793       0.00224499
C        6.20197086       3.54586813       3.40801384      -0.00679324       0.00067887      -0.00455779
C        5.02681428       5.72722842       3.35956254      -0.00283700      -0.00832757       0.00839266
C        3.70897318       7.78352114       3.73301985       0.00758733      -0.00523790       0.00456082
C        2.44571329       9.90874800       3.82697114       0.00982658       0.00539814       0.00514400
C        9.82786907       1.38342252       3.89298065       0.00059551      -0.00080210       0.00769369
C        8.61020608       3.53880220       3.83021296       0.00141477      -0.00340391       0.00021630
C        7.42443697       5.70052837       3.70577386      -0.01200966       0.00200829       0.00244933
C        6.18547935       7.85600881       3.75147586       0.00143813       0.00588417       0.00356690
C        4.92045664       9.95455896       3.85975433       0.00399452      -0.00314153      -0.01046072
Rh       2.55183677       4.98846431       4.01809596      -0.01224721       0.00308715      -0.00558315
O        3.11060975       4.62833192       5.83474509       0.00197501       0.00324328       0.01197044
O        2.52517676       5.57252908       6.82910724       0.00071871       0.00847677       0.00290435
H        3.14242851       5.37104500       7.56022743      -0.00156833       0.01722305       0.00261914
