52
Lattice="12.336457 0.0 0.0 -6.168228499999997 10.683685154694365 0.0 0.0 0.0 15.0" Properties=species:S:1:pos:R:3:forces:R:3 energy=-452.34739175905736 free_energy=-452.34739175905736 stress="-0.005418026702774192 7.0351062772475865e-06 -1.2105724842071812e-05 7.0351062772475865e-06 0.009224172701351997 1.7100721278247326e-05 -1.2105724842071812e-05 1.7100721278247326e-05 -4.651534036386133e-06" pbc="T T T"
C       -0.06693461       0.06137647       3.81394295       0.01291032       0.00213214      -0.00430274
C       -1.32859819       2.15257440       3.83741662      -0.00257961       0.00156936       0.01379681
C       -2.57726535       4.30416063       3.75028698      -0.01166534       0.00765607      -0.00507117
C       -3.78590782       6.46190832       3.66868734       0.00215781       0.00252668      -0.00191511
C       -5.00237051       8.61685949       3.70514017       0.00108275      -0.00365985      -0.01018775
C        2.40583074       0.11649047       3.80822549      -0.00825076      -0.00122295      -0.00698568
C        1.16020998       2.24975277       3.96051233       0.00168520       0.00408394      -0.00064289
C       -0.18115233       4.31473705       4.00409735       0.00820320       0.00466418       0.00140913
C       -1.37166025       6.47045272       3.85946378      -0.00769605      -0.00509666       0.00283247
C       -2.55051676       8.61985963       3.78404136       0.00361878      -0.00841227       0.00135639
C        4.86988673       0.04792874       3.78363077       0.00837622       0.00030550      -0.00785163
C        3.67456500       2.21118157       3.72985456      -0.00732536      -0.00396696      -0.00581394
C        1.05723227       6.37287883       4.14136243      -0.01171673       0.00280714       0.00779134
C       -0.06774719       8.55280577       3.89265487       0.01090462      -0.00820415      -0.00394986
C        7.34361327      -0.01427635       3.78177438       0.00504414       0.00037526      -0.00301972
C        6.11786870       2.15675864       3.62614858       0.00077537       0.00353141      -0.00458437
C        4.93419321       4.31515466       3.43668658      -0.00361821      -0.00780895       0.00765745
O        3.74504794       6.44906336       3.56953525      -0.00801934       0.00115688      -0.00009299
C        2.42250678       8.48106483       3.86250408      -0.00561438       0.00521807      -0.00508851
C        9.79279447      -0.01084923       3.79258281       0.00485859      -0.01156631      -0.00094956
C        8.56220921       2.14426171       3.70624260      -0.00769970      -0.00318271      -0.00449368
C        7.33590162       4.30752552       3.56280285      -0.00218596       0.00681369       0.00473896
C        6.11802917       6.45700454       3.52123271       0.00780944       0.00257723      -0.00494395
C        4.87518831       8.56296157       3.72251618      -0.00133024       0.00940124      -0.01685915
C       -0.06711047       1.49032754       3.88032692       0.00735001       0.00293819       0.00002178
C       -1.37258806       3.57231247       3.85424734      -0.00310315       0.00967560      -0.00257886
C       -2.57716053       5.73890788       3.75103782      -0.00855269       0.00425230       0.00526897
C       -3.77483086       7.89892357       3.71269602      -0.00035386      -0.00550954      -0.00299452
C       -4.99252390      10.05789350       3.78300338      -0.00025857      -0.00757188       0.00056352
C        2.42388506       1.56285097       3.84917669      -0.00678885       0.00033886       0.01705668
C        1.05412250       3.66766858       4.12945162       0.00800671       0.00327429       0.00033859
C       -0.17997678       5.72712115       4.00806448      -0.00626187       0.00274249       0.00180687
C       -1.32920298       7.89089302       3.84732471       0.00720385      -0.01031123       0.00532521
C       -2.54314679      10.05460585       3.79324555      -0.00047060       0.00123184       0.00829155
C        4.87623299       1.47923600       3.71156953      -0.00053868       0.00638412      -0.00576175
O        3.75156015       3.59462570       3.58087921      -0.01369096      -0.00457414       0.00711026
C        1.15978834       7.79282022       3.97623852       0.00280047      -0.00573760      -0.01024447
C       -0.06678667       9.98155900       3.81794609       0.01345159      -0.00399269      -0.00554252
C        7.33452288       1.42606589       3.69586217      -0.00607795      -0.00001504       0.00803416
C        6.11989244       3.58472259       3.50917415       0.00276493      -0.00183509       0.00549120
C        4.93184227       5.72903683       3.44451731       0.00462358      -0.00409563       0.00209752
C        3.67294597       7.83022772       3.74282114      -0.00689969       0.00981409      -0.01455469
C        2.40544232       9.92748297       3.81056248       0.00083902       0.00111979       0.01020505
C        9.78643518       1.42396045       3.77779127      -0.00351058      -0.01034516       0.00267980
C        8.55138105       3.58066985       3.66583252      -0.00838988       0.00285785      -0.00912281
C        7.33501220       5.73394804       3.56686847       0.00868744       0.00553957       0.01069477
C        6.11722537       7.88548733       3.63745752      -0.00038065       0.00407972       0.00753559
C        4.86874636       9.99517665       3.78569187       0.01449587       0.00580699      -0.00197239
Rh       2.26689002       5.01643358       4.54748890       0.00190517       0.00452166       0.00468499
O        3.72613337       5.20462409       5.91009693       0.00491204      -0.00390807      -0.00600514
O        4.00243126       3.85828600       6.30864551      -0.01356707       0.00219931       0.01085490
H        3.77342168       3.92197016       7.26135579       0.01207960      -0.01057858      -0.00211411
